10pm6 annealed from 1000 to 300K
40000
    1BDTP    C1    1   9.222   7.716   2.558 -0.1831  0.0428  0.1518
    1BDTP    C2    2   9.279   7.740   2.430 -0.1400  0.0395  0.1705
    1BDTP    C3    3   9.211   7.808   2.329 -0.0751  0.1101  0.1737
    1BDTP    C4    4   9.081   7.853   2.356 -0.0513  0.1878  0.1578
    1BDTP    C5    5   9.024   7.828   2.484 -0.0947  0.1910  0.1391
    1BDTP    C6    6   9.091   7.761   2.585 -0.1595  0.1204  0.1357
    1BDTP    C7    7   8.991   7.925   2.268  0.0140  0.2693  0.1575
    1BDTP    C8    8   8.871   7.955   2.322  0.0217  0.3327  0.1397
    1BDTP    S1    9   8.854   7.896   2.494 -0.0529  0.2984  0.1209
    1BDTP    C9   10   9.311   7.644   2.647 -0.2489 -0.0386  0.1520
    1BDTP   C10   11   9.432   7.614   2.592 -0.2563 -0.1023  0.1697
    1BDTP    S2   12   9.448   7.672   2.421 -0.1818 -0.0679  0.1887
    2FTM     S1   13   9.315   7.982   2.128 -0.0931  0.0885 -0.1371
    2FTM     C1   14   9.402   7.901   1.993 -0.1725  0.0896 -0.1887
    2FTM     C2   15   9.389   7.766   2.003 -0.3190  0.0960 -0.2841
    2FTM     C3   16   9.312   7.719   2.115 -0.3769  0.1006 -0.3221
    2FTM     C4   17   9.265   7.820   2.192 -0.2716  0.0974 -0.2533
    2FTM     F1   18   9.445   7.677   1.913 -0.4094  0.0982 -0.3428
    2FTM     C5   19   9.473   7.981   1.885 -0.0766 -0.2364 -0.1387
    2FTM     C6   20   9.612   8.057   1.909  0.1278  0.2418  0.0704
    2FTM     C7   21   9.676   8.119   1.776  0.3853  0.2478 -0.0594
    2FTM     C8   22   9.722   8.028   1.671 -0.3133 -0.3804  0.2508
    2FTM     C9   23   9.843   7.946   1.696 -0.1427  0.0666 -0.3270
    2FTM    C10   24   9.867   7.831   1.602  0.2189  0.2463 -0.1008
    2FTM    C11   25   9.630   8.157   2.024  0.0838 -0.1376  0.1397
    2FTM    C12   26   9.532   8.276   2.015  0.2229  0.2625  0.5048
    3FTM     S1   27   9.059   7.599   2.825  0.2883  0.1937 -0.1400
    3FTM     C1   28   8.967   7.676   2.959  0.3830  0.2003 -0.0786
    3FTM     C2   29   8.923   7.799   2.921  0.2830  0.1636 -0.0839
    3FTM     C3   30   8.958   7.840   2.788  0.1302  0.1290 -0.1349
    3FTM     C4   31   9.030   7.745   2.722  0.1132  0.1393 -0.1697
    3FTM     F1   32   8.849   7.882   3.004  0.3240  0.1594 -0.0429
    3FTM     C5   33   8.932   7.599   3.077 -0.8185 -0.4304 -0.3958
    3FTM     C6   34   8.850   7.470   3.072  0.7451  0.1969 -0.4528
    3FTM     C7   35   8.699   7.504   3.047 -0.0956  0.1929 -0.0126
    3FTM     C8   36   8.621   7.548   3.177 -0.2200  0.7304 -0.4429
    3FTM     C9   37   8.481   7.593   3.148 -0.4048  0.1329  0.1909
    3FTM    C10   38   8.380   7.486   3.113  0.0588 -0.7971  0.6900
    3FTM    C11   39   8.888   7.346   2.989  0.2254  0.5638 -0.3702
    3FTM    C12   40   9.030   7.297   3.005 -0.0246  0.0667  0.5687
    4TPM     C1   41   9.550   7.565   2.667  0.1176  0.4413  0.3019
    4TPM     C2   42   9.677   7.569   2.619  0.0041  0.5454  0.0067
    4TPM     C3   43   9.774   7.505   2.704  0.1771  0.1612 -0.4647
    4TPM     C4   44   9.720   7.452   2.818  0.4227 -0.2362 -0.5289
    4TPM     S1   45   9.542   7.479   2.826  0.4549 -0.1552  0.0053
    5BDD     C1   46   9.897   7.445   3.171  0.0470  0.1365 -0.1118
    5BDD     C2   47   9.977   7.372   3.088  0.0549  0.0830 -0.0564
    5BDD     C3   48   9.924   7.357   2.954  0.0358 -0.0606 -0.0338
    5BDD     C4   49   9.804   7.420   2.936  0.0135 -0.1142 -0.0724
    5BDD     S1   50   9.749   7.501   3.086  0.0149  0.0111 -0.1395
    5BDD     C5   51  10.106   7.312   3.130  0.0805  0.1616 -0.0223
    5BDD     C6   52   9.995   7.282   2.848  0.0403 -0.1391  0.0251
    5BDD     O1   53   9.949   7.269   2.732  0.0238 -0.2629  0.0447
    5BDD     O2   54  10.152   7.324   3.246  0.0970  0.2854 -0.0418
    5BDD     C7   55  10.123   7.222   2.890  0.0658 -0.0607  0.0593
    5BDD     C8   56  10.176   7.237   3.024  0.0850  0.0829  0.0367
    5BDD     C9   57  10.297   7.174   3.042  0.1073  0.1365  0.0751
    5BDD     S2   58  10.352   7.093   2.892  0.1058  0.0112  0.1423
    5BDD    C10   59  10.204   7.149   2.807  0.0738 -0.1143  0.1147
    5BDD    C11   60  10.189   7.083   2.668 -0.7899 -0.0067 -0.2183
    5BDD    C12   61  10.062   7.007   2.636  0.4727 -0.2041 -0.2960
    5BDD    C13   62  10.038   6.969   2.491 -0.6494 -0.1001 -0.2587
    5BDD    C14   63  10.035   7.085   2.391 -0.2832 -0.3629 -0.7869
    5BDD    C15   64   9.990   7.051   2.249  0.9236  0.2743  0.3082
    5BDD    C16   65   9.843   7.007   2.239  0.0782  0.3656  0.1331
    5BDD    C17   66  10.027   6.891   2.733  0.2842  0.2164 -0.6990
    5BDD    C18   67   9.885   6.825   2.734  0.0988 -0.4273 -0.1111
    5BDD    C19   68  10.398   7.171   3.155  0.2070  0.2190 -0.0495
    5BDD    C20   69  10.459   7.304   3.202  1.4229  0.3277 -0.4220
    5BDD    C21   70  10.512   7.399   3.091 -0.0104  0.0969  0.2523
    5BDD    C22   71  10.641   7.356   3.018  0.9259  0.9779 -0.4068
    5BDD    C23   72  10.661   7.430   2.885  0.2959 -0.0212 -0.4428
    5BDD    C24   73  10.774   7.368   2.808  0.2983 -0.3342  0.7395
    5BDD    C25   74  10.544   7.295   3.335 -0.7446  0.1674  0.6860
    5BDD    C26   75  10.601   7.429   3.395  0.1511  0.6381 -0.4229
    6TPM     C1   76   9.913   7.495   3.303  0.2747 -0.4000  0.0945
    6TPM     C2   77   9.905   7.628   3.331  0.0789 -0.3257 -0.2996
    6TPM     C3   78   9.915   7.658   3.472 -0.2008  0.0880 -0.3645
    6TPM     C4   79   9.931   7.548   3.551 -0.2181  0.3291 -0.0199
    6TPM     S1   80   9.935   7.396   3.453  0.1200  0.0502  0.4167
    7BDTP    C1   81   9.957   7.487   4.174 -0.1007 -0.0963 -0.1413
    7BDTP    C2   82  10.074   7.565   4.147 -0.1573  0.0015 -0.1073
    7BDTP    C3   83  10.109   7.605   4.019 -0.2180  0.1341 -0.0825
    7BDTP    C4   84  10.025   7.568   3.912 -0.2233  0.1721 -0.0917
    7BDTP    C5   85   9.908   7.491   3.939 -0.1667  0.0743 -0.1255
    7BDTP    C6   86   9.873   7.450   4.067 -0.1060 -0.0585 -0.1504
    7BDTP    C7   87  10.041   7.598   3.771 -0.2809  0.3032 -0.0703
    7BDTP    C8   88   9.943   7.548   3.692 -0.2705  0.3084 -0.0865
    7BDTP    S1   89   9.817   7.455   3.785 -0.1862  0.1478 -0.1310
    7BDTP    C9   90   9.941   7.457   4.314 -0.0431 -0.2276 -0.1625
    7BDTP   C10   91  10.039   7.507   4.394 -0.0535 -0.2327 -0.1463
    7BDTP    S2   92  10.165   7.600   4.301 -0.1378 -0.0720 -0.1019
    8FTM     S1   93  10.228   7.825   3.879  0.2372 -0.0120  0.2450
    8FTM     C1   94  10.407   7.842   3.887  0.2720 -0.0549 -0.3449
    8FTM     C2   95  10.459   7.748   3.972  0.5639 -0.2867 -0.7740
    8FTM     C3   96  10.364   7.660   4.033  0.7731 -0.4416 -0.6727
    8FTM     C4   97  10.236   7.687   3.995  0.6370 -0.3242 -0.1489
    8FTM     F1   98  10.595   7.737   3.998  0.6588 -0.3725 -1.2841
    8FTM     C5   99  10.472   7.943   3.795 -0.1016  0.7274 -0.1199
    8FTM     C6  100  10.418   7.940   3.653  0.0664  0.0157 -0.4564
    8FTM     C7  101  10.452   8.066   3.571 -0.5525  0.1821  0.5651
    8FTM     C8  102  10.378   8.199   3.593  0.0898  0.2602  0.3415
    8FTM     C9  103  10.230   8.190   3.626  0.1177  0.7830 -0.2680
    8FTM    C10  104  10.163   8.327   3.633  0.3670 -0.1371 -0.2280
    8FTM    C11  105  10.447   7.804   3.590  0.6768 -0.6261 -0.4789
    8FTM    C12  106  10.360   7.768   3.462  0.0566  0.1265 -0.0332
    9FTM     S1  107   9.725   7.216   4.159 -0.2151 -0.1543  0.1923
    9FTM     C1  108   9.546   7.221   4.144 -0.2151 -0.3294  0.1192
    9FTM     C2  109   9.508   7.340   4.090 -0.2980 -0.4364 -0.0594
    9FTM     C3  110   9.613   7.432   4.058 -0.3651 -0.3898 -0.1476
    9FTM     C4  111   9.736   7.381   4.088 -0.3325 -0.2426 -0.0333
    9FTM     F1  112   9.375   7.373   4.067 -0.3178 -0.5827 -0.1529
    9FTM     C5  113   9.465   7.120   4.209  0.2723  0.4149  0.3354
    9FTM     C6  114   9.437   6.984   4.143  0.0958  0.7133  0.1685
    9FTM     C7  115   9.356   6.996   4.012  0.1598  0.8410  0.1503
    9FTM     C8  116   9.225   7.067   4.007  0.2636 -0.2286 -0.3075
    9FTM     C9  117   9.171   7.058   3.869  0.0807  0.2942  0.3847
    9FTM    C10  118   9.033   7.122   3.876 -0.0199 -0.4742  0.0636
    9FTM    C11  119   9.557   6.878   4.135  0.4001 -1.0616 -0.5574
    9FTM    C12  120   9.633   6.866   4.274  0.4500 -0.0842  0.4084
   10TPM     C1  121  10.064   7.475   4.533 -0.1458  0.2606  0.3356
   10TPM     C2  122  10.183   7.496   4.597 -0.2697  0.3470  0.5424
   10TPM     C3  123  10.191   7.433   4.726 -0.3377  0.0997  0.4271
   10TPM     C4  124  10.079   7.364   4.761 -0.2657 -0.1754  0.1325
   10TPM     S1  125   9.953   7.374   4.632 -0.1051 -0.1431 -0.0236
   11BDD     C1  126   9.934   7.266   5.109 -0.0543 -0.1525 -0.0250
   11BDD     C2  127  10.056   7.204   5.103 -0.0139 -0.0716 -0.0354
   11BDD     C3  128  10.127   7.227   4.979 -0.0202  0.0113 -0.0238
   11BDD     C4  129  10.057   7.306   4.891 -0.0653 -0.0072 -0.0051
   11BDD     S1  130   9.899   7.357   4.958 -0.1031 -0.1301 -0.0002
   11BDD     C5  131  10.112   7.122   5.213  0.0321 -0.0679 -0.0561
   11BDD     C6  132  10.260   7.170   4.951  0.0188  0.1062 -0.0321
   11BDD     O1  133  10.321   7.190   4.843  0.0134  0.1777 -0.0222
   11BDD     O2  134  10.052   7.103   5.320  0.0375 -0.1396 -0.0662
   11BDD     C7  135  10.316   7.088   5.060  0.0648  0.1099 -0.0528
   11BDD     C8  136  10.246   7.065   5.185  0.0711  0.0269 -0.0643
   11BDD     C9  137  10.315   6.987   5.273  0.1163  0.0455 -0.0830
   11BDD     S2  138  10.473   6.936   5.205  0.1540  0.1683 -0.0878
   11BDD    C10  139  10.438   7.027   5.055  0.1052  0.1907 -0.0628
   11BDD    C11  140  10.550   7.041   4.957 -0.1418  0.5606  0.0345
   11BDD    C12  141  10.665   7.132   5.005 -0.6906  0.3711  0.5235
   11BDD    C13  142  10.776   7.140   4.894  0.8128  0.6484  0.2542
   11BDD    C14  143  10.737   7.207   4.761  0.0691 -0.2045  0.3630
   11BDD    C15  144  10.840   7.183   4.658 -0.4858 -0.2696 -0.2132
   11BDD    C16  145  10.797   7.232   4.523  0.4975 -0.5180  0.0474
   11BDD    C17  146  10.626   7.272   5.059 -0.4292 -0.1126 -0.6249
   11BDD    C18  147  10.724   7.356   5.141  0.5270 -0.7595  0.4061
   11BDD    C19  148  10.284   6.919   5.402  0.5189  0.0072 -0.4134
   11BDD    C20  149  10.254   6.761   5.405  0.2257 -0.1524  0.1726
   11BDD    C21  150  10.117   6.720   5.340  0.4124 -0.2867 -0.7959
   11BDD    C22  151  10.065   6.574   5.368 -0.0513 -0.4939  0.5939
   11BDD    C23  152   9.918   6.537   5.334 -0.4170 -0.0826  0.7104
   11BDD    C24  153   9.902   6.508   5.184 -0.0335  0.0637  0.0783
   11BDD    C25  154  10.375   6.661   5.396 -0.1988  0.1121  0.2585
   11BDD    C26  155  10.480   6.655   5.503  0.0504 -0.4906 -0.0619
   12TPM     C1  156   9.826   7.276   5.206  0.1348 -0.0498 -0.0339
   12TPM     C2  157   9.697   7.302   5.169  0.1642  0.1099 -0.0275
   12TPM     C3  158   9.608   7.319   5.281  0.1838  0.1862 -0.0232
   12TPM     C4  159   9.668   7.306   5.402  0.1696  0.0846 -0.0262
   12TPM     S1  160   9.845   7.272   5.385  0.1298 -0.1168 -0.0351
   13BDTP    C1  161   9.409   7.329   5.978 -0.2601 -0.0838  0.0602
   13BDTP    C2  162   9.549   7.347   6.003 -0.2646  0.0228  0.0094
   13BDTP    C3  163   9.644   7.348   5.902 -0.3047  0.1205 -0.0278
   13BDTP    C4  164   9.600   7.330   5.770 -0.3424  0.1129 -0.0143
   13BDTP    C5  165   9.461   7.312   5.744 -0.3378  0.0063  0.0365
   13BDTP    C6  166   9.366   7.312   5.845 -0.2974 -0.0913  0.0735
   13BDTP    C7  167   9.679   7.327   5.649 -0.3871  0.2023 -0.0460
   13BDTP    C8  168   9.608   7.308   5.535 -0.4160  0.1688 -0.0221
   13BDTP    S1  169   9.429   7.291   5.566 -0.3910  0.0188  0.0442
   13BDTP    C9  170   9.330   7.332   6.099 -0.2153 -0.1732  0.0919
   13BDTP   C10  171   9.401   7.351   6.212 -0.1862 -0.1396  0.0678
   13BDTP    S2  172   9.580   7.368   6.182 -0.2114  0.0103  0.0015
   14FTM     S1  173   9.887   7.507   5.892  0.1843  0.1304  0.0408
   14FTM     C1  174  10.031   7.428   5.966  0.1191 -0.2648 -0.2512
   14FTM     C2  175   9.998   7.304   6.011 -0.0243 -0.3412 -0.5578
   14FTM     C3  176   9.861   7.265   5.992 -0.0907 -0.1031 -0.5838
   14FTM     C4  177   9.788   7.361   5.930  0.0051  0.1645 -0.2874
   14FTM     F1  178  10.089   7.219   6.073 -0.1040 -0.6316 -0.8333
   14FTM     C5  179  10.162   7.505   5.971  0.0004 -0.4545  0.5491
   14FTM     C6  180  10.188   7.599   6.082  0.5567  0.2917 -0.1805
   14FTM     C7  181  10.114   7.728   6.076  0.7712 -0.7220 -0.5432
   14FTM     C8  182  10.136   7.830   5.966  0.2650  0.5764 -0.1511
   14FTM     C9  183  10.280   7.869   5.941  0.4034 -0.3485  0.1147
   14FTM    C10  184  10.280   7.945   5.809  0.6938 -0.5011 -0.0733
   14FTM    C11  185  10.188   7.527   6.221  0.4941 -0.0344  0.0431
   14FTM    C12  186  10.252   7.596   6.338  0.1092 -0.7828 -0.3636
   15FTM     S1  187   9.156   7.114   5.877 -0.2616  0.1321 -0.1791
   15FTM     C1  188   8.996   7.172   5.818  0.0200  0.6379 -0.4632
   15FTM     C2  189   9.009   7.294   5.760  0.4461  0.7634 -0.1104
   15FTM     C3  190   9.142   7.349   5.758  0.5765  0.4809  0.3901
   15FTM     C4  191   9.233   7.266   5.816  0.2393  0.1273  0.4218
   15FTM     F1  192   8.902   7.364   5.706  0.7429  1.1418 -0.2199
   15FTM     C5  193   8.871   7.085   5.838 -0.3740  0.0836  0.9026
   15FTM     C6  194   8.823   7.049   5.977 -0.3359  0.3130  0.3092
   15FTM     C7  195   8.724   6.931   5.974 -0.3146  0.0647  0.6034
   15FTM     C8  196   8.775   6.807   5.904 -1.3669 -0.1356  0.5486
   15FTM     C9  197   8.691   6.677   5.900 -0.5044  0.2383  0.3448
   15FTM    C10  198   8.653   6.612   6.035 -0.2931 -0.0525  0.3262
   15FTM    C11  199   8.806   7.162   6.083 -0.2603  0.1564 -0.1325
   15FTM    C12  200   8.771   7.125   6.226  0.1471 -0.7407 -0.4612
   16TPM     C1  201   9.350   7.336   6.341  0.3620  0.2261  0.0805
   16TPM     C2  202   9.424   7.305   6.451  0.2282  0.3827  0.2172
   16TPM     C3  203   9.350   7.305   6.574  0.0658  0.5057  0.1189
   16TPM     C4  204   9.218   7.337   6.558  0.0757  0.4430 -0.0929
   16TPM     S1  205   9.178   7.369   6.385  0.2924  0.2219 -0.1854
   17BDD     C1  206   9.077   7.342   6.929  0.0723 -0.0544  0.1701
   17BDD     C2  207   8.979   7.399   6.853  0.0641 -0.0905  0.1538
   17BDD     C3  208   9.013   7.409   6.712  0.1082 -0.0232  0.1690
   17BDD     C4  209   9.137   7.359   6.683  0.1494  0.0633  0.1966
   17BDD     S1  210   9.220   7.297   6.829  0.1357  0.0665  0.2056
   17BDD     C5  211   8.850   7.447   6.907  0.0153 -0.1882  0.1237
   17BDD     C6  212   8.921   7.467   6.612  0.1078 -0.0470  0.1557
   17BDD     O1  213   8.950   7.475   6.491  0.1462  0.0111  0.1688
   17BDD     O2  214   8.821   7.438   7.029 -0.0226 -0.2464  0.1107
   17BDD     C7  215   8.792   7.514   6.666  0.0591 -0.1450  0.1256
   17BDD     C8  216   8.758   7.505   6.807  0.0148 -0.2123  0.1104
   17BDD     C9  217   8.634   7.554   6.837 -0.0267 -0.2989  0.0829
   17BDD     S2  218   8.551   7.616   6.690 -0.0130 -0.3019  0.0739
   17BDD    C10  219   8.693   7.571   6.590  0.0505 -0.1811  0.1094
   17BDD    C11  220   8.672   7.591   6.437  0.3678 -0.3901  0.2913
   17BDD    C12  221   8.658   7.741   6.397  0.2279 -0.1960  0.2418
   17BDD    C13  222   8.794   7.809   6.402  0.0834  0.1758  0.1165
   17BDD    C14  223   8.785   7.959   6.387  0.3981  0.4264  0.3678
   17BDD    C15  224   8.925   8.024   6.376 -0.1811 -0.1510 -0.2445
   17BDD    C16  225   8.908   8.169   6.349 -0.0542  0.0286 -0.0567
   17BDD    C17  226   8.579   7.766   6.266  0.1099 -0.3164 -0.1381
   17BDD    C18  227   8.441   7.698   6.261 -0.9366  0.3603  0.1512
   17BDD    C19  228   8.557   7.564   6.964 -0.3203 -0.3681 -0.1082
   17BDD    C20  229   8.427   7.486   6.977  0.0772  0.3006  0.2252
   17BDD    C21  230   8.424   7.330   6.940 -0.6695 -0.3219  0.1678
   17BDD    C22  231   8.501   7.235   7.029 -0.8901  0.3440 -0.2525
   17BDD    C23  232   8.471   7.094   6.986 -0.0899  0.4609 -0.4598
   17BDD    C24  233   8.547   6.987   7.060  0.1595 -0.1023 -0.2124
   17BDD    C25  234   8.352   7.548   7.096 -0.7762 -0.2477  0.5475
   17BDD    C26  235   8.218   7.490   7.106  0.4425  0.5273 -0.1668
   18TPM     C1  236   9.085   7.307   7.069 -0.4412 -0.3208  0.5009
   18TPM     C2  237   9.076   7.403   7.165 -1.0295 -0.8421  0.9782
   18TPM     C3  238   9.141   7.368   7.288 -0.9189 -1.1022  0.8470
   18TPM     C4  239   9.201   7.245   7.286 -0.2461 -0.7790  0.2697
   18TPM     S1  240   9.179   7.164   7.126  0.3040 -0.1161 -0.1562
   19BDTP    C1  241   9.511   7.009   7.772  0.0646  0.1642 -0.0383
   19BDTP    C2  242   9.388   6.937   7.777  0.0539  0.1775 -0.1144
   19BDTP    C3  243   9.287   6.955   7.684  0.0598  0.2849 -0.1000
   19BDTP    C4  244   9.307   7.049   7.581  0.0775  0.3836 -0.0062
   19BDTP    C5  245   9.430   7.122   7.577  0.0882  0.3701  0.0700
   19BDTP    C6  246   9.531   7.103   7.670  0.0824  0.2629  0.0557
   19BDTP    C7  247   9.217   7.086   7.474  0.0862  0.5034  0.0262
   19BDTP    C8  248   9.265   7.180   7.390  0.1035  0.5796  0.1218
   19BDTP    S1  249   9.432   7.237   7.435  0.1104  0.5103  0.1842
   19BDTP    C9  250   9.602   6.973   7.879  0.0556  0.0443 -0.0708
   19BDTP   C10  251   9.553   6.878   7.963  0.0386 -0.0319 -0.1663
   19BDTP    S2  252   9.386   6.821   7.918  0.0318  0.0375 -0.2286
   20FTM     S1  253   9.054   6.819   7.576  0.3522 -0.0064 -0.0238
   20FTM     C1  254   8.920   6.789   7.693 -0.0264  0.0993 -0.4250
   20FTM     C2  255   8.956   6.832   7.817 -0.2460 -0.2019 -0.2528
   20FTM     C3  256   9.087   6.890   7.828 -0.1361 -0.5257  0.1910
   20FTM     C4  257   9.153   6.891   7.709  0.1781 -0.4705  0.3643
   20FTM     F1  258   8.873   6.822   7.927 -0.5596 -0.2027 -0.4870
   20FTM     C5  259   8.784   6.730   7.661  0.7006  0.4694 -0.1102
   20FTM     C6  260   8.750   6.694   7.520 -0.3107  0.5417  0.1463
   20FTM     C7  261   8.603   6.676   7.485  0.4960 -0.3780  0.7218
   20FTM     C8  262   8.509   6.790   7.520  0.2713 -0.4924 -0.3981
   20FTM     C9  263   8.364   6.768   7.489  0.4310 -0.0100  0.1822
   20FTM    C10  264   8.274   6.883   7.529  0.6143 -0.0287 -0.3164
   20FTM    C11  265   8.843   6.586   7.464 -0.3284  0.1577  0.3362
   20FTM    C12  266   8.839   6.593   7.310 -0.6108  0.8005 -0.1668
   21FTM     S1  267   9.638   7.367   7.638  0.1098  0.1817  0.0524
   21FTM     C1  268   9.815   7.389   7.661  0.1760 -0.0126 -0.2538
   21FTM     C2  269   9.873   7.269   7.689  0.1232 -0.1066 -0.5407
   21FTM     C3  270   9.786   7.156   7.694  0.0304 -0.0349 -0.5398
   21FTM     C4  271   9.656   7.190   7.669  0.0115  0.1189 -0.2426
   21FTM     F1  272  10.009   7.255   7.712  0.1558 -0.2630 -0.8209
   21FTM     C5  273   9.862   7.527   7.669 -0.1973  0.1991 -0.2207
   21FTM     C6  274   9.904   7.592   7.534 -0.4870 -0.0643 -1.0000
   21FTM     C7  275  10.015   7.531   7.447 -0.5667 -0.3244  0.5059
   21FTM     C8  276  10.148   7.503   7.516 -1.1313 -0.6365 -0.4502
   21FTM     C9  277  10.260   7.418   7.449 -0.0276  0.1747  0.4161
   21FTM    C10  278  10.229   7.268   7.421 -0.0959  1.0033  0.0686
   21FTM    C11  279   9.781   7.651   7.462  0.4486  0.0944 -0.4258
   21FTM    C12  280   9.797   7.734   7.332  0.3673  0.2171  0.1279
   22TPM     C1  281   9.627   6.840   8.081  0.0578  0.3097  0.1133
   22TPM     C2  282   9.629   6.716   8.138  0.2278  0.2619  0.0026
   22TPM     C3  283   9.726   6.703   8.243  0.2802  0.2868 -0.0424
   22TPM     C4  284   9.798   6.816   8.266  0.1501  0.3537  0.0337
   22TPM     S1  285   9.748   6.950   8.157 -0.0503  0.3906  0.1693
   23BDD     C1  286  10.172   6.860   8.381 -0.0104 -0.0106  0.0539
   23BDD     C2  287  10.111   6.793   8.483 -0.0651 -0.0137  0.0193
   23BDD     C3  288   9.969   6.768   8.460 -0.0935  0.1445  0.0217
   23BDD     C4  289   9.925   6.817   8.340 -0.0602  0.2663  0.0581
   23BDD     S1  290  10.058   6.897   8.248  0.0092  0.1911  0.0923
   23BDD     C5  291  10.179   6.749   8.607 -0.0932 -0.1624 -0.0176
   23BDD     C6  292   9.883   6.698   8.557 -0.1528  0.1693 -0.0129
   23BDD     O1  293   9.762   6.676   8.536 -0.1774  0.3058 -0.0110
   23BDD     O2  294  10.301   6.771   8.627 -0.0686 -0.2989 -0.0196
   23BDD     C7  295   9.952   6.654   8.680 -0.1809  0.0206 -0.0498
   23BDD     C8  296  10.093   6.678   8.704 -0.1525 -0.1376 -0.0522
   23BDD     C9  297  10.137   6.630   8.824 -0.1859 -0.2592 -0.0889
   23BDD     S2  298  10.005   6.550   8.915 -0.2552 -0.1841 -0.1229
   23BDD    C10  299   9.891   6.587   8.782 -0.2356  0.0174 -0.0849
   23BDD    C11  300   9.740   6.542   8.791 -0.1095  0.5199 -0.0511
   23BDD    C12  301   9.715   6.387   8.778 -0.3524 -1.1483 -0.0027
   23BDD    C13  302   9.769   6.326   8.647  0.9804 -0.9657  0.1120
   23BDD    C14  303   9.765   6.169   8.623 -0.3306 -0.3468 -0.2193
   23BDD    C15  304   9.628   6.109   8.645 -0.4467  0.3624 -0.0775
   23BDD    C16  305   9.641   5.959   8.658 -0.0267 -0.3582  0.2290
   23BDD    C17  306   9.777   6.301   8.896 -0.1993  0.4070 -0.1559
   23BDD    C18  307   9.722   6.320   9.035  0.4140 -0.1740  0.6117
   23BDD    C19  308  10.280   6.594   8.874  0.1441 -0.4321  0.1003
   23BDD    C20  309  10.330   6.683   8.991 -0.0212 -0.7687 -0.2358
   23BDD    C21  310  10.256   6.679   9.129  0.2872  0.5222  0.6075
   23BDD    C22  311  10.263   6.545   9.200 -0.3174 -0.4908  0.0608
   23BDD    C23  312  10.154   6.533   9.302  0.4008 -0.3764 -0.5661
   23BDD    C24  313  10.129   6.392   9.340 -0.0227  0.2585  0.2439
   23BDD    C25  314  10.485   6.670   8.988  0.2043  0.3711 -0.2450
   23BDD    C26  315  10.567   6.787   9.039  0.4722 -0.1247 -0.0506
   24TPM     C1  316  10.311   6.904   8.348  0.2151  0.5320  0.1599
   24TPM     C2  317  10.387   6.980   8.432  0.3337  0.6022 -0.0100
   24TPM     C3  318  10.497   7.046   8.367  0.3272  0.4334 -0.1934
   24TPM     C4  319  10.505   7.020   8.233  0.2035  0.2346 -0.1633
   24TPM     S1  320  10.373   6.910   8.179  0.0849  0.2451  0.1009
   25BDTP    C1  321  10.935   7.239   7.829  0.2169 -0.3357  0.0974
   25BDTP    C2  322  10.860   7.147   7.750  0.0365 -0.1491  0.0482
   25BDTP    C3  323  10.753   7.074   7.800 -0.0456 -0.0383  0.0349
   25BDTP    C4  324  10.718   7.093   7.935  0.0547 -0.1148  0.0722
   25BDTP    C5  325  10.792   7.185   8.014  0.2351 -0.3017  0.1216
   25BDTP    C6  326  10.899   7.258   7.964  0.3172 -0.4125  0.1348
   25BDTP    C7  327  10.611   7.028   8.009 -0.0015 -0.0272  0.0674
   25BDTP    C8  328  10.602   7.067   8.138  0.1263 -0.1376  0.1104
   25BDTP    S1  329  10.727   7.191   8.184  0.3358 -0.3684  0.1628
   25BDTP    C9  330  11.041   7.303   7.755  0.2731 -0.4236  0.1022
   25BDTP   C10  331  11.051   7.264   7.625  0.1453 -0.3130  0.0594
   25BDTP    S2  332  10.925   7.140   7.579 -0.0643 -0.0824  0.0068
   26FTM     S1  333  10.496   7.020   7.689 -0.0409 -0.2200 -0.0030
   26FTM     C1  334  10.484   6.888   7.567  0.2863  0.0299 -0.3090
   26FTM     C2  335  10.606   6.832   7.547  0.4029  0.2934 -0.3481
   26FTM     C3  336  10.714   6.887   7.624  0.2486  0.3166 -0.1472
   26FTM     C4  337  10.673   6.988   7.705  0.0060  0.0625  0.0520
   26FTM     F1  338  10.628   6.728   7.459  0.6562  0.5294 -0.5678
   26FTM     C5  339  10.353   6.866   7.489  0.8698  0.6819  0.7636
   26FTM     C6  340  10.231   6.783   7.537  0.0408  0.5250  0.2928
   26FTM     C7  341  10.109   6.789   7.441 -0.1029  0.3351 -0.6452
   26FTM     C8  342  10.034   6.927   7.444  0.7498  0.1136  0.1806
   26FTM     C9  343   9.935   6.950   7.330  1.0708  0.1871  0.9190
   26FTM    C10  344   9.874   7.090   7.331 -0.1930 -0.6764 -0.5987
   26FTM    C11  345  10.258   6.634   7.593 -0.0955  0.3964  0.2298
   26FTM    C12  346  10.321   6.540   7.486 -0.0693  0.1550  0.1710
   27FTM     S1  347  10.847   7.508   8.093 -0.1069 -0.3691 -0.0987
   27FTM     C1  348  10.982   7.575   8.193 -0.1194  0.2390 -0.4781
   27FTM     C2  349  11.091   7.495   8.183  0.1444  0.6081 -0.6027
   27FTM     C3  350  11.077   7.379   8.099  0.3670  0.4444 -0.4156
   27FTM     C4  351  10.954   7.371   8.043  0.2704 -0.0668 -0.1379
   27FTM     F1  352  11.210   7.521   8.249  0.2000  1.1158 -0.8943
   27FTM     C5  353  10.966   7.695   8.278 -0.4205 -0.0788  0.2758
   27FTM     C6  354  10.866   7.719   8.388 -0.2736  0.4228 -0.2538
   27FTM     C7  355  10.846   7.616   8.500  0.3963  0.3501 -1.0096
   27FTM     C8  356  10.752   7.496   8.480 -0.1544 -0.4634  0.1216
   27FTM     C9  357  10.607   7.524   8.459 -0.4398 -0.8024  0.4534
   27FTM    C10  358  10.530   7.393   8.448 -0.1425 -0.4457  0.4136
   27FTM    C11  359  10.848   7.879   8.425 -0.3059  0.3962  0.0826
   27FTM    C12  360  10.763   7.910   8.546 -0.0758 -0.5540 -0.1586
   28TPM     C1  361  11.133   7.308   7.519  0.4497  0.0888  0.0675
   28TPM     C2  362  11.163   7.436   7.481  0.6613  0.0304  0.0352
   28TPM     C3  363  11.238   7.445   7.358  0.7716 -0.1290  0.0898
   28TPM     C4  364  11.264   7.324   7.302  0.6441 -0.1921  0.1640
   28TPM     S1  365  11.197   7.188   7.400  0.3727 -0.0541  0.1705
   29BDD     C1  366  11.500   7.389   6.994  0.1710 -0.1283  0.1540
   29BDD     C2  367  11.445   7.266   6.971  0.0657 -0.0619  0.0472
   29BDD     C3  368  11.351   7.225   7.073 -0.0652 -0.0166 -0.0539
   29BDD     C4  369  11.336   7.317   7.173 -0.0580 -0.0490 -0.0229
   29BDD     S1  370  11.438   7.462   7.146  0.1134 -0.1385  0.1352
   29BDD     C5  371  11.478   7.182   6.854  0.0818 -0.0377  0.0345
   29BDD     C6  372  11.281   7.095   7.069 -0.1929  0.0575 -0.1776
   29BDD     O1  373  11.200   7.059   7.157 -0.3058  0.0966 -0.2649
   29BDD     O2  374  11.559   7.218   6.765  0.1947 -0.0768  0.1216
   29BDD     C7  375  11.313   7.011   6.951 -0.1768  0.0815 -0.1905
   29BDD     C8  376  11.407   7.053   6.849 -0.0459  0.0362 -0.0895
   29BDD     C9  377  11.422   6.961   6.749 -0.0531  0.0687 -0.1206
   29BDD     S2  378  11.321   6.816   6.776 -0.2244  0.1582 -0.2786
   29BDD    C10  379  11.258   6.888   6.928 -0.2821  0.1479 -0.2974
   29BDD    C11  380  11.145   6.808   6.992  0.2729  0.1387  0.1876
   29BDD    C12  381  11.007   6.882   7.025 -0.5578  0.0431 -0.1747
   29BDD    C13  382  10.913   6.800   7.113  0.7997 -0.1895  0.3547
   29BDD    C14  383  10.952   6.727   7.241  0.0401 -0.0327  0.6589
   29BDD    C15  384  11.008   6.822   7.348  0.3172 -0.3026  0.4566
   29BDD    C16  385  11.016   6.758   7.486  0.0529 -0.0234  0.2950
   29BDD    C17  386  10.947   6.952   6.896  0.4874  0.4241 -0.5816
   29BDD    C18  387  10.839   7.071   6.912  0.0194  0.3106 -0.9229
   29BDD    C19  388  11.514   6.949   6.625  0.3276 -1.1241 -1.1045
   29BDD    C20  389  11.466   6.894   6.492  0.4998  1.0806 -0.2786
   29BDD    C21  390  11.514   6.758   6.450  0.3557  0.4147 -0.6837
   29BDD    C22  391  11.456   6.630   6.523 -0.2442 -0.7286  0.0294
   29BDD    C23  392  11.508   6.506   6.465 -0.2360  0.2813 -0.5426
   29BDD    C24  393  11.469   6.381   6.548 -0.5804  0.2797 -0.7313
   29BDD    C25  394  11.328   6.930   6.436 -0.7247  0.7343 -0.3664
   29BDD    C26  395  11.291   7.075   6.420 -0.0694  0.3524  0.3306
   30TPM     C1  396  11.601   7.479   6.930 -0.1272  0.0522  0.1658
   30TPM     C2  397  11.686   7.556   7.005 -0.3005  0.2488  0.1618
   30TPM     C3  398  11.779   7.633   6.926 -0.2822  0.2310  0.1662
   30TPM     C4  399  11.765   7.615   6.792 -0.0948  0.0211  0.1736
   30TPM     S1  400  11.633   7.499   6.753  0.0743 -0.1723  0.1757
   31BDTP    C1  401  11.990   7.945   6.300  0.1078 -0.1717 -0.1446
   31BDTP    C2  402  11.993   7.811   6.250  0.1457 -0.1726 -0.1403
   31BDTP    C3  403  11.956   7.701   6.325  0.1882 -0.1819 -0.1330
   31BDTP    C4  404  11.913   7.723   6.458  0.1938 -0.1912 -0.1296
   31BDTP    C5  405  11.910   7.857   6.509  0.1560 -0.1904 -0.1339
   31BDTP    C6  406  11.948   7.967   6.433  0.1134 -0.1809 -0.1411
   31BDTP    C7  407  11.869   7.625   6.555  0.2346 -0.2020 -0.1221
   31BDTP    C8  408  11.834   7.678   6.675  0.2294 -0.2091 -0.1205
   31BDTP    S1  409  11.852   7.859   6.681  0.1718 -0.2031 -0.1283
   31BDTP    C9  410  12.034   8.043   6.203  0.0669 -0.1612 -0.1521
   31BDTP   C10  411  12.069   7.990   6.083  0.0722 -0.1539 -0.1537
   31BDTP    S2  412  12.052   7.809   6.077  0.1296 -0.1596 -0.1458
   32FTM     S1  413  11.825   7.448   6.276 -0.2385  0.0707  0.0068
   32FTM     C1  414  11.927   7.325   6.194  0.1671  0.2576  0.2246
   32FTM     C2  415  12.050   7.376   6.168  0.1237  0.4907  0.4734
   32FTM     C3  416  12.072   7.511   6.210 -0.2192  0.5372  0.5093
   32FTM     C4  417  11.962   7.565   6.269 -0.4459  0.3330  0.2802
   32FTM     F1  418  12.150   7.303   6.106  0.3921  0.6759  0.6839
   32FTM     C5  419  11.880   7.189   6.153  0.1359  0.2394  0.2659
   32FTM     C6  420  11.945   7.067   6.214 -0.7361  0.0238 -0.4378
   32FTM     C7  421  12.069   7.018   6.133  0.0292 -0.1739  0.9637
   32FTM     C8  422  12.038   6.953   5.992 -1.0258 -0.6491  0.5794
   32FTM     C9  423  11.931   6.851   5.980 -0.0047  0.1761 -0.1433
   32FTM    C10  424  11.927   6.779   5.844 -0.4035 -0.8551 -0.5472
   32FTM    C11  425  11.974   7.062   6.367 -0.0834 -0.7601  0.2808
   32FTM    C12  426  11.864   7.106   6.457 -0.2848  0.0430  0.1130
   33FTM     S1  427  12.080   8.218   6.467 -0.2114 -0.4741  0.3026
   33FTM     C1  428  11.990   8.343   6.560  0.0241  0.1521 -0.2959
   33FTM     C2  429  11.870   8.293   6.600 -0.2844  0.7393 -0.4746
   33FTM     C3  430  11.841   8.158   6.562 -0.7126  0.7384 -0.1647
   33FTM     C4  431  11.942   8.103   6.490 -0.7325  0.1303  0.2656
   33FTM     F1  432  11.778   8.368   6.674 -0.1977  1.3127 -0.9297
   33FTM     C5  433  12.056   8.478   6.591 -0.3800 -0.0818  0.9169
   33FTM     C6  434  12.142   8.541   6.479 -0.4265  1.1690  0.0931
   33FTM     C7  435  12.220   8.660   6.534  0.4236  0.3065  0.1811
   33FTM     C8  436  12.145   8.776   6.597 -0.3574 -0.4764  0.8176
   33FTM     C9  437  12.231   8.901   6.628 -0.0989  0.0369 -0.0698
   33FTM    C10  438  12.146   8.993   6.715  0.0781  0.0852  0.5278
   33FTM    C11  439  12.089   8.556   6.337  0.2355  0.0374 -0.6071
   33FTM    C12  440  12.168   8.598   6.213 -0.1109  0.9339  0.2041
   34TPM     C1  441  12.133   8.056   5.972 -0.0965  0.1500 -0.0526
   34TPM     C2  442  12.169   7.992   5.858 -0.1919  0.1444 -0.0799
   34TPM     C3  443  12.236   8.076   5.762 -0.0387  0.0794 -0.0310
   34TPM     C4  444  12.250   8.205   5.803  0.1737  0.0353  0.0335
   34TPM     S1  445  12.180   8.230   5.968  0.1968  0.0729  0.0377
   35BDD     C1  446  12.529   8.459   5.692 -0.0786 -0.0047  0.0861
   35BDD     C2  447  12.449   8.438   5.583 -0.0156 -0.0248  0.0441
   35BDD     C3  448  12.344   8.341   5.606  0.0789 -0.1516 -0.0519
   35BDD     C4  449  12.344   8.290   5.733  0.0866 -0.2272 -0.0818
   35BDD     S1  450  12.477   8.360   5.832 -0.0238 -0.1438  0.0082
   35BDD     C5  451  12.468   8.505   5.452 -0.0401  0.0727  0.0908
   35BDD     C6  452  12.246   8.302   5.502  0.1580 -0.1938 -0.1103
   35BDD     O1  453  12.155   8.218   5.523  0.2394 -0.3035 -0.1930
   35BDD     O2  454  12.559   8.588   5.432 -0.1215  0.1822  0.1734
   35BDD     C7  455  12.265   8.369   5.372  0.1337 -0.0970 -0.0637
   35BDD     C8  456  12.370   8.466   5.348  0.0392  0.0300  0.0323
   35BDD     C9  457  12.370   8.517   5.221  0.0315  0.1054  0.0622
   35BDD     S2  458  12.237   8.447   5.123  0.1419  0.0221 -0.0277
   35BDD    C10  459  12.185   8.347   5.263  0.1966 -0.1168 -0.1054
   35BDD    C11  460  12.063   8.267   5.240  0.3906  0.0540 -0.4252
   35BDD    C12  461  11.931   8.332   5.299  0.2187 -0.3046  0.3255
   35BDD    C13  462  11.894   8.480   5.282  0.2852 -0.6847  0.5084
   35BDD    C14  463  11.896   8.531   5.137 -0.3372  0.2434  0.3860
   35BDD    C15  464  11.908   8.679   5.123  0.3866 -0.8696 -0.4500
   35BDD    C16  465  11.786   8.770   5.178 -0.2768  0.1281  0.0519
   35BDD    C17  466  11.815   8.241   5.261  0.0895  0.0801 -0.1600
   35BDD    C18  467  11.685   8.247   5.341  0.8809 -0.0852  0.0630
   35BDD    C19  468  12.448   8.620   5.149 -0.4619  0.0127  0.7303
   35BDD    C20  469  12.374   8.740   5.092  0.0690 -0.0293 -0.3984
   35BDD    C21  470  12.464   8.807   4.986  0.1107 -0.5833 -0.6138
   35BDD    C22  471  12.430   8.951   4.933  0.4967 -0.0574 -0.2715
   35BDD    C23  472  12.532   8.992   4.821  1.2026 -1.3845  0.1271
   35BDD    C24  473  12.500   9.136   4.769 -0.5668  0.0400  0.0520
   35BDD    C25  474  12.299   8.818   5.200 -0.3943 -0.6357  0.4303
   35BDD    C26  475  12.385   8.891   5.305  0.3216  0.0367 -0.4950
   36TPM     C1  476  12.652   8.541   5.723  0.1539 -0.1330  0.0806
   36TPM     C2  477  12.737   8.500   5.821  0.2165 -0.1187  0.0329
   36TPM     C3  478  12.841   8.594   5.852  0.2542 -0.1278 -0.0681
   36TPM     C4  479  12.836   8.708   5.777  0.2204 -0.1488 -0.0973
   36TPM     S1  480  12.698   8.704   5.660  0.1377 -0.1588  0.0012
   37BDTP    C1  481  13.276   9.160   5.820  0.0297  0.1256 -0.0286
   37BDTP    C2  482  13.190   9.211   5.718  0.1679  0.1111 -0.1539
   37BDTP    C3  483  13.077   9.143   5.675  0.1761  0.1483 -0.2333
   37BDTP    C4  484  13.047   9.019   5.734  0.0419  0.2024 -0.1874
   37BDTP    C5  485  13.133   8.968   5.835 -0.0963  0.2167 -0.0623
   37BDTP    C6  486  13.246   9.036   5.879 -0.1045  0.1794  0.0170
   37BDTP    C7  487  12.936   8.931   5.705  0.0226  0.2479 -0.2522
   37BDTP    C8  488  12.934   8.817   5.779 -0.1216  0.2947 -0.1829
   37BDTP    S1  489  13.073   8.806   5.896 -0.2531  0.2882 -0.0256
   37BDTP    C9  490  13.388   9.248   5.849  0.0491  0.0801  0.0360
   37BDTP   C10  491  13.389   9.361   5.774  0.1932  0.0331 -0.0334
   37BDTP    S2  492  13.250   9.372   5.658  0.3248  0.0396 -0.1905
   38FTM     S1  493  12.969   9.086   5.417 -0.0914 -0.2433 -0.0499
   38FTM     C1  494  12.878   9.219   5.338  0.2946  0.1936  0.2296
   38FTM     C2  495  12.879   9.329   5.418  0.5403 -0.0041  0.5043
   38FTM     C3  496  12.950   9.317   5.542  0.4460 -0.4954  0.5140
   38FTM     C4  497  13.005   9.193   5.558  0.1170 -0.6803  0.2378
   38FTM     F1  498  12.816   9.448   5.383  0.8656  0.2482  0.7634
   38FTM     C5  499  12.799   9.202   5.207 -0.0444  0.1162 -0.2932
   38FTM     C6  500  12.840   9.102   5.102 -0.2116 -0.0654  0.0566
   38FTM     C7  501  12.983   9.137   5.033  0.0498  0.9609 -0.5169
   38FTM     C8  502  12.996   9.255   4.945 -0.0508 -0.4208 -0.0022
   38FTM     C9  503  13.137   9.306   4.910 -0.6856  0.1961 -0.3636
   38FTM    C10  504  13.130   9.435   4.829  0.6270  0.8806  0.0999
   38FTM    C11  505  12.818   8.953   5.131 -0.7910  0.2653 -0.0143
   38FTM    C12  506  12.837   8.859   5.014 -0.2450 -0.5021  0.2250
   39FTM     S1  507  13.357   9.087   6.135 -0.1159 -0.2674 -0.0375
   39FTM     C1  508  13.476   8.966   6.196 -0.1761 -0.3189 -0.0219
   39FTM     C2  509  13.486   8.863   6.107 -0.0664 -0.2294 -0.1134
   39FTM     C3  510  13.404   8.872   5.990  0.0679 -0.1180 -0.1990
   39FTM     C4  511  13.329   8.985   5.988  0.0607 -0.1226 -0.1723
   39FTM     F1  512  13.571   8.755   6.127 -0.0811 -0.2429 -0.1247
   39FTM     C5  513  13.557   8.990   6.322 -0.1354  0.1170 -0.5723
   39FTM     C6  514  13.712   8.999   6.313 -0.2687 -0.0191 -0.1561
   39FTM     C7  515  13.771   9.104   6.217  0.0544 -0.4379 -0.8197
   39FTM     C8  516  13.743   9.251   6.246 -0.2563 -0.8260  0.4663
   39FTM     C9  517  13.812   9.343   6.157 -0.6443 -0.2276 -0.2418
   39FTM    C10  518  13.800   9.491   6.186 -0.5147 -0.1490 -0.6158
   39FTM    C11  519  13.790   9.001   6.448 -0.3018 -0.7187  0.4408
   39FTM    C12  520  13.765   8.895   6.548 -0.2787  0.7312 -0.5001
   40TPM     C1  521  13.485   9.469   5.775  0.2436 -0.5146 -0.1283
   40TPM     C2  522  13.563   9.507   5.880  0.3375 -0.7699 -0.1045
   40TPM     C3  523  13.655   9.613   5.849  0.1814 -0.5662  0.1175
   40TPM     C4  524  13.648   9.656   5.719 -0.0314 -0.1555  0.2632
   40TPM     S1  525  13.522   9.565   5.627 -0.0515  0.0063  0.1302
   41BDD     C1  526  13.735   9.991   5.523 -0.1260 -0.0424  0.1675
   41BDD     C2  527  13.851   9.956   5.587 -0.0725 -0.1021  0.0385
   41BDD     C3  528  13.838   9.834   5.666  0.0021 -0.1934 -0.0904
   41BDD     C4  529  13.714   9.779   5.660  0.0046 -0.2019 -0.0576
   41BDD     S1  530  13.603   9.875   5.557 -0.0865 -0.0963  0.1367
   41BDD     C5  531  13.977  10.033   5.578 -0.0881 -0.0776  0.0290
   41BDD     C6  532  13.951   9.778   5.743  0.0684 -0.2688 -0.2412
   41BDD     O1  533  13.940   9.673   5.811  0.1327 -0.3475 -0.3521
   41BDD     O2  534  13.987  10.137   5.511 -0.1526  0.0011  0.1401
   41BDD     C7  535  14.077   9.854   5.734  0.0527 -0.2442 -0.2507
   41BDD     C8  536  14.089   9.976   5.656 -0.0219 -0.1530 -0.1218
   41BDD     C9  537  14.214  10.032   5.661 -0.0243 -0.1445 -0.1545
   41BDD     S2  538  14.325   9.936   5.764  0.0666 -0.2501 -0.3487
   41BDD    C10  539  14.193   9.819   5.798  0.1062 -0.3039 -0.3797
   41BDD    C11  540  14.228   9.699   5.891  0.3244  0.4452  0.2216
   41BDD    C12  541  14.197   9.716   6.043  0.9551  0.5594 -0.3500
   41BDD    C13  542  14.252   9.839   6.117  0.0075  0.4088  0.8275
   41BDD    C14  543  14.398   9.857   6.116 -0.0882  0.4320 -0.5095
   41BDD    C15  544  14.436   9.984   6.186 -0.8833  0.6194  0.0506
   41BDD    C16  545  14.582  10.018   6.176 -0.7171  0.0949 -0.2005
   41BDD    C17  546  14.232   9.584   6.112  0.4585 -0.0140 -0.7976
   41BDD    C18  547  14.162   9.548   6.243 -0.5397  0.0617  0.0847
   41BDD    C19  548  14.267  10.157   5.600 -0.7032 -0.1298 -0.4121
   41BDD    C20  549  14.257  10.286   5.685 -0.2292  0.2184 -1.0514
   41BDD    C21  550  14.283  10.425   5.625 -0.3482 -0.1449  0.5180
   41BDD    C22  551  14.217  10.473   5.497 -0.3127 -0.1758 -0.1336
   41BDD    C23  552  14.064  10.492   5.507  0.5105 -0.0680  0.3340
   41BDD    C24  553  14.010  10.519   5.369 -0.2467  0.0498  0.6910
   41BDD    C25  554  14.325  10.270   5.826  0.1164 -0.0614  1.4305
   41BDD    C26  555  14.286  10.347   5.945  0.6875 -0.4029  0.2863
   42TPM     C1  556  13.691  10.098   5.436 -0.0358 -0.2558 -0.0247
   42TPM     C2  557  13.739  10.226   5.438  0.3189 -0.3867  0.0886
   42TPM     C3  558  13.667  10.316   5.351  0.5535 -0.1053  0.1829
   42TPM     C4  559  13.565  10.256   5.283  0.3777  0.2402  0.1417
   42TPM     S1  560  13.551  10.081   5.323 -0.1016  0.2368 -0.0209
   43BDTP    C1  561  13.189  10.523   4.858 -0.1023  0.0967  0.1262
   43BDTP    C2  562  13.121  10.402   4.890 -0.0339  0.0359  0.0454
   43BDTP    C3  563  13.170  10.311   4.982  0.0169  0.0036 -0.0142
   43BDTP    C4  564  13.293  10.340   5.045 -0.0003  0.0325  0.0066
   43BDTP    C5  565  13.361  10.460   5.012 -0.0688  0.0933  0.0873
   43BDTP    C6  566  13.311  10.552   4.920 -0.1197  0.1256  0.1470
   43BDTP    C7  567  13.364  10.260   5.143  0.0436  0.0083 -0.0448
   43BDTP    C8  568  13.481  10.315   5.185  0.0118  0.0474 -0.0070
   43BDTP    S1  569  13.517  10.475   5.106 -0.0783  0.1205  0.0989
   43BDTP    C9  570  13.118  10.603   4.759 -0.1463  0.1209  0.1776
   43BDTP   C10  571  13.001  10.548   4.718 -0.1146  0.0818  0.1398
   43BDTP    S2  572  12.965  10.388   4.797 -0.0245  0.0087  0.0339
   44FTM     S1  573  13.136  10.035   5.056 -0.0432 -0.0116  0.1116
   44FTM     C1  574  12.982   9.994   5.139  0.2190 -0.2321  0.4954
   44FTM     C2  575  12.901  10.103   5.146  0.1640 -0.2921  0.8862
   44FTM     C3  576  12.954  10.223   5.088 -0.0795 -0.1731  0.9103
   44FTM     C4  577  13.078  10.205   5.035 -0.2154 -0.0169  0.5256
   44FTM     F1  578  12.776  10.101   5.204  0.3310 -0.4583  1.2449
   44FTM     C5  579  12.963   9.856   5.200 -0.2723 -0.0957  0.2781
   44FTM     C6  580  13.031   9.815   5.338  0.0526 -0.9183  0.1534
   44FTM     C7  581  13.181   9.812   5.345 -0.2219 -0.1568 -0.0635
   44FTM     C8  582  13.244   9.690   5.272 -0.1343  0.1315  0.0671
   44FTM     C9  583  13.215   9.548   5.313  0.9629  0.0347 -0.1477
   44FTM    C10  584  13.264   9.442   5.224 -0.0527 -0.2618 -0.0035
   44FTM    C11  585  12.993   9.889   5.462  0.3785  0.3752 -0.5859
   44FTM    C12  586  12.844   9.873   5.501  0.3320 -0.3490 -0.1864
   45FTM     S1  587  13.441  10.742   4.753 -0.0708 -0.2168  0.2854
   45FTM     C1  588  13.490  10.894   4.836  0.0709 -0.3915  0.5270
   45FTM     C2  589  13.454  10.890   4.967  0.1562 -0.6060  0.5436
   45FTM     C3  590  13.388  10.770   5.010  0.1175 -0.6467  0.3737
   45FTM     C4  591  13.372  10.680   4.909 -0.0012 -0.4571  0.2221
   45FTM     F1  592  13.479  10.994   5.055  0.2743 -0.7783  0.7137
   45FTM     C5  593  13.549  11.008   4.752 -0.4330 -0.1763 -0.4485
   45FTM     C6  594  13.580  11.156   4.804  0.8169  0.6532  0.5649
   45FTM     C7  595  13.675  11.177   4.914 -0.4002  0.0129 -0.3118
   45FTM     C8  596  13.816  11.115   4.902 -0.1828  1.2896  0.4442
   45FTM     C9  597  13.903  11.157   5.018 -0.2040 -0.3915  0.6930
   45FTM    C10  598  13.965  11.295   5.008 -0.0032 -0.4129  0.0344
   45FTM    C11  599  13.460  11.238   4.822  0.0259 -0.6865 -0.5659
   45FTM    C12  600  13.479  11.392   4.828  0.0443  0.0402  0.4661
   46TPM     C1  601  12.905  10.601   4.633  0.1247 -0.1001 -0.4505
   46TPM     C2  602  12.779  10.552   4.615  0.0487  0.0491 -0.3304
   46TPM     C3  603  12.701  10.626   4.519 -0.0476  0.3018 -0.0607
   46TPM     C4  604  12.768  10.731   4.464 -0.0451  0.3453  0.0252
   46TPM     S1  605  12.935  10.746   4.529  0.0802  0.0683 -0.2301
   47BDD     C1  606  12.508  10.862   4.200  0.0141  0.0809  0.0327
   47BDD     C2  607  12.617  10.943   4.183  0.0493  0.0236 -0.0143
   47BDD     C3  608  12.727  10.911   4.271  0.0534 -0.0046 -0.0298
   47BDD     C4  609  12.701  10.806   4.355  0.0213  0.0315  0.0055
   47BDD     S1  610  12.536  10.740   4.328 -0.0164  0.1033  0.0607
   47BDD     C5  611  12.624  11.053   4.084  0.0806 -0.0072 -0.0466
   47BDD     C6  612  12.855  10.985   4.270  0.0891 -0.0665 -0.0792
   47BDD     O1  613  12.950  10.957   4.346  0.0926 -0.0908 -0.0924
   47BDD     O2  614  12.528  11.081   4.008  0.0770  0.0172 -0.0334
   47BDD     C7  615  12.862  11.095   4.171  0.1202 -0.0973 -0.1113
   47BDD     C8  616  12.751  11.128   4.083  0.1162 -0.0691 -0.0960
   47BDD     C9  617  12.778  11.233   3.999  0.1483 -0.1052 -0.1314
   47BDD     S2  618  12.942  11.298   4.026  0.1859 -0.1770 -0.1863
   47BDD    C10  619  12.970  11.176   4.154  0.1554 -0.1546 -0.1584
   47BDD    C11  620  13.110  11.178   4.217 -0.9799  0.1838 -0.2229
   47BDD    C12  621  13.231  11.123   4.136  0.1373 -0.2663  0.4015
   47BDD    C13  622  13.211  10.986   4.085  0.1579  0.0518  0.5788
   47BDD    C14  623  13.212  10.862   4.171  0.3435  0.1784 -0.8090
   47BDD    C15  624  13.132  10.764   4.092  0.6618 -0.4629  0.1650
   47BDD    C16  625  13.146  10.627   4.155  0.1914 -0.5094 -0.0465
   47BDD    C17  626  13.369  11.167   4.185  0.0340  0.5326  0.0823
   47BDD    C18  627  13.491  11.151   4.093 -0.4376  0.5025  0.0560
   47BDD    C19  628  12.697  11.307   3.897  0.1377  0.2889 -0.6667
   47BDD    C20  629  12.681  11.460   3.913 -0.1462  0.1264  0.4459
   47BDD    C21  630  12.633  11.525   3.778 -0.1114 -0.2922  0.4095
   47BDD    C22  631  12.653  11.673   3.769 -0.3884  0.5798  0.0049
   47BDD    C23  632  12.581  11.722   3.650  0.0377 -0.0803  0.4326
   47BDD    C24  633  12.554  11.866   3.629 -0.0711  0.0135 -0.1199
   47BDD    C25  634  12.616  11.518   4.036  0.0853 -0.0757  0.2824
   47BDD    C26  635  12.479  11.463   4.085 -0.8309 -0.4337  0.3212
   48TPM     C1  636  12.370  10.852   4.148  0.1142  0.2110 -0.4155
   48TPM     C2  637  12.344  10.857   4.014  0.0647 -0.1756 -0.4219
   48TPM     C3  638  12.213  10.809   3.979  0.1922 -0.6433 -0.2812
   48TPM     C4  639  12.139  10.768   4.086  0.3389 -0.6132 -0.1675
   48TPM     S1  640  12.230  10.787   4.241  0.3274  0.0130 -0.2297
   49BDTP    C1  641  11.581  10.497   4.191  0.0654 -0.0773 -0.2166
   49BDTP    C2  642  11.544  10.606   4.107  0.0876 -0.0929 -0.2468
   49BDTP    C3  643  11.637  10.694   4.054  0.1029 -0.1091 -0.2472
   49BDTP    C4  644  11.772  10.675   4.084  0.0958 -0.1099 -0.2165
   49BDTP    C5  645  11.810  10.566   4.168  0.0736 -0.0943 -0.1862
   49BDTP    C6  646  11.717  10.477   4.222  0.0583 -0.0781 -0.1858
   49BDTP    C7  647  11.886  10.753   4.041  0.1086 -0.1252 -0.2107
   49BDTP    C8  648  12.006  10.709   4.087  0.0972 -0.1218 -0.1782
   49BDTP    S1  649  11.991  10.562   4.193  0.0686 -0.0988 -0.1498
   49BDTP    C9  650  11.467  10.419   4.235  0.0527 -0.0620 -0.2222
   49BDTP   C10  651  11.348  10.463   4.189  0.0641 -0.0654 -0.2549
   49BDTP    S2  652  11.363  10.610   4.083  0.0927 -0.0884 -0.2832
   50FTM     S1  653  11.507  10.797   3.822  0.1330 -0.0160 -0.1243
   50FTM     C1  654  11.493  10.976   3.811  0.4728  0.0154 -0.0521
   50FTM     C2  655  11.554  11.034   3.918  0.4480 -0.1484  0.0506
   50FTM     C3  656  11.613  10.944   4.013  0.1699 -0.3047  0.0789
   50FTM     C4  657  11.597  10.814   3.977 -0.0245 -0.2590 -0.0049
   50FTM     F1  658  11.559  11.171   3.937  0.6756 -0.1667  0.1252
   50FTM     C5  659  11.408  11.034   3.694 -0.4069  0.2024 -0.3810
   50FTM     C6  660  11.475  11.128   3.592 -0.7311  1.0674  0.0285
   50FTM     C7  661  11.590  11.055   3.508 -0.1572 -0.2210 -0.7143
   50FTM     C8  662  11.569  10.942   3.411  0.1946 -0.2417 -0.1626
   50FTM     C9  663  11.458  10.969   3.305 -0.0781 -0.1710  0.1241
   50FTM    C10  664  11.432  10.843   3.223 -0.6168  0.0276  0.9775
   50FTM    C11  665  11.514  11.263   3.648 -0.4574  0.0885  0.4096
   50FTM    C12  666  11.585  11.368   3.554 -0.3217  0.4800 -0.3979
   51FTM     S1  667  11.843  10.396   4.467  0.0978  0.2660  0.4290
   51FTM     C1  668  11.842  10.219   4.500 -0.0917  0.2522  0.3519
   51FTM     C2  669  11.777  10.154   4.400 -0.0767  0.3556  0.2743
   51FTM     C3  670  11.726  10.235   4.294  0.0795  0.4496  0.2701
   51FTM     C4  671  11.752  10.368   4.314  0.1874  0.4171  0.3473
   51FTM     F1  672  11.761  10.016   4.398 -0.2033  0.3712  0.2024
   51FTM     C5  673  11.909  10.163   4.615 -0.1449 -0.1770 -0.0170
   51FTM     C6  674  11.855  10.194   4.754 -0.3501 -0.0823 -0.6266
   51FTM     C7  675  11.706  10.169   4.777 -0.9153 -0.7191 -0.0414
   51FTM     C8  676  11.652  10.035   4.739  0.5612  0.3669  0.0457
   51FTM     C9  677  11.499  10.041   4.698 -0.4599  0.0765 -0.2339
   51FTM    C10  678  11.471  10.114   4.563  0.0999 -0.1385  0.1017
   51FTM    C11  679  11.890  10.334   4.816 -0.1320 -0.2528  0.2688
   51FTM    C12  680  12.021  10.411   4.793  0.3778  0.2984  0.3697
   52TPM     C1  681  11.219  10.400   4.222  0.0333 -0.1384 -0.2707
   52TPM     C2  682  11.091  10.425   4.181  0.0435  0.1971 -0.1019
   52TPM     C3  683  10.992  10.346   4.249 -0.0516  0.2674 -0.1582
   52TPM     C4  684  11.044  10.260   4.342 -0.1343 -0.0145 -0.3701
   52TPM     S1  685  11.224  10.273   4.350 -0.0982 -0.3934 -0.5159
   53BDD     C1  686  10.958   9.978   4.598  0.0796  0.1080  0.1070
   53BDD     C2  687  10.835  10.027   4.561  0.0712  0.0789  0.0961
   53BDD     C3  688  10.843  10.132   4.462  0.0430 -0.0674 -0.0616
   53BDD     C4  689  10.970  10.162   4.424  0.0302 -0.1478 -0.1686
   53BDD     S1  690  11.091  10.061   4.510  0.0527 -0.0458 -0.0794
   53BDD     C5  691  10.707   9.978   4.617  0.0888  0.1846  0.2302
   53BDD     C6  692  10.722  10.199   4.408  0.0297 -0.1222 -0.1001
   53BDD     O1  693  10.729  10.290   4.322  0.0053 -0.2484 -0.2360
   53BDD     O2  694  10.701   9.887   4.703  0.1132  0.3107  0.3661
   53BDD     C7  695  10.594  10.150   4.463  0.0473 -0.0166  0.0339
   53BDD     C8  696  10.587  10.045   4.563  0.0756  0.1298  0.1913
   53BDD     C9  697  10.459  10.015   4.601  0.0883  0.2101  0.2986
   53BDD     S2  698  10.339  10.116   4.515  0.0658  0.1082  0.2094
   53BDD    C10  699  10.472  10.199   4.427  0.0389 -0.0456  0.0231
   53BDD    C11  700  10.431  10.310   4.333 -1.0841 -0.2428 -0.1994
   53BDD    C12  701  10.312  10.300   4.240 -1.0711 -0.1887  0.2412
   53BDD    C13  702  10.273  10.434   4.180  1.0510 -0.1523  0.1120
   53BDD    C14  703  10.241  10.558   4.265 -0.5459  1.2069  0.3683
   53BDD    C15  704  10.202  10.684   4.191  0.3791 -0.0413 -0.8204
   53BDD    C16  705  10.154  10.791   4.287  0.2035  0.4021 -0.5802
   53BDD    C17  706  10.309  10.186   4.143  0.1284 -0.1505 -0.1473
   53BDD    C18  707  10.400  10.183   4.019  0.3616 -0.0850  0.0511
   53BDD    C19  708  10.404   9.906   4.691 -0.5737 -0.2487 -0.3366
   53BDD    C20  709  10.387   9.949   4.842 -0.9808  1.1837 -1.1317
   53BDD    C21  710  10.361   9.832   4.945 -0.0098 -0.3506  0.0795
   53BDD    C22  711  10.442   9.711   4.963 -0.4547  0.1692  0.0762
   53BDD    C23  712  10.454   9.612   4.846  0.3504 -0.5223  0.2591
   53BDD    C24  713  10.542   9.492   4.864 -0.2286  0.0636 -0.6277
   53BDD    C25  714  10.322  10.076   4.880  0.0551  0.1121  0.3179
   53BDD    C26  715  10.384  10.142   4.990 -0.1793  0.1629 -0.2303
   54TPM     C1  716  11.012   9.875   4.692  0.2009 -0.0837  0.2358
   54TPM     C2  717  10.963   9.750   4.713 -0.1087  0.1246  0.7896
   54TPM     C3  718  11.048   9.667   4.795 -0.0765  0.1186  0.7501
   54TPM     C4  719  11.162   9.729   4.836  0.2576 -0.0943  0.1661
   54TPM     S1  720  11.171   9.898   4.774  0.5599 -0.3053 -0.3835
   55BDTP    C1  721  11.604   9.607   5.269  0.3204 -0.1848 -0.0253
   55BDTP    C2  722  11.506   9.506   5.294  0.1238  0.0663  0.2273
   55BDTP    C3  723  11.391   9.493   5.218  0.0246  0.1926  0.3549
   55BDTP    C4  724  11.370   9.583   5.112  0.1237  0.0663  0.2276
   55BDTP    C5  725  11.468   9.684   5.087  0.3204 -0.1843 -0.0252
   55BDTP    C6  726  11.583   9.697   5.163  0.4196 -0.3109 -0.1526
   55BDTP    C7  727  11.258   9.588   5.020  0.0513  0.1588  0.3207
   55BDTP    C8  728  11.267   9.687   4.928  0.1824 -0.0082  0.1523
   55BDTP    S1  729  11.418   9.787   4.945  0.4160 -0.3061 -0.1478
   55BDTP    C9  730  11.715   9.602   5.361  0.3929 -0.2770 -0.1184
   55BDTP   C10  731  11.707   9.503   5.453  0.2618 -0.1101  0.0499
   55BDTP    S2  732  11.556   9.403   5.436  0.0281  0.1880  0.3502
   56FTM     S1  733  11.120   9.397   5.283 -0.3138 -0.0057 -0.3213
   56FTM     C1  734  11.096   9.221   5.251 -0.0163 -0.1605  0.2810
   56FTM     C2  735  11.215   9.162   5.220  0.1054 -0.0963  0.6223
   56FTM     C3  736  11.329   9.249   5.220 -0.0222  0.0730  0.4406
   56FTM     C4  737  11.297   9.377   5.251 -0.2489  0.1408 -0.0560
   56FTM     F1  738  11.227   9.027   5.191  0.3395 -0.1872  1.1195
   56FTM     C5  739  10.963   9.159   5.260 -0.5191  0.7335  0.0642
   56FTM     C6  740  10.848   9.212   5.175  0.1658  0.1540  0.5209
   56FTM     C7  741  10.703   9.154   5.203 -0.2876  0.2988 -0.2663
   56FTM     C8  742  10.652   9.191   5.345 -0.2349 -0.7154  0.0681
   56FTM     C9  743  10.509   9.159   5.381 -0.5798 -0.3792 -0.3609
   56FTM    C10  744  10.482   9.198   5.528 -0.2652  0.1468 -0.1678
   56FTM    C11  745  10.868   9.229   5.023  0.0210 -0.7104  0.4991
   56FTM    C12  746  10.917   9.111   4.937  0.4308  0.6624  0.7564
   57FTM     S1  747  11.712   9.953   5.209 -0.2129  0.2160  0.2861
   57FTM     C1  748  11.850   9.991   5.098 -0.3179  0.4034  0.2183
   57FTM     C2  749  11.867   9.889   5.009 -0.1153  0.3489  0.3186
   57FTM     C3  750  11.776   9.779   5.022  0.1280  0.1627  0.4512
   57FTM     C4  751  11.687   9.796   5.123  0.1112  0.0715  0.4522
   57FTM     F1  752  11.965   9.890   4.912 -0.1382  0.4645  0.2966
   57FTM     C5  753  11.917  10.126   5.108 -0.4053 -0.4446 -0.0311
   57FTM     C6  754  12.056  10.131   5.167  0.7967  0.1155 -0.7316
   57FTM     C7  755  12.065  10.050   5.305 -0.7140  0.1119  0.1184
   57FTM     C8  756  12.206  10.029   5.359 -0.0652  0.8071 -0.0866
   57FTM     C9  757  12.305   9.939   5.277  0.4750 -0.4396 -0.3930
   57FTM    C10  758  12.251   9.794   5.250 -0.1963 -0.2526  0.0315
   57FTM    C11  759  12.122  10.267   5.160 -0.1736 -0.5813 -0.0786
   57FTM    C12  760  12.051  10.377   5.238 -0.2948  0.3668 -0.5711
   58TPM     C1  761  11.812   9.476   5.549 -0.3743  0.2616  0.2991
   58TPM     C2  762  11.808   9.392   5.656 -0.1949 -0.0174  0.0885
   58TPM     C3  763  11.925   9.401   5.740  0.0911 -0.4642 -0.2495
   58TPM     C4  764  12.017   9.492   5.697  0.1299 -0.5258 -0.2964
   58TPM     S1  765  11.963   9.574   5.546 -0.1945 -0.0198  0.0852
   59BDD     C1  766  12.328   9.699   5.823 -0.1504  0.2471  0.2583
   59BDD     C2  767  12.332   9.583   5.896 -0.1183  0.1752  0.1432
   59BDD     C3  768  12.222   9.493   5.866 -0.0131  0.1101 -0.0511
   59BDD     C4  769  12.137   9.541   5.771  0.0333  0.1334 -0.0812
   59BDD     S1  770  12.187   9.703   5.712 -0.0512  0.2385  0.1315
   59BDD     C5  771  12.436   9.552   5.996 -0.1831  0.1636  0.2075
   59BDD     C6  772  12.206   9.362   5.933  0.0373  0.0272 -0.1997
   59BDD     O1  773  12.112   9.285   5.908  0.1280 -0.0286 -0.3672
   59BDD     O2  774  12.531   9.630   6.021 -0.2738  0.2194  0.3750
   59BDD     C7  775  12.311   9.331   6.033 -0.0274  0.0155 -0.1354
   59BDD     C8  776  12.420   9.421   6.063 -0.1326  0.0806  0.0588
   59BDD     C9  777  12.506   9.373   6.158 -0.1791  0.0570  0.0889
   59BDD     S2  778  12.455   9.211   6.217 -0.0945 -0.0480 -0.1238
   59BDD    C10  779  12.314   9.215   6.106  0.0047 -0.0565 -0.2506
   59BDD    C11  780  12.212   9.101   6.134 -0.3870 -0.4001  0.1787
   59BDD    C12  781  12.083   9.127   6.214  0.1416  0.6226  0.0920
   59BDD    C13  782  11.970   9.028   6.185  0.4885 -0.2290  0.5655
   59BDD    C14  783  11.942   8.984   6.039  0.1910  0.3375 -0.2571
   59BDD    C15  784  11.805   8.916   5.999  0.5336 -0.5847  0.2398
   59BDD    C16  785  11.778   8.775   6.042 -0.3534 -0.4771 -0.0887
   59BDD    C17  786  12.115   9.158   6.359  0.2465 -0.1991 -0.2067
   59BDD    C18  787  11.996   9.209   6.435  0.3716  0.0220  0.1402
   59BDD    C19  788  12.623   9.431   6.237 -0.0699  0.1494  0.0452
   59BDD    C20  789  12.593   9.484   6.374 -0.9784  0.1424 -0.3351
   59BDD    C21  790  12.719   9.536   6.451  0.3268  0.2042  0.5594
   59BDD    C22  791  12.834   9.434   6.489  0.6641  0.0443  0.2343
   59BDD    C23  792  12.797   9.304   6.563 -0.8069 -0.8121  0.3828
   59BDD    C24  793  12.717   9.312   6.692 -0.4903  0.3034 -0.5950
   59BDD    C25  794  12.477   9.584   6.371 -0.1818  0.5755 -0.2259
   59BDD    C26  795  12.428   9.624   6.510 -0.2523  0.3167  0.5773
   60TPM     C1  796  12.415   9.816   5.798  0.1748 -0.1150  0.4298
   60TPM     C2  797  12.480   9.888   5.894  0.5065 -0.0724  0.1781
   60TPM     C3  798  12.537  10.011   5.847  0.5581 -0.2123 -0.1258
   60TPM     C4  799  12.516  10.034   5.714  0.2658 -0.3615 -0.1058
   60TPM     S1  800  12.421   9.900   5.638 -0.1003 -0.3367  0.3015
    1BDTP    C1  801   0.654   1.696   3.704 -0.0387  0.0244 -0.0238
    1BDTP    C2  802   0.605   1.669   3.573 -0.2075  0.0736  0.0284
    1BDTP    C3  803   0.515   1.566   3.547 -0.2271  0.0716  0.1028
    1BDTP    C4  804   0.472   1.487   3.655 -0.0730  0.0186  0.1270
    1BDTP    C5  805   0.521   1.515   3.786  0.0957 -0.0306  0.0749
    1BDTP    C6  806   0.610   1.618   3.812  0.1153 -0.0286  0.0004
    1BDTP    C7  807   0.379   1.376   3.652 -0.0602  0.0061  0.2012
    1BDTP    C8  808   0.356   1.319   3.774  0.1080 -0.0495  0.2073
    1BDTP    S1  809   0.449   1.399   3.908  0.2737 -0.0938  0.1197
    1BDTP    C9  810   0.747   1.808   3.707 -0.0516  0.0370 -0.0980
    1BDTP   C10  811   0.769   1.864   3.586 -0.2198  0.0925 -0.1041
    1BDTP    S2  812   0.677   1.784   3.452 -0.3855  0.1368 -0.0165
    2FTM     S1  813   0.466   1.391   3.326  0.1601  0.0500 -0.1887
    2FTM     C1  814   0.388   1.467   3.182  0.1950  0.2915 -0.0817
    2FTM     C2  815   0.362   1.598   3.207 -0.2242  0.1418  0.2971
    2FTM     C3  816   0.400   1.647   3.336 -0.5893 -0.1624  0.5217
    2FTM     C4  817   0.457   1.549   3.413 -0.4449 -0.2485  0.3081
    2FTM     F1  818   0.303   1.682   3.114 -0.3022  0.2714  0.4628
    2FTM     C5  819   0.362   1.388   3.056 -0.0914 -0.1835  0.2647
    2FTM     C6  820   0.225   1.385   2.987 -1.2144  0.2041  0.0770
    2FTM     C7  821   0.222   1.298   2.862  0.0579  0.4811 -0.0314
    2FTM     C8  822   0.327   1.293   2.744  0.2190 -0.1596  0.0418
    2FTM     C9  823   0.349   1.424   2.668 -0.2972  1.1222 -0.1776
    2FTM    C10  824   0.466   1.414   2.573 -0.1727  0.4268  0.4879
    2FTM    C11  825   0.100   1.373   3.071 -0.5174  0.4991  0.2351
    2FTM    C12  826   0.069   1.233   3.122  1.0637  0.3407 -0.6588
    3FTM     S1  827   0.706   1.489   4.041  0.0174  0.0114 -0.0885
    3FTM     C1  828   0.754   1.595   4.179  0.0035  0.2762 -0.2855
    3FTM     C2  829   0.734   1.725   4.146  0.1182  0.2205 -0.5805
    3FTM     C3  830   0.682   1.750   4.015  0.2214 -0.0255 -0.6694
    3FTM     C4  831   0.662   1.635   3.945  0.1846 -0.1627 -0.4345
    3FTM     F1  832   0.762   1.830   4.233  0.1364  0.3891 -0.7879
    3FTM     C5  833   0.791   1.532   4.314  0.2793  0.8581 -0.1418
    3FTM     C6  834   0.935   1.516   4.358 -0.4701  0.1461 -0.3402
    3FTM     C7  835   1.027   1.437   4.259 -0.0331  0.1720 -0.5320
    3FTM     C8  836   0.993   1.297   4.220  0.1037 -0.2380  0.2638
    3FTM     C9  837   0.979   1.194   4.331  0.3856 -0.0896 -0.1262
    3FTM    C10  838   1.038   1.055   4.303  0.0075 -0.1960  0.1324
    3FTM    C11  839   1.014   1.647   4.391  0.2208  0.2191  0.1473
    3FTM    C12  840   0.970   1.723   4.514 -0.0540 -0.1018 -0.4457
    4TPM     C1  841   0.883   1.952   3.552  0.2910  0.1299 -0.1955
    4TPM     C2  842   0.960   1.963   3.440  0.5897  0.1863  0.0148
    4TPM     C3  843   1.059   2.068   3.448  0.7348  0.0233  0.4254
    4TPM     C4  844   1.056   2.137   3.566  0.5468 -0.1574  0.5279
    4TPM     S1  845   0.928   2.074   3.677  0.1690 -0.1355  0.1108
    5BDD     C1  846   1.253   2.470   3.564 -0.0253 -0.3130 -0.0091
    5BDD     C2  847   1.306   2.398   3.667 -0.0418 -0.3231 -0.0077
    5BDD     C3  848   1.243   2.268   3.684 -0.0940 -0.2946  0.0159
    5BDD     C4  849   1.143   2.244   3.594 -0.1167 -0.2632  0.0322
    5BDD     S1  850   1.122   2.381   3.481 -0.0741 -0.2672  0.0192
    5BDD     C5  851   1.416   2.445   3.754 -0.0101 -0.3593 -0.0282
    5BDD     C6  852   1.283   2.173   3.790 -0.1196 -0.2994  0.0212
    5BDD     O1  853   1.229   2.061   3.805 -0.1646 -0.2748  0.0416
    5BDD     O2  854   1.470   2.557   3.739  0.0350 -0.3839 -0.0485
    5BDD     C7  855   1.393   2.220   3.877 -0.0879 -0.3356  0.0009
    5BDD     C8  856   1.456   2.350   3.859 -0.0356 -0.3641 -0.0227
    5BDD     C9  857   1.556   2.374   3.950 -0.0130 -0.3955 -0.0391
    5BDD     S2  858   1.577   2.237   4.063 -0.0556 -0.3914 -0.0260
    5BDD    C10  859   1.446   2.148   3.980 -0.1043 -0.3456  0.0021
    5BDD    C11  860   1.414   2.011   4.036 -0.3086  0.2465 -0.0566
    5BDD    C12  861   1.333   2.009   4.165  0.6780 -0.6771 -0.0626
    5BDD    C13  862   1.276   1.870   4.206  0.3000 -0.3398  0.2780
    5BDD    C14  863   1.202   1.776   4.109  0.1956 -1.0080  0.0789
    5BDD    C15  864   1.102   1.849   4.019 -0.7030  0.2233 -0.5972
    5BDD    C16  865   1.024   1.753   3.930 -0.6259 -0.1074  0.2578
    5BDD    C17  866   1.384   2.086   4.295 -0.0052 -0.4824  0.0322
    5BDD    C18  867   1.520   2.056   4.359  0.6410 -0.1306 -0.2700
    5BDD    C19  868   1.644   2.496   3.973 -0.0612 -0.0469  0.1953
    5BDD    C20  869   1.789   2.488   3.918 -0.6275 -0.8102  0.3420
    5BDD    C21  870   1.872   2.620   3.906 -0.1635  0.0727 -0.3733
    5BDD    C22  871   1.809   2.728   3.834 -0.0385  0.1055  0.2974
    5BDD    C23  872   1.801   2.852   3.919 -0.1169  0.9326  0.5513
    5BDD    C24  873   1.760   2.978   3.847  0.0947  0.3243 -0.2291
    5BDD    C25  874   1.868   2.369   3.978 -0.1379 -0.4713 -0.3430
    5BDD    C26  875   1.996   2.339   3.906 -0.3101 -0.1011 -0.3898
    6TPM     C1  876   1.282   2.603   3.494  0.9468 -0.4156  0.0343
    6TPM     C2  877   1.224   2.625   3.373  0.8765 -0.8975 -0.0242
    6TPM     C3  878   1.264   2.749   3.311  0.2495 -0.7662 -0.1850
    6TPM     C4  879   1.353   2.821   3.385 -0.1583 -0.1843 -0.2491
    6TPM     S1  880   1.393   2.737   3.540  0.2209  0.2465 -0.1103
    7BDTP    C1  881   1.711   3.302   3.209 -0.1068  0.0639  0.1490
    7BDTP    C2  882   1.590   3.328   3.138 -0.0747  0.0935  0.1048
    7BDTP    C3  883   1.478   3.246   3.148 -0.0834  0.0960  0.0296
    7BDTP    C4  884   1.486   3.134   3.232 -0.1259  0.0680 -0.0041
    7BDTP    C5  885   1.607   3.108   3.303 -0.1581  0.0384  0.0399
    7BDTP    C6  886   1.719   3.189   3.293 -0.1493  0.0358  0.1152
    7BDTP    C7  887   1.383   3.035   3.259 -0.1427  0.0646 -0.0810
    7BDTP    C8  888   1.420   2.938   3.345 -0.1853  0.0344 -0.0968
    7BDTP    S1  889   1.591   2.957   3.405 -0.2103  0.0058 -0.0163
    7BDTP    C9  890   1.814   3.401   3.183 -0.0900  0.0672  0.2259
    7BDTP   C10  891   1.777   3.498   3.096 -0.0474  0.0975  0.2416
    7BDTP    S2  892   1.606   3.479   3.036 -0.0225  0.1261  0.1611
    8FTM     S1  893   1.377   3.313   2.882  0.1388  0.2192  0.0779
    8FTM     C1  894   1.200   3.341   2.873  0.0990 -0.0145  0.1177
    8FTM     C2  895   1.143   3.323   2.995  0.1503 -0.0878  0.1306
    8FTM     C3  896   1.232   3.287   3.101  0.2218  0.0305  0.1108
    8FTM     C4  897   1.361   3.277   3.059  0.2255  0.1999  0.0818
    8FTM     F1  898   1.007   3.338   3.018  0.1354 -0.2664  0.1612
    8FTM     C5  899   1.129   3.388   2.743 -0.3343 -0.1359 -0.6508
    8FTM     C6  900   1.075   3.531   2.716  0.0617  0.9769  0.0434
    8FTM     C7  901   1.001   3.544   2.583 -0.4125 -0.3878  0.0979
    8FTM     C8  902   0.887   3.451   2.541  0.2514 -0.0779 -0.7293
    8FTM     C9  903   0.827   3.509   2.412 -0.1753  0.5087 -0.3333
    8FTM    C10  904   0.678   3.476   2.397 -0.2171  0.4568 -0.1474
    8FTM    C11  905   1.160   3.647   2.757 -0.3624  0.5104 -0.1494
    8FTM    C12  906   1.290   3.669   2.677 -0.2125  0.1937 -0.5894
    9FTM     S1  907   1.872   3.190   3.531  0.0999  0.2346  0.0148
    9FTM     C1  908   2.027   3.098   3.531  0.1343  0.2928 -0.0076
    9FTM     C2  909   2.050   3.047   3.407  0.2417  0.4808 -0.0669
    9FTM     C3  910   1.951   3.074   3.308  0.3024  0.5884 -0.0978
    9FTM     C4  911   1.848   3.150   3.357  0.2394  0.4792 -0.0610
    9FTM     F1  912   2.162   2.971   3.377  0.2914  0.5665 -0.0967
    9FTM     C5  913   2.111   3.111   3.657 -0.1591  0.5785  0.0493
    9FTM     C6  914   2.251   3.048   3.679  0.3152  0.3473  0.6397
    9FTM     C7  915   2.284   3.063   3.826 -1.4350  0.1693 -0.0236
    9FTM     C8  916   2.238   2.961   3.928 -0.4498  0.5153  0.2838
    9FTM     C9  917   2.335   2.838   3.928 -0.4568  0.0008 -0.1320
    9FTM    C10  918   2.295   2.731   4.027 -0.0429  0.1198  0.3147
    9FTM    C11  919   2.361   3.095   3.565  0.3892  0.4634 -0.4097
    9FTM    C12  920   2.502   3.028   3.571  0.0840  0.5468  0.1028
   10TPM     C1  921   1.863   3.608   3.074  0.2149  0.2307  0.5315
   10TPM     C2  922   1.837   3.731   3.021  0.1272  0.3480  0.8414
   10TPM     C3  923   1.951   3.819   3.021  0.2314  0.2190  0.5115
   10TPM     C4  924   2.063   3.764   3.075  0.3985  0.0033 -0.0500
   10TPM     S1  925   2.035   3.594   3.129  0.4377 -0.0540 -0.2067
   11BDD     C1  926   2.390   3.882   3.246  0.0068 -0.0696 -0.1437
   11BDD     C2  927   2.363   3.983   3.158 -0.0194 -0.0662 -0.1318
   11BDD     C3  928   2.243   3.960   3.080 -0.0472 -0.0589 -0.0908
   11BDD     C4  929   2.180   3.843   3.110 -0.0420 -0.0567 -0.0720
   11BDD     S1  930   2.267   3.753   3.239 -0.0018 -0.0639 -0.1043
   11BDD     C5  931   2.448   4.103   3.141 -0.0196 -0.0695 -0.1578
   11BDD     C6  932   2.195   4.056   2.978 -0.0780 -0.0540 -0.0718
   11BDD     O1  933   2.091   4.037   2.911 -0.1020 -0.0477 -0.0364
   11BDD     O2  934   2.551   4.123   3.208  0.0045 -0.0759 -0.1932
   11BDD     C7  935   2.279   4.177   2.962 -0.0783 -0.0575 -0.0977
   11BDD     C8  936   2.399   4.199   3.040 -0.0504 -0.0648 -0.1388
   11BDD     C9  937   2.463   4.317   3.009 -0.0556 -0.0669 -0.1577
   11BDD     S2  938   2.376   4.407   2.881 -0.0958 -0.0597 -0.1253
   11BDD    C10  939   2.252   4.277   2.873 -0.1043 -0.0540 -0.0859
   11BDD    C11  940   2.139   4.305   2.777  0.4304 -0.3050 -0.2771
   11BDD    C12  941   2.014   4.378   2.829 -0.4697 -0.5799 -0.0999
   11BDD    C13  942   1.886   4.375   2.745 -0.1411 -0.0584  0.0090
   11BDD    C14  943   1.840   4.235   2.703 -0.0278 -0.0314 -0.7800
   11BDD    C15  944   1.755   4.156   2.801  0.5672 -0.6460  0.0733
   11BDD    C16  945   1.716   4.023   2.746  0.0653 -0.0101  0.3035
   11BDD    C17  946   2.040   4.516   2.898 -0.1296 -0.0783 -0.0897
   11BDD    C18  947   2.073   4.639   2.811 -0.3428 -0.5556 -0.0371
   11BDD    C19  948   2.589   4.389   3.052 -0.3124 -0.1243  0.7019
   11BDD    C20  949   2.707   4.372   2.949 -0.7838 -0.6663 -0.2648
   11BDD    C21  950   2.768   4.236   2.927  0.5374  0.3097  0.2664
   11BDD    C22  951   2.836   4.167   3.047  0.1712  0.6218  0.5750
   11BDD    C23  952   2.864   4.016   3.032 -0.6446  0.0429  0.2991
   11BDD    C24  953   2.934   3.951   3.155  0.0136 -0.0876 -0.5953
   11BDD    C25  954   2.792   4.497   2.962  0.1186  0.1606  0.1633
   11BDD    C26  955   2.906   4.526   2.858  0.4968 -0.4118  0.1393
   12TPM     C1  956   2.490   3.849   3.347  0.5148 -0.6787 -1.2476
   12TPM     C2  957   2.491   3.726   3.406  0.8911 -0.8459 -1.5901
   12TPM     C3  958   2.599   3.708   3.500  0.5782 -0.5353 -1.1594
   12TPM     C4  959   2.681   3.816   3.512 -0.0368 -0.1313 -0.4886
   12TPM     S1  960   2.627   3.951   3.405 -0.2700 -0.1115 -0.3476
   13BDTP    C1  961   3.202   3.732   3.860  0.0662 -0.2910 -0.1148
   13BDTP    C2  962   3.240   3.841   3.776  0.0950 -0.2457 -0.0433
   13BDTP    C3  963   3.155   3.896   3.682  0.1121 -0.1663 -0.0122
   13BDTP    C4  964   3.025   3.842   3.670  0.1006 -0.1295 -0.0535
   13BDTP    C5  965   2.987   3.733   3.754  0.0718 -0.1746 -0.1249
   13BDTP    C6  966   3.073   3.678   3.848  0.0547 -0.2543 -0.1560
   13BDTP    C7  967   2.919   3.883   3.580  0.1142 -0.0479 -0.0328
   13BDTP    C8  968   2.805   3.811   3.592  0.0974 -0.0300 -0.0845
   13BDTP    S1  969   2.816   3.681   3.719  0.0619 -0.1140 -0.1669
   13BDTP    C9  970   3.308   3.691   3.950  0.0526 -0.3726 -0.1355
   13BDTP   C10  971   3.422   3.763   3.938  0.0694 -0.3905 -0.0837
   13BDTP    S2  972   3.412   3.893   3.811  0.1049 -0.3065 -0.0014
   14FTM     S1  973   3.152   4.021   3.422  0.0215 -0.1936 -0.0964
   14FTM     C1  974   3.224   4.186   3.414 -0.1362 -0.1221 -0.0322
   14FTM     C2  975   3.270   4.222   3.537 -0.2230 -0.1013 -0.0051
   14FTM     C3  976   3.254   4.126   3.642 -0.1735 -0.1388 -0.0318
   14FTM     C4  977   3.192   4.012   3.598 -0.0444 -0.1901 -0.0810
   14FTM     F1  978   3.331   4.344   3.562 -0.3526 -0.0470  0.0456
   14FTM     C5  979   3.227   4.252   3.278 -0.5526 -0.2393 -0.4158
   14FTM     C6  980   3.336   4.348   3.231 -0.5656  0.3525 -0.3783
   14FTM     C7  981   3.481   4.296   3.260  0.2739  0.3053 -0.3687
   14FTM     C8  982   3.528   4.162   3.194  0.2252  0.3712  0.6157
   14FTM     C9  983   3.671   4.128   3.243  0.1303 -0.3267 -0.0117
   14FTM    C10  984   3.705   3.999   3.189 -0.0101  0.4439  0.1341
   14FTM    C11  985   3.321   4.410   3.093  0.0330 -0.3625 -0.1735
   14FTM    C12  986   3.302   4.315   2.970  0.1443 -0.5095  0.2354
   15FTM     S1  987   2.877   3.584   4.036 -0.0550  0.2492 -0.2555
   15FTM     C1  988   2.897   3.416   4.099 -0.1646  0.3120 -0.0536
   15FTM     C2  989   3.011   3.361   4.050 -0.1215  0.2325  0.1329
   15FTM     C3  990   3.088   3.444   3.962 -0.0034  0.1205  0.1306
   15FTM     C4  991   3.032   3.566   3.943  0.0455  0.1141 -0.0642
   15FTM     F1  992   3.053   3.233   4.081 -0.1863  0.2563  0.3170
   15FTM     C5  993   2.786   3.356   4.190 -0.3896  0.4277 -0.2945
   15FTM     C6  994   2.641   3.338   4.147 -0.2211  0.1453  0.0006
   15FTM     C7  995   2.550   3.454   4.191 -0.0530  0.5051  0.1801
   15FTM     C8  996   2.513   3.471   4.342 -0.5933 -0.2660  0.3901
   15FTM     C9  997   2.444   3.351   4.418 -0.2191 -0.4923 -0.0900
   15FTM    C10  998   2.301   3.313   4.380  0.0374 -0.4125 -0.4327
   15FTM    C11  999   2.612   3.266   4.014  0.0359 -0.1181  0.5651
   15FTM    C12 1000   2.622   3.343   3.882  0.0647  0.1823 -0.1908
   16TPM     C1 1001   3.551   3.732   4.001  0.2454 -0.2992 -0.2838
   16TPM     C2 1002   3.654   3.818   4.023  0.2010 -0.2841 -0.1279
   16TPM     C3 1003   3.767   3.758   4.088  0.0434 -0.2242  0.2054
   16TPM     C4 1004   3.750   3.625   4.116 -0.0325 -0.1935  0.3039
   16TPM     S1 1005   3.588   3.566   4.062  0.0902 -0.2383 -0.0193
   17BDD     C1 1006   3.907   3.363   4.362  0.1179 -0.3978 -0.1067
   17BDD     C2 1007   4.014   3.430   4.311  0.0609 -0.2700 -0.0596
   17BDD     C3 1008   3.977   3.535   4.218 -0.0330 -0.1680  0.0923
   17BDD     C4 1009   3.842   3.547   4.200 -0.0462 -0.2194  0.1589
   17BDD     S1 1010   3.752   3.427   4.298  0.0579 -0.3992  0.0359
   17BDD     C5 1011   4.154   3.400   4.345  0.0907 -0.2370 -0.1527
   17BDD     C6 1012   4.076   3.621   4.150 -0.1061 -0.0231  0.1659
   17BDD     O1 1013   4.044   3.711   4.069 -0.1870  0.0649  0.2970
   17BDD     O2 1014   4.186   3.310   4.425  0.1717 -0.3250 -0.2836
   17BDD     C7 1015   4.217   3.591   4.184 -0.0764  0.0100  0.0730
   17BDD     C8 1016   4.254   3.485   4.277  0.0175 -0.0921 -0.0789
   17BDD     C9 1017   4.389   3.474   4.295  0.0309 -0.0407 -0.1457
   17BDD     S2 1018   4.479   3.594   4.196 -0.0732  0.1392 -0.0227
   17BDD    C10 1019   4.324   3.658   4.132 -0.1333  0.1377  0.1199
   17BDD    C11 1020   4.337   3.766   4.030 -0.4526 -0.7679  0.0056
   17BDD    C12 1021   4.327   3.908   4.086 -0.1255  0.1900  0.4871
   17BDD    C13 1022   4.414   3.952   4.204 -0.0206 -0.3291 -0.5221
   17BDD    C14 1023   4.557   3.989   4.176  0.1460 -0.0055 -0.3501
   17BDD    C15 1024   4.640   4.001   4.304  0.5143  0.1884  0.2712
   17BDD    C16 1025   4.697   3.865   4.348 -0.0843  0.1728 -0.5716
   17BDD    C17 1026   4.323   4.018   3.977 -0.6328  0.3278  0.3326
   17BDD    C18 1027   4.214   4.015   3.870 -0.3821 -0.0590  0.0665
   17BDD    C19 1028   4.475   3.381   4.376 -0.0757 -0.3311 -0.0435
   17BDD    C20 1029   4.550   3.451   4.496  0.1707 -0.1216  0.6732
   17BDD    C21 1030   4.638   3.340   4.558 -0.5209  0.1213  0.1252
   17BDD    C22 1031   4.755   3.272   4.482 -0.1189 -0.6043 -0.3240
   17BDD    C23 1032   4.808   3.153   4.563  0.0561  0.3405  0.5172
   17BDD    C24 1033   4.839   3.156   4.716 -0.2310 -0.1414 -0.0258
   17BDD    C25 1034   4.467   3.521   4.605 -0.3888  0.1811  0.1005
   17BDD    C26 1035   4.357   3.437   4.682 -0.2264 -0.2972  0.5141
   18TPM     C1 1036   3.883   3.256   4.458  0.0485  0.1351 -0.5265
   18TPM     C2 1037   3.954   3.256   4.574  0.1559  0.1519 -0.5910
   18TPM     C3 1038   3.897   3.171   4.676  0.2386  0.1814 -0.5202
   18TPM     C4 1039   3.783   3.107   4.637  0.1941  0.1871 -0.4016
   18TPM     S1 1040   3.739   3.148   4.467  0.0433  0.1554 -0.3702
   19BDTP    C1 1041   3.368   2.660   4.751  0.0895  0.0066  0.0240
   19BDTP    C2 1042   3.493   2.592   4.762  0.1122  0.0390 -0.0319
   19BDTP    C3 1043   3.615   2.658   4.755  0.0919  0.0704 -0.0885
   19BDTP    C4 1044   3.614   2.797   4.735  0.0470  0.0698 -0.0902
   19BDTP    C5 1045   3.489   2.865   4.723  0.0241  0.0373 -0.0345
   19BDTP    C6 1046   3.367   2.799   4.731  0.0446  0.0060  0.0221
   19BDTP    C7 1047   3.727   2.887   4.724  0.0189  0.0989 -0.1434
   19BDTP    C8 1048   3.694   3.017   4.705 -0.0232  0.0901 -0.1304
   19BDTP    S1 1049   3.514   3.044   4.699 -0.0334  0.0435 -0.0490
   19BDTP    C9 1050   3.255   2.570   4.762  0.1175 -0.0226  0.0770
   19BDTP   C10 1051   3.288   2.440   4.780  0.1597 -0.0136  0.0639
   19BDTP    S2 1052   3.468   2.413   4.787  0.1698  0.0329 -0.0175
   20FTM     S1 1053   3.826   2.571   4.916 -0.0038 -0.0542 -0.1656
   20FTM     C1 1054   3.956   2.472   4.840 -0.1549 -0.2044 -0.2286
   20FTM     C2 1055   3.927   2.451   4.709 -0.2145 -0.1237 -0.2288
   20FTM     C3 1056   3.806   2.509   4.661 -0.1478  0.0554 -0.1811
   20FTM     C4 1057   3.739   2.577   4.758 -0.0335  0.1138 -0.1432
   20FTM     F1 1058   4.010   2.377   4.625 -0.3330 -0.2074 -0.2718
   20FTM     C5 1059   4.072   2.405   4.914 -0.5633  0.3353  0.4749
   20FTM     C6 1060   4.217   2.463   4.920  0.6145  0.7681  0.2531
   20FTM     C7 1061   4.220   2.605   4.980  0.1986  0.2210 -0.1852
   20FTM     C8 1062   4.196   2.618   5.130  0.1128 -0.5998  0.0753
   20FTM     C9 1063   4.307   2.553   5.214  0.5419  0.2961  0.2012
   20FTM    C10 1064   4.292   2.605   5.358 -0.4143  0.5730 -0.2334
   20FTM    C11 1065   4.288   2.472   4.777  0.2003  0.2043 -0.5870
   20FTM    C12 1066   4.334   2.341   4.717  0.5560  1.0174 -0.1985
   21FTM     S1 1067   3.095   2.867   4.627  0.1063  0.2370  0.1186
   21FTM     C1 1068   3.001   2.974   4.738  0.2902  0.4518  0.0694
   21FTM     C2 1069   3.076   3.008   4.845  0.3376  0.3419  0.0712
   21FTM     C3 1070   3.209   2.954   4.849  0.2363  0.0901  0.1103
   21FTM     C4 1071   3.236   2.876   4.740  0.1070  0.0044  0.1388
   21FTM     F1 1072   3.030   3.090   4.947  0.4755  0.4628  0.0379
   21FTM     C5 1073   2.855   3.000   4.698  0.0490  0.1638 -0.4477
   21FTM     C6 1074   2.818   3.109   4.603 -0.0762  0.1887 -0.1018
   21FTM     C7 1075   2.836   3.063   4.454 -0.4671 -0.0673 -0.0188
   21FTM     C8 1076   2.761   2.949   4.394  0.4501  0.2529  0.6982
   21FTM     C9 1077   2.779   2.944   4.244 -0.1409  0.2450  0.4699
   21FTM    C10 1078   2.695   2.835   4.174  0.8494 -0.4370  0.4666
   21FTM    C11 1079   2.867   3.249   4.635 -0.7479  0.4430  0.2185
   21FTM    C12 1080   2.799   3.359   4.561 -0.2444  0.0040  0.5409
   22TPM     C1 1081   3.192   2.329   4.791 -0.0201  0.0174 -0.4606
   22TPM     C2 1082   3.061   2.336   4.828  0.0410  0.1042 -0.2636
   22TPM     C3 1083   2.994   2.209   4.833  0.0969  0.0914  0.3231
   22TPM     C4 1084   3.074   2.104   4.799  0.0783 -0.0051  0.5733
   22TPM     S1 1085   3.241   2.158   4.758 -0.0118 -0.0881  0.0836
   23BDD     C1 1086   3.087   1.740   4.948  0.2203 -0.0995 -0.2206
   23BDD     C2 1087   2.958   1.757   4.908  0.2037 -0.0655 -0.1526
   23BDD     C3 1088   2.933   1.887   4.849  0.1851 -0.0249 -0.0569
   23BDD     C4 1089   3.043   1.967   4.844  0.1880 -0.0286 -0.0532
   23BDD     S1 1090   3.187   1.885   4.914  0.2139 -0.0831 -0.1694
   23BDD     C5 1091   2.852   1.654   4.924  0.2041 -0.0690 -0.1731
   23BDD     C6 1092   2.799   1.927   4.798  0.1655  0.0161  0.0278
   23BDD     O1 1093   2.778   2.039   4.747  0.1495  0.0511  0.1104
   23BDD     O2 1094   2.874   1.542   4.975  0.2201 -0.1041 -0.2558
   23BDD     C7 1095   2.694   1.824   4.814  0.1659  0.0126  0.0074
   23BDD     C8 1096   2.719   1.695   4.873  0.1844 -0.0280 -0.0885
   23BDD     C9 1097   2.608   1.615   4.878  0.1816 -0.0244 -0.0920
   23BDD     S2 1098   2.465   1.696   4.808  0.1556  0.0302  0.0243
   23BDD    C10 1099   2.564   1.842   4.774  0.1494  0.0466  0.0755
   23BDD    C11 1100   2.503   1.949   4.688 -0.3023  0.5858  0.5040
   23BDD    C12 1101   2.392   2.053   4.727  0.3621  0.5850  0.2755
   23BDD    C13 1102   2.258   1.979   4.764  0.3547 -0.4147 -0.0673
   23BDD    C14 1103   2.203   1.872   4.673 -0.6957 -0.2668 -0.1199
   23BDD    C15 1104   2.072   1.806   4.708 -0.2169  0.4240 -0.0517
   23BDD    C16 1105   2.076   1.706   4.820 -0.4887 -0.1861 -0.5694
   23BDD    C17 1106   2.427   2.164   4.827  0.0605 -0.1160 -0.5492
   23BDD    C18 1107   2.549   2.249   4.795  0.4904  0.0229  0.1765
   23BDD    C19 1108   2.575   1.474   4.944 -0.0011 -0.2681  0.0791
   23BDD    C20 1109   2.483   1.467   5.065 -0.2642 -0.1913 -0.6122
   23BDD    C21 1110   2.453   1.314   5.095 -0.1467 -0.3992  0.5308
   23BDD    C22 1111   2.334   1.283   5.187  0.2296  0.6775 -0.7109
   23BDD    C23 1112   2.193   1.332   5.164 -0.7406 -0.2132  0.5451
   23BDD    C24 1113   2.093   1.315   5.274  0.4956  0.1029  0.3889
   23BDD    C25 1114   2.521   1.550   5.190  0.1030 -0.0307  0.3872
   23BDD    C26 1115   2.642   1.515   5.281  0.1208  0.0811  0.5068
   24TPM     C1 1116   3.169   1.644   5.018  0.0072 -0.2813  0.0004
   24TPM     C2 1117   3.162   1.510   4.993  0.3527 -0.3038  0.0137
   24TPM     C3 1118   3.274   1.436   5.043  0.5436 -0.0092  0.0252
   24TPM     C4 1119   3.367   1.513   5.106  0.3436  0.2378  0.0203
   24TPM     S1 1120   3.320   1.687   5.107 -0.1047  0.1166  0.0008
   25BDTP    C1 1121   3.880   1.381   5.444  0.0345 -0.0818  0.0365
   25BDTP    C2 1122   3.803   1.262   5.459 -0.0052 -0.0611 -0.0036
   25BDTP    C3 1123   3.679   1.245   5.400 -0.0134  0.0026 -0.0048
   25BDTP    C4 1124   3.628   1.350   5.322  0.0192  0.0481  0.0356
   25BDTP    C5 1125   3.705   1.469   5.307  0.0590  0.0274  0.0757
   25BDTP    C6 1126   3.829   1.486   5.366  0.0671 -0.0362  0.0766
   25BDTP    C7 1127   3.502   1.356   5.251  0.0183  0.1165  0.0426
   25BDTP    C8 1128   3.480   1.472   5.184  0.0549  0.1479  0.0855
   25BDTP    S1 1129   3.617   1.590   5.202  0.0958  0.0951  0.1228
   25BDTP    C9 1130   4.006   1.375   5.515  0.0354 -0.1502  0.0293
   25BDTP   C10 1131   4.028   1.259   5.581 -0.0013 -0.1816 -0.0136
   25BDTP    S2 1132   3.891   1.140   5.564 -0.0421 -0.1288 -0.0509
   26FTM     S1 1133   3.532   1.066   5.583  0.1629 -0.1257  0.0815
   26FTM     C1 1134   3.471   0.916   5.503 -0.2132  0.0231  0.0848
   26FTM     C2 1135   3.499   0.919   5.371 -0.5174  0.1059  0.0196
   26FTM     C3 1136   3.569   1.035   5.323 -0.4776  0.0598 -0.0358
   26FTM     C4 1137   3.594   1.124   5.423 -0.1315 -0.0623 -0.0120
   26FTM     F1 1138   3.464   0.817   5.284 -0.8500  0.2284  0.0061
   26FTM     C5 1139   3.381   0.818   5.585  0.2273 -0.3515 -0.1357
   26FTM     C6 1140   3.238   0.855   5.635 -0.6463 -0.1600  0.1921
   26FTM     C7 1141   3.164   0.732   5.691 -0.0666 -0.4049 -0.2758
   26FTM     C8 1142   3.137   0.619   5.586 -0.4320 -0.4578 -0.4626
   26FTM     C9 1143   3.070   0.656   5.454  0.6662 -0.5804  0.3320
   26FTM    C10 1144   2.932   0.723   5.455 -0.0996  0.0239 -0.3466
   26FTM    C11 1145   3.236   0.979   5.723 -0.3263 -0.2378  0.1128
   26FTM    C12 1146   3.096   1.041   5.750 -0.6397  0.3678  0.0350
   27FTM     S1 1147   4.008   1.706   5.481  0.0224  0.0776 -0.1211
   27FTM     C1 1148   4.047   1.836   5.362  0.2385  0.0992 -0.0281
   27FTM     C2 1149   3.986   1.810   5.243  0.1676  0.3017 -0.0372
   27FTM     C3 1150   3.908   1.690   5.237 -0.0536  0.4489 -0.1153
   27FTM     C4 1151   3.908   1.622   5.355 -0.1556  0.3560 -0.1675
   27FTM     F1 1152   3.998   1.893   5.133  0.2990  0.3659  0.0244
   27FTM     C5 1153   4.147   1.933   5.403 -0.3265 -0.6830  0.2173
   27FTM     C6 1154   4.142   2.078   5.353  0.2327 -0.4272 -0.0972
   27FTM     C7 1155   4.264   2.167   5.363 -0.2365  0.6288 -0.6060
   27FTM     C8 1156   4.397   2.110   5.317 -0.6030 -0.2385  0.5337
   27FTM     C9 1157   4.395   2.031   5.173  0.3771  0.8696 -0.4633
   27FTM    C10 1158   4.362   2.104   5.044 -0.2989  0.1116 -0.4450
   27FTM    C11 1159   4.011   2.157   5.373  0.0755 -0.1973 -0.1046
   27FTM    C12 1160   3.973   2.202   5.513 -0.0734 -0.0052 -0.5798
   28TPM     C1 1161   4.138   1.219   5.670  0.1061  0.3636  0.1969
   28TPM     C2 1162   4.146   1.123   5.766  0.1514 -0.0905 -0.2495
   28TPM     C3 1163   4.276   1.113   5.827  0.2060 -0.4405 -0.4181
   28TPM     C4 1164   4.367   1.201   5.777  0.2021 -0.2535 -0.1000
   28TPM     S1 1165   4.295   1.305   5.648  0.1288  0.3843  0.4408
   29BDD     C1 1166   4.714   1.165   5.959  0.1541  0.1331 -0.1134
   29BDD     C2 1167   4.743   1.165   5.825  0.1185  0.1161 -0.1210
   29BDD     C3 1168   4.626   1.182   5.741  0.0719 -0.0825 -0.0975
   29BDD     C4 1169   4.509   1.195   5.812  0.0726 -0.2141 -0.0720
   29BDD     S1 1170   4.538   1.186   5.988  0.1321 -0.0985 -0.0759
   29BDD     C5 1171   4.879   1.150   5.770  0.1256  0.2820 -0.1504
   29BDD     C6 1172   4.633   1.185   5.593  0.0280 -0.1345 -0.1010
   29BDD     O1 1173   4.532   1.200   5.521 -0.0122 -0.3058 -0.0807
   29BDD     O2 1174   4.980   1.135   5.842  0.1658  0.4533 -0.1708
   29BDD     C7 1175   4.769   1.170   5.538  0.0353  0.0313 -0.1304
   29BDD     C8 1176   4.886   1.153   5.622  0.0819  0.2300 -0.1541
   29BDD     C9 1177   5.003   1.140   5.551  0.0809  0.3616 -0.1794
   29BDD     S2 1178   4.974   1.149   5.374  0.0216  0.2459 -0.1756
   29BDD    C10 1179   4.798   1.170   5.404 -0.0005  0.0144 -0.1382
   29BDD    C11 1180   4.718   1.191   5.280  0.1826 -0.2329  0.3010
   29BDD    C12 1181   4.758   1.296   5.164  1.2552 -0.3597 -0.1959
   29BDD    C13 1182   4.791   1.440   5.209  0.4573 -0.4778  0.4722
   29BDD    C14 1183   4.709   1.521   5.315 -0.3993  0.5268 -0.3156
   29BDD    C15 1184   4.569   1.566   5.269 -0.1071 -0.3922 -0.0723
   29BDD    C16 1185   4.488   1.646   5.376 -0.1552 -0.2164  0.2581
   29BDD    C17 1186   4.654   1.289   5.049  0.2949 -0.2287 -0.1704
   29BDD    C18 1187   4.627   1.156   4.978 -0.2802 -0.0168 -0.5076
   29BDD    C19 1188   5.147   1.114   5.598  0.1606 -0.9300 -0.2634
   29BDD    C20 1189   5.198   0.974   5.575  0.3862  0.4170 -0.0992
   29BDD    C21 1190   5.343   0.970   5.621 -0.4576  0.2653  0.4512
   29BDD    C22 1191   5.425   0.848   5.574 -0.2422 -0.5363 -0.1843
   29BDD    C23 1192   5.471   0.847   5.431 -0.9496 -0.1910 -0.2803
   29BDD    C24 1193   5.522   0.715   5.386 -0.1409 -0.1148 -0.6648
   29BDD    C25 1194   5.111   0.849   5.613 -0.2404 -0.7172  0.0249
   29BDD    C26 1195   5.088   0.804   5.756 -0.5243  0.0154  0.0864
   30TPM     C1 1196   4.795   1.134   6.075  0.0655  0.1186  0.0063
   30TPM     C2 1197   4.792   1.012   6.138 -0.0491  0.2082  0.1781
   30TPM     C3 1198   4.885   1.002   6.248 -0.1193  0.3043  0.2469
   30TPM     C4 1199   4.958   1.115   6.269 -0.0585  0.2878  0.1277
   30TPM     S1 1200   4.915   1.245   6.151  0.0937  0.1487 -0.0825
   31BDTP    C1 1201   5.359   1.282   6.724 -0.1404 -0.2335  0.0887
   31BDTP    C2 1202   5.403   1.149   6.694 -0.0598 -0.1942  0.0314
   31BDTP    C3 1203   5.341   1.070   6.598 -0.0029 -0.1856 -0.0130
   31BDTP    C4 1204   5.231   1.123   6.529 -0.0262 -0.2171 -0.0001
   31BDTP    C5 1205   5.187   1.256   6.559 -0.1069 -0.2564  0.0572
   31BDTP    C6 1206   5.249   1.335   6.655 -0.1639 -0.2650  0.1016
   31BDTP    C7 1207   5.150   1.060   6.426  0.0221 -0.2155 -0.0391
   31BDTP    C8 1208   5.050   1.138   6.378 -0.0178 -0.2511 -0.0137
   31BDTP    S1 1209   5.043   1.302   6.457 -0.1220 -0.2919  0.0626
   31BDTP    C9 1210   5.440   1.345   6.827 -0.1887 -0.2352  0.1274
   31BDTP   C10 1211   5.540   1.267   6.875 -0.1490 -0.1995  0.1023
   31BDTP    S2 1212   5.547   1.103   6.797 -0.0447 -0.1587  0.0258
   32FTM     S1 1213   5.406   0.811   6.679 -0.0965  0.0079  0.3669
   32FTM     C1 1214   5.491   0.703   6.562 -0.3947 -0.1368  0.2814
   32FTM     C2 1215   5.510   0.769   6.444 -0.5600 -0.2309  0.2009
   32FTM     C3 1216   5.462   0.903   6.438 -0.4669 -0.1970  0.2010
   32FTM     C4 1217   5.403   0.942   6.555 -0.2226 -0.0729  0.2844
   32FTM     F1 1218   5.574   0.711   6.335 -0.8053 -0.3533  0.1225
   32FTM     C5 1219   5.539   0.563   6.588 -0.0751 -0.0271  0.2708
   32FTM     C6 1220   5.456   0.433   6.576 -0.4071  0.3614  0.3062
   32FTM     C7 1221   5.383   0.410   6.442  0.3085 -0.2384 -0.3157
   32FTM     C8 1222   5.462   0.405   6.310  0.0517  0.0653 -0.0229
   32FTM     C9 1223   5.375   0.400   6.181  0.0681  0.5795 -0.2394
   32FTM    C10 1224   5.316   0.264   6.145  0.0431  0.0504 -0.1388
   32FTM    C11 1225   5.361   0.395   6.687  0.1258 -0.2128 -0.4104
   32FTM    C12 1226   5.408   0.410   6.830 -0.4741 -0.1118 -0.3725
   33FTM     S1 1227   5.169   1.546   6.839 -0.0178  0.0357 -0.1326
   33FTM     C1 1228   5.125   1.703   6.762  0.1799  0.1036 -0.1093
   33FTM     C2 1229   5.139   1.694   6.627  0.0509  0.0661 -0.1210
   33FTM     C3 1230   5.185   1.568   6.577 -0.2035 -0.0156 -0.1482
   33FTM     C4 1231   5.206   1.477   6.676 -0.2715 -0.0417 -0.1576
   33FTM     F1 1232   5.112   1.800   6.542  0.1556  0.1037 -0.1079
   33FTM     C5 1233   5.086   1.819   6.849 -0.3536  0.0406  0.4015
   33FTM     C6 1234   5.176   1.873   6.960  0.0746 -0.4423 -0.1778
   33FTM     C7 1235   5.310   1.947   6.928 -0.6187  0.6650  0.5838
   33FTM     C8 1236   5.399   1.908   6.812 -0.0867  0.4929  0.6491
   33FTM     C9 1237   5.489   1.783   6.815 -0.3123 -0.2704  0.4238
   33FTM    C10 1238   5.574   1.750   6.939 -0.3501  0.4933 -0.2784
   33FTM    C11 1239   5.090   1.938   7.068 -0.0388 -0.2221  0.3842
   33FTM    C12 1240   4.988   1.857   7.146  0.1691  0.3979 -0.2970
   34TPM     C1 1241   5.621   1.291   6.988  0.3384  0.0368 -0.0832
   34TPM     C2 1242   5.678   1.410   7.025  0.5194 -0.0123 -0.2000
   34TPM     C3 1243   5.760   1.401   7.143  0.5015 -0.0204 -0.1881
   34TPM     C4 1244   5.766   1.276   7.196  0.3065  0.0226 -0.0620
   34TPM     S1 1245   5.668   1.158   7.101  0.1293  0.0770  0.0523
   35BDD     C1 1246   5.996   1.061   7.415 -0.1039  0.0311 -0.1416
   35BDD     C2 1247   6.002   1.186   7.472 -0.1278  0.0115 -0.0956
   35BDD     C3 1248   5.921   1.285   7.403 -0.3016 -0.0231  0.0570
   35BDD     C4 1249   5.854   1.234   7.295 -0.4079 -0.0294  0.1252
   35BDD     S1 1250   5.888   1.060   7.272 -0.2974  0.0076  0.0030
   35BDD     C5 1251   6.083   1.218   7.591  0.0085  0.0238 -0.1904
   35BDD     C6 1252   5.913   1.426   7.447 -0.3560 -0.0488  0.1296
   35BDD     O1 1253   5.843   1.511   7.387 -0.5058 -0.0786  0.2611
   35BDD     O2 1254   6.152   1.133   7.651  0.1582  0.0536 -0.3220
   35BDD     C7 1255   5.994   1.458   7.566 -0.2197 -0.0364  0.0349
   35BDD     C8 1256   6.075   1.359   7.635 -0.0460 -0.0018 -0.1178
   35BDD     C9 1257   6.141   1.409   7.743  0.0601  0.0044 -0.1860
   35BDD     S2 1258   6.108   1.584   7.766 -0.0502 -0.0326 -0.0637
   35BDD    C10 1259   6.000   1.582   7.623 -0.2437 -0.0561  0.0808
   35BDD    C11 1260   5.927   1.706   7.578 -0.1648  0.2457  0.0820
   35BDD    C12 1261   5.848   1.784   7.680 -0.4785  0.5078 -0.5231
   35BDD    C13 1262   5.839   1.932   7.648  0.3462 -0.3879  0.4831
   35BDD    C14 1263   5.963   2.018   7.625  0.3523 -0.2817 -0.7486
   35BDD    C15 1264   6.079   2.045   7.727 -0.2213  1.0460  0.3552
   35BDD    C16 1265   6.177   2.137   7.657  0.5140  0.1252 -0.0656
   35BDD    C17 1266   5.734   1.706   7.745  0.0072  0.7757 -0.4670
   35BDD    C18 1267   5.607   1.704   7.672 -0.0030 -0.2539  0.6004
   35BDD    C19 1268   6.216   1.334   7.855  0.1320 -0.8370 -0.5628
   35BDD    C20 1269   6.140   1.326   7.996 -0.1726 -0.0610 -0.2531
   35BDD    C21 1270   6.219   1.221   8.081 -0.5858 -0.0893  0.4350
   35BDD    C22 1271   6.175   1.186   8.219 -0.0920 -0.1364  0.3189
   35BDD    C23 1272   6.276   1.106   8.303 -0.1214 -0.3452 -0.3093
   35BDD    C24 1273   6.309   0.962   8.269 -0.4567  0.1735 -0.1047
   35BDD    C25 1274   6.095   1.454   8.073 -0.0951  0.5352 -0.6877
   35BDD    C26 1275   6.210   1.548   8.112  0.1140  0.1403  0.1116
   36TPM     C1 1276   6.052   0.926   7.440 -0.5939 -0.2859  0.1726
   36TPM     C2 1277   6.047   0.876   7.566 -1.0358 -0.3569  0.1303
   36TPM     C3 1278   6.065   0.733   7.573 -0.9975 -0.3530  0.1150
   36TPM     C4 1279   6.083   0.675   7.451 -0.5265 -0.2790  0.1455
   36TPM     S1 1280   6.079   0.796   7.318 -0.0912 -0.2079  0.1964
   37BDTP    C1 1281   6.144   0.066   7.307  0.0055 -0.0057  0.2216
   37BDTP    C2 1282   6.170   0.068   7.447 -0.0234  0.0171  0.2269
   37BDTP    C3 1283   6.167   0.185   7.522  0.0207  0.0389  0.1955
   37BDTP    C4 1284   6.136   0.305   7.457  0.0966  0.0380  0.1572
   37BDTP    C5 1285   6.109   0.303   7.317  0.1253  0.0151  0.1520
   37BDTP    C6 1286   6.113   0.187   7.241  0.0815 -0.0066  0.1833
   37BDTP    C7 1287   6.126   0.438   7.514  0.1527  0.0581  0.1202
   37BDTP    C8 1288   6.094   0.535   7.425  0.2215  0.0514  0.0881
   37BDTP    S1 1289   6.071   0.471   7.256  0.2246  0.0188  0.1000
   37BDTP    C9 1290   6.153  -0.066   7.250 -0.0508 -0.0257  0.2586
   37BDTP   C10 1291   6.186  -0.163   7.339 -0.1194 -0.0191  0.2908
   37BDTP    S2 1292   6.208  -0.100   7.508 -0.1225  0.0137  0.2787
   38FTM     S1 1293   6.274   0.304   7.762  0.1179 -0.0503  0.0405
   38FTM     C1 1294   6.229   0.225   7.917  0.1297 -0.0742  0.0317
   38FTM     C2 1295   6.154   0.114   7.892 -0.1434  0.1101  0.0335
   38FTM     C3 1296   6.127   0.086   7.754 -0.3729  0.2771  0.0417
   38FTM     C4 1297   6.184   0.177   7.671 -0.2723  0.2187  0.0462
   38FTM     F1 1298   6.104   0.033   7.993 -0.2018  0.1385  0.0279
   38FTM     C5 1299   6.283   0.281   8.053  0.7667  0.9042 -0.2831
   38FTM     C6 1300   6.316   0.429   8.084 -0.3221 -0.0159 -0.3755
   38FTM     C7 1301   6.203   0.534   8.063  0.3740  0.0475 -0.0732
   38FTM     C8 1302   6.238   0.676   8.026 -0.2984 -0.4660 -0.1219
   38FTM     C9 1303   6.122   0.754   7.975  0.0490 -0.1594  0.0099
   38FTM    C10 1304   6.155   0.893   7.916 -0.1581 -0.3947 -0.1154
   38FTM    C11 1305   6.388   0.456   8.217 -0.1549 -0.8663 -0.2204
   38FTM    C12 1306   6.342   0.398   8.347  0.1785  0.1776  0.3569
   39FTM     S1 1307   6.023   0.077   6.987 -0.1339  0.2774 -0.0621
   39FTM     C1 1308   6.079   0.162   6.838  0.1079  0.4827  0.1448
   39FTM     C2 1309   6.155   0.269   6.872  0.3750  0.2117  0.4083
   39FTM     C3 1310   6.175   0.291   7.013  0.4070 -0.1631  0.4642
   39FTM     C4 1311   6.111   0.197   7.088  0.1564 -0.1796  0.2358
   39FTM     F1 1312   6.212   0.353   6.778  0.6061  0.2868  0.6148
   39FTM     C5 1313   6.012   0.130   6.709 -0.1440  0.4802  0.1210
   39FTM     C6 1314   5.909   0.224   6.639  0.4334  0.5967  0.1426
   39FTM     C7 1315   5.778   0.264   6.712 -0.2604 -0.0118  0.3898
   39FTM     C8 1316   5.685   0.145   6.723  0.0746 -0.2898  0.2253
   39FTM     C9 1317   5.600   0.107   6.596 -0.2874 -0.0207 -0.1209
   39FTM    C10 1318   5.521  -0.021   6.615  0.5389 -0.2923 -0.1384
   39FTM    C11 1319   5.976   0.329   6.552  0.1089  0.2689 -0.7736
   39FTM    C12 1320   5.890   0.403   6.449 -0.5804 -0.4089 -0.2772
   40TPM     C1 1321   6.201  -0.305   7.305  0.2298 -0.3026 -0.0383
   40TPM     C2 1322   6.249  -0.359   7.189  0.0136 -0.6173  0.0154
   40TPM     C3 1323   6.269  -0.501   7.195 -0.3265 -0.6573  0.2418
   40TPM     C4 1324   6.236  -0.556   7.316 -0.3692 -0.3737  0.3608
   40TPM     S1 1325   6.177  -0.431   7.432  0.0197 -0.0310  0.1946
   41BDD     C1 1326   6.330  -0.877   7.515  0.2321 -0.0042 -0.0241
   41BDD     C2 1327   6.295  -0.924   7.391  0.1915  0.0088 -0.0173
   41BDD     C3 1328   6.260  -0.818   7.298  0.1025  0.0155  0.0231
   41BDD     C4 1329   6.269  -0.693   7.352  0.0766  0.0074  0.0463
   41BDD     S1 1330   6.323  -0.698   7.523  0.1616 -0.0088  0.0193
   41BDD     C5 1331   6.292  -1.067   7.354  0.2329  0.0157 -0.0474
   41BDD     C6 1332   6.218  -0.845   7.159  0.0464  0.0291  0.0372
   41BDD     O1 1333   6.188  -0.754   7.078 -0.0303  0.0346  0.0720
   41BDD     O2 1334   6.322  -1.158   7.435  0.3097  0.0103 -0.0823
   41BDD     C7 1335   6.215  -0.988   7.122  0.0880  0.0358  0.0070
   41BDD     C8 1336   6.250  -1.094   7.215  0.1770  0.0293 -0.0334
   41BDD     C9 1337   6.240  -1.219   7.161  0.2029  0.0372 -0.0566
   41BDD     S2 1338   6.187  -1.214   6.990  0.1178  0.0533 -0.0296
   41BDD    C10 1339   6.179  -1.035   6.998  0.0473  0.0484  0.0139
   41BDD    C11 1340   6.147  -0.972   6.867 -0.8376 -0.0383 -0.2221
   41BDD    C12 1341   6.013  -0.994   6.803  0.8386  0.1999  0.1248
   41BDD    C13 1342   5.897  -0.951   6.900 -0.2500  0.0719  0.1381
   41BDD    C14 1343   5.750  -0.973   6.864  0.0400  0.4215 -0.4739
   41BDD    C15 1344   5.667  -0.887   6.956  0.2675  0.1688  0.2281
   41BDD    C16 1345   5.530  -0.834   6.903  0.6018 -0.1344  0.2509
   41BDD    C17 1346   5.998  -0.942   6.661 -0.0608  0.1327  1.0249
   41BDD    C18 1347   6.104  -0.979   6.557 -0.4394 -0.0252 -0.0248
   41BDD    C19 1348   6.257  -1.361   7.222  0.6109 -0.0403 -0.6055
   41BDD    C20 1349   6.378  -1.447   7.184  0.1094  0.5398  0.7474
   41BDD    C21 1350   6.377  -1.508   7.035  0.1723 -0.2373  0.5375
   41BDD    C22 1351   6.279  -1.621   6.995  0.2334 -0.6491  0.2992
   41BDD    C23 1352   6.139  -1.572   6.940 -0.1047 -0.1122 -0.3186
   41BDD    C24 1353   6.053  -1.678   6.884  0.2609  0.6122  0.2992
   41BDD    C25 1354   6.414  -1.559   7.280  0.0517 -0.0273 -0.5767
   41BDD    C26 1355   6.452  -1.505   7.420  0.3437  0.1115 -0.1884
   42TPM     C1 1356   6.355  -0.936   7.647  0.5381  0.1069 -0.3345
   42TPM     C2 1357   6.425  -1.052   7.665  0.5937  0.1712 -0.1339
   42TPM     C3 1358   6.466  -1.074   7.801  0.1595  0.1750  0.0032
   42TPM     C4 1359   6.429  -0.975   7.887 -0.2271  0.1143 -0.0929
   42TPM     S1 1360   6.336  -0.845   7.801 -0.0716  0.0462 -0.3662
   43BDTP    C1 1361   6.626  -0.848   8.471  0.2561 -0.0823  0.1822
   43BDTP    C2 1362   6.623  -0.991   8.473  0.0352 -0.0761  0.2687
   43BDTP    C3 1363   6.585  -1.067   8.363 -0.0985 -0.0854  0.3195
   43BDTP    C4 1364   6.550  -0.999   8.245 -0.0103 -0.1009  0.2840
   43BDTP    C5 1365   6.553  -0.856   8.243  0.2105 -0.1068  0.1979
   43BDTP    C6 1366   6.591  -0.781   8.353  0.3441 -0.0980  0.1466
   43BDTP    C7 1367   6.508  -1.056   8.119 -0.1169 -0.1122  0.3242
   43BDTP    C8 1368   6.480  -0.964   8.023  0.0117 -0.1266  0.2730
   43BDTP    S1 1369   6.503  -0.793   8.079  0.2856 -0.1276  0.1664
   43BDTP    C9 1370   6.668  -0.791   8.597  0.3624 -0.0710  0.1419
   43BDTP   C10 1371   6.696  -0.883   8.693  0.2340 -0.0565  0.1931
   43BDTP    S2 1372   6.673  -1.054   8.637 -0.0401 -0.0559  0.2996
   44FTM     S1 1373   6.746  -1.294   8.433  0.1634 -0.0132 -0.0341
   44FTM     C1 1374   6.660  -1.452   8.423 -0.3648  0.2632  0.0704
   44FTM     C2 1375   6.532  -1.432   8.380 -0.2960  0.6595  0.0367
   44FTM     C3 1376   6.494  -1.296   8.354  0.1609  0.7694 -0.0699
   44FTM     C4 1377   6.596  -1.209   8.377  0.4513  0.4467 -0.1197
   44FTM     F1 1378   6.442  -1.536   8.363 -0.6424  0.9460  0.1006
   44FTM     C5 1379   6.736  -1.577   8.453  0.1001 -0.1381 -0.1499
   44FTM     C6 1380   6.788  -1.664   8.335 -0.9232 -0.0210  0.1401
   44FTM     C7 1381   6.853  -1.799   8.376  0.2641  0.1310 -0.2226
   44FTM     C8 1382   6.776  -1.882   8.482  0.2096 -0.7250  1.0070
   44FTM     C9 1383   6.844  -2.012   8.517  0.5350  0.2169  0.2149
   44FTM    C10 1384   6.774  -2.100   8.621 -0.1884  0.5957  0.1121
   44FTM    C11 1385   6.860  -1.593   8.218 -0.5210 -0.1786  0.5555
   44FTM    C12 1386   6.984  -1.497   8.245  0.8023  0.4083 -0.6395
   45FTM     S1 1387   6.456  -0.548   8.402  0.0475 -0.3005  0.0425
   45FTM     C1 1388   6.539  -0.393   8.364  0.2303 -0.4435 -0.1425
   45FTM     C2 1389   6.662  -0.418   8.312  0.2450 -0.6485 -0.0100
   45FTM     C3 1390   6.699  -0.556   8.299  0.1179 -0.7067  0.2372
   45FTM     C4 1391   6.600  -0.639   8.343  0.0023 -0.5398  0.2959
   45FTM     F1 1392   6.750  -0.317   8.274  0.3742 -0.7968 -0.1051
   45FTM     C5 1393   6.474  -0.271   8.407 -0.3335  0.0751  0.2485
   45FTM     C6 1394   6.399  -0.192   8.299  0.7940  0.0577 -0.0919
   45FTM     C7 1395   6.326  -0.251   8.179  0.6687  0.0704  0.6646
   45FTM     C8 1396   6.394  -0.322   8.065 -0.4001  0.0261  0.2261
   45FTM     C9 1397   6.289  -0.356   7.958  0.6186 -0.1834  0.3194
   45FTM    C10 1398   6.355  -0.397   7.822  0.3745  0.0350 -0.9918
   45FTM    C11 1399   6.323  -0.059   8.354 -0.2487  0.4713  0.0345
   45FTM    C12 1400   6.421   0.034   8.430  0.3820  0.2147 -0.5888
   46TPM     C1 1401   6.746  -0.850   8.820 -0.3060  0.0965  0.1684
   46TPM     C2 1402   6.789  -0.934   8.918 -0.5310  0.0834  0.2575
   46TPM     C3 1403   6.837  -0.866   9.036 -0.3923  0.0806  0.2036
   46TPM     C4 1404   6.830  -0.730   9.028 -0.0616  0.0922  0.0738
   46TPM     S1 1405   6.762  -0.677   8.869  0.1015  0.1067  0.0083
   47BDD     C1 1406   6.891  -0.613   9.400 -0.0415  0.0983  0.0274
   47BDD     C2 1407   6.774  -0.554   9.363 -0.0706  0.0319  0.0141
   47BDD     C3 1408   6.737  -0.580   9.225 -0.0968 -0.0811  0.0422
   47BDD     C4 1409   6.827  -0.659   9.158 -0.0870 -0.0992  0.0768
   47BDD     S1 1410   6.964  -0.705   9.264 -0.0447  0.0236  0.0765
   47BDD     C5 1411   6.691  -0.472   9.453 -0.0753  0.0701 -0.0253
   47BDD     C6 1412   6.613  -0.527   9.164 -0.1301 -0.1664  0.0339
   47BDD     O1 1413   6.581  -0.549   9.045 -0.1527 -0.2639  0.0584
   47BDD     O2 1414   6.723  -0.449   9.572 -0.0529  0.1678 -0.0496
   47BDD     C7 1415   6.530  -0.444   9.254 -0.1351 -0.1287 -0.0055
   47BDD     C8 1416   6.567  -0.418   9.392 -0.1088 -0.0157 -0.0339
   47BDD     C9 1417   6.477  -0.339   9.458 -0.1183  0.0024 -0.0682
   47BDD     S2 1418   6.340  -0.293   9.353 -0.1607 -0.1205 -0.0679
   47BDD    C10 1419   6.413  -0.385   9.217 -0.1639 -0.1950 -0.0188
   47BDD    C11 1420   6.341  -0.371   9.082 -0.1682  0.0709  0.0583
   47BDD    C12 1421   6.201  -0.426   9.055 -0.3656 -0.6011 -0.2617
   47BDD    C13 1422   6.146  -0.357   8.926 -0.0904  0.0050 -0.1163
   47BDD    C14 1423   6.210  -0.408   8.795  0.2833  0.2254  0.1397
   47BDD    C15 1424   6.184  -0.348   8.660 -0.0823 -0.2386  0.5029
   47BDD    C16 1425   6.041  -0.323   8.610 -0.2884  0.1441 -0.1930
   47BDD    C17 1426   6.188  -0.576   9.068 -0.1370 -0.1340 -0.5140
   47BDD    C18 1427   6.049  -0.634   9.070  0.1984 -0.3509  0.3644
   47BDD    C19 1428   6.476  -0.287   9.600 -0.3507  0.2397  0.3368
   47BDD    C20 1429   6.530  -0.138   9.608  0.3627  0.3190 -0.2289
   47BDD    C21 1430   6.457  -0.031   9.519 -0.5861  0.1781  0.2436
   47BDD    C22 1431   6.468   0.121   9.543 -0.2528 -0.5786  0.9245
   47BDD    C23 1432   6.391   0.202   9.441 -0.2310 -0.1554  0.0809
   47BDD    C24 1433   6.456   0.206   9.302 -0.0607  0.1547 -0.4276
   47BDD    C25 1434   6.557  -0.092   9.748  0.2545 -0.1388 -0.4860
   47BDD    C26 1435   6.654  -0.169   9.838  0.1793  0.2467 -0.2274
   48TPM     C1 1436   6.966  -0.630   9.526  0.3610  0.1193  0.1110
   48TPM     C2 1437   6.992  -0.524   9.608  0.5201 -0.1285  0.3827
   48TPM     C3 1438   7.089  -0.553   9.710  0.3290 -0.5944  0.4344
   48TPM     C4 1439   7.136  -0.681   9.707  0.0241 -0.7018  0.2024
   48TPM     S1 1440   7.061  -0.776   9.572 -0.0458 -0.2194 -0.1020
   49BDTP    C1 1441   7.555  -0.895  10.125 -0.0758 -0.1097  0.0465
   49BDTP    C2 1442   7.554  -0.999  10.027  0.1516  0.0083 -0.0812
   49BDTP    C3 1443   7.475  -0.993   9.913  0.1976  0.0117 -0.1127
   49BDTP    C4 1444   7.393  -0.880   9.894  0.0106 -0.1066 -0.0138
   49BDTP    C5 1445   7.394  -0.777   9.992 -0.2168 -0.2246  0.1140
   49BDTP    C6 1446   7.473  -0.782  10.107 -0.2628 -0.2281  0.1455
   49BDTP    C7 1447   7.304  -0.852   9.784  0.0158 -0.1270 -0.0231
   49BDTP    C8 1448   7.238  -0.734   9.794 -0.1942 -0.2532  0.0899
   49BDTP    S1 1449   7.280  -0.642   9.945 -0.4278 -0.3636  0.2242
   49BDTP    C9 1450   7.644  -0.923  10.236 -0.0808 -0.0892  0.0559
   49BDTP   C10 1451   7.710  -1.041  10.225  0.1291  0.0367 -0.0571
   49BDTP    S2 1452   7.668  -1.133  10.074  0.3628  0.1475 -0.1914
   50FTM     S1 1453   7.320  -1.174   9.746  0.2689 -0.0227  0.1444
   50FTM     C1 1454   7.415  -1.299   9.657 -0.0834 -0.3771  0.2572
   50FTM     C2 1455   7.547  -1.286   9.686 -0.0055 -0.4883 -0.0405
   50FTM     C3 1456   7.582  -1.181   9.777  0.3253 -0.3095 -0.3665
   50FTM     C4 1457   7.473  -1.111   9.819  0.5062 -0.0525 -0.3169
   50FTM     F1 1458   7.645  -1.368   9.632 -0.2288 -0.7589 -0.0354
   50FTM     C5 1459   7.342  -1.402   9.575  0.0926  0.5653 -0.0692
   50FTM     C6 1460   7.334  -1.550   9.621 -0.0160 -0.1495  0.2777
   50FTM     C7 1461   7.463  -1.630   9.584  0.0611  0.5620 -0.4188
   50FTM     C8 1462   7.502  -1.660   9.441 -0.1141  0.1905 -0.2701
   50FTM     C9 1463   7.380  -1.708   9.356 -0.1496  0.0464  0.4429
   50FTM    C10 1464   7.408  -1.722   9.209 -0.0787 -0.4761 -0.5362
   50FTM    C11 1465   7.275  -1.574   9.760  0.1116  0.8104  0.0469
   50FTM    C12 1466   7.239  -1.725   9.787  0.6066  0.3629 -0.0354
   51FTM     S1 1467   7.617  -0.596  10.266 -0.0004  0.2013 -0.3890
   51FTM     C1 1468   7.516  -0.482  10.363  0.4010 -0.1828  0.5046
   51FTM     C2 1469   7.385  -0.503  10.336  0.2599 -0.2899  1.2262
   51FTM     C3 1470   7.355  -0.606  10.240 -0.1589 -0.0851  1.1304
   51FTM     C4 1471   7.468  -0.666  10.193 -0.3445  0.1881  0.3087
   51FTM     F1 1472   7.283  -0.430  10.396  0.5014 -0.5801  2.0162
   51FTM     C5 1473   7.575  -0.418  10.487  0.5944 -0.5841  0.5269
   51FTM     C6 1474   7.720  -0.377  10.489 -0.3812 -0.2147  0.4439
   51FTM     C7 1475   7.829  -0.485  10.505  0.4435 -0.1123 -0.3219
   51FTM     C8 1476   7.813  -0.582  10.621 -0.1124  0.5224 -0.0741
   51FTM     C9 1477   7.904  -0.710  10.634  0.4290  0.3354 -0.0222
   51FTM    C10 1478   7.883  -0.792  10.765 -0.0032 -0.3623  0.0253
   51FTM    C11 1479   7.749  -0.262  10.387  0.0805  0.2824 -0.5704
   51FTM    C12 1480   7.877  -0.185  10.405 -0.6443 -0.1280 -0.6877
   52TPM     C1 1481   7.822  -1.084  10.301 -0.0758 -0.5605  0.1071
   52TPM     C2 1482   7.848  -1.067  10.434 -0.0259 -0.5000  0.0892
   52TPM     C3 1483   7.985  -1.096  10.470  0.1179 -0.0012 -0.0376
   52TPM     C4 1484   8.062  -1.135  10.365  0.1778  0.3182 -0.1164
   52TPM     S1 1485   7.969  -1.139  10.211  0.0561  0.0118 -0.0359
   53BDD     C1 1486   8.395  -1.337  10.326  0.0860 -0.0527 -0.1054
   53BDD     C2 1487   8.416  -1.253  10.432  0.0384 -0.0694 -0.0826
   53BDD     C3 1488   8.303  -1.167  10.462  0.0339 -0.0567 -0.1353
   53BDD     C4 1489   8.197  -1.186  10.378  0.0783 -0.0307 -0.1976
   53BDD     S1 1490   8.231  -1.313  10.256  0.1283 -0.0205 -0.1944
   53BDD     C5 1491   8.542  -1.249  10.510 -0.0048 -0.0978 -0.0115
   53BDD     C6 1492   8.305  -1.069  10.573 -0.0136 -0.0710 -0.1221
   53BDD     O1 1493   8.207  -0.995  10.599 -0.0176 -0.0601 -0.1676
   53BDD     O2 1494   8.639  -1.324  10.484 -0.0010 -0.1087  0.0340
   53BDD     C7 1495   8.430  -1.066  10.651 -0.0572 -0.0992 -0.0510
   53BDD     C8 1496   8.543  -1.152  10.621 -0.0527 -0.1118  0.0018
   53BDD     C9 1497   8.650  -1.132  10.705 -0.0970 -0.1380  0.0640
   53BDD     S2 1498   8.615  -1.006  10.827 -0.1472 -0.1485  0.0608
   53BDD    C10 1499   8.452  -0.982  10.757 -0.1047 -0.1159 -0.0282
   53BDD    C11 1500   8.376  -0.865  10.817  0.0261  0.0622 -0.2679
   53BDD    C12 1501   8.279  -0.884  10.935 -0.7560 -0.1608 -0.4907
   53BDD    C13 1502   8.327  -0.972  11.056  0.0697  0.6117  0.0892
   53BDD    C14 1503   8.452  -0.934  11.125 -0.6929  0.5513 -0.7464
   53BDD    C15 1504   8.489  -1.041  11.233 -0.3754 -0.4075 -0.2493
   53BDD    C16 1505   8.592  -0.991  11.335 -0.3863  0.2340 -0.0093
   53BDD    C17 1506   8.233  -0.737  10.969  0.1732 -0.1004 -0.1395
   53BDD    C18 1507   8.128  -0.720  11.085 -0.7141 -0.2799 -0.0392
   53BDD    C19 1508   8.786  -1.194  10.718  0.5358  0.0689  0.7206
   53BDD    C20 1509   8.789  -1.337  10.784 -0.2090 -0.3861  0.3356
   53BDD    C21 1510   8.719  -1.362  10.919  0.3228  0.3389  1.0815
   53BDD    C22 1511   8.782  -1.302  11.041  0.0145 -0.1866 -0.0925
   53BDD    C23 1512   8.752  -1.387  11.163  0.6073  0.0779  0.6159
   53BDD    C24 1513   8.794  -1.329  11.299 -0.1607  0.3177 -0.3251
   53BDD    C25 1514   8.924  -1.408  10.771 -0.0993 -0.0547  0.0305
   53BDD    C26 1515   9.000  -1.405  10.638 -0.4355 -0.0079  0.5316
   54TPM     C1 1516   8.470  -1.448  10.266  0.1442  0.0072  0.3000
   54TPM     C2 1517   8.591  -1.420  10.208  0.0329  0.0231  0.0729
   54TPM     C3 1518   8.638  -1.524  10.121 -0.1159  0.0272 -0.0135
   54TPM     C4 1519   8.554  -1.631  10.112 -0.1182  0.0146  0.1479
   54TPM     S1 1520   8.407  -1.609  10.214  0.0691 -0.0032  0.4235
   55BDTP    C1 1521   8.589  -2.158   9.758 -0.0050 -0.1070  0.0046
   55BDTP    C2 1522   8.724  -2.141   9.800  0.0138 -0.0824 -0.0672
   55BDTP    C3 1523   8.766  -2.035   9.879  0.0365 -0.0749 -0.0890
   55BDTP    C4 1524   8.669  -1.941   9.919  0.0403 -0.0925 -0.0377
   55BDTP    C5 1525   8.534  -1.958   9.877  0.0212 -0.1174  0.0340
   55BDTP    C6 1526   8.493  -2.064   9.798 -0.0015 -0.1249  0.0559
   55BDTP    C7 1527   8.688  -1.823  10.001  0.0625 -0.0891 -0.0477
   55BDTP    C8 1528   8.575  -1.751  10.022  0.0603 -0.1098  0.0123
   55BDTP    S1 1529   8.429  -1.823   9.941  0.0308 -0.1369  0.0900
   55BDTP    C9 1530   8.570  -2.276   9.676 -0.0269 -0.1107  0.0146
   55BDTP   C10 1531   8.683  -2.348   9.655 -0.0250 -0.0899 -0.0455
   55BDTP    S2 1532   8.830  -2.276   9.735  0.0046 -0.0630 -0.1231
   56FTM     S1 1533   8.974  -2.163  10.012 -0.3827  0.1162 -0.1811
   56FTM     C1 1534   9.139  -2.091   9.995 -0.3757  0.1533  0.0365
   56FTM     C2 1535   9.131  -1.972   9.930 -0.3493  0.2921  0.2860
   56FTM     C3 1536   8.999  -1.930   9.891 -0.3335  0.3761  0.3223
   56FTM     C4 1537   8.904  -2.021   9.927 -0.3483  0.2991  0.0931
   56FTM     F1 1538   9.242  -1.894   9.902 -0.3381  0.3514  0.4963
   56FTM     C5 1539   9.262  -2.154  10.049 -0.0124 -0.5816  0.0207
   56FTM     C6 1540   9.253  -2.281  10.121 -0.3831  0.0399  0.3781
   56FTM     C7 1541   9.232  -2.409  10.029 -0.2313  0.0683 -0.0690
   56FTM     C8 1542   9.316  -2.438   9.901 -0.2936  0.7262 -0.5474
   56FTM     C9 1543   9.315  -2.587   9.862 -0.3944  0.2450 -0.2566
   56FTM    C10 1544   9.425  -2.638   9.775 -0.2785  0.0216  0.5503
   56FTM    C11 1545   9.373  -2.291  10.220  0.2580  0.3663 -0.2006
   56FTM    C12 1546   9.364  -2.400  10.323  0.3618  0.2817 -0.1316
   57FTM     S1 1547   8.287  -2.114   9.605  0.0401 -0.1714  0.2908
   57FTM     C1 1548   8.126  -2.158   9.671 -0.2849  0.3026 -0.1682
   57FTM     C2 1549   8.129  -2.157   9.807 -0.7949  0.7325 -0.1519
   57FTM     C3 1550   8.255  -2.122   9.866 -0.9603  0.7200  0.2093
   57FTM     C4 1551   8.351  -2.096   9.773 -0.5637  0.2655  0.4787
   57FTM     F1 1552   8.019  -2.187   9.885 -1.1425  1.1631 -0.4640
   57FTM     C5 1553   8.017  -2.207   9.580 -0.4140 -0.8319 -0.6015
   57FTM     C6 1554   7.931  -2.109   9.496 -0.4541  0.0167  0.2609
   57FTM     C7 1555   7.858  -1.998   9.569  0.2250 -0.0051 -0.1197
   57FTM     C8 1556   7.749  -2.022   9.671  0.1370 -0.7307 -0.6347
   57FTM     C9 1557   7.604  -2.050   9.626  0.0028  0.2068 -0.3424
   57FTM    C10 1558   7.494  -2.045   9.730 -0.2114 -0.2304 -0.1761
   57FTM    C11 1559   7.993  -2.045   9.373  0.3410 -0.0465  0.6201
   57FTM    C12 1560   8.082  -2.130   9.282  0.1407 -0.2358  0.9746
   58TPM     C1 1561   8.702  -2.465   9.577  0.2810 -0.0842 -0.3514
   58TPM     C2 1562   8.816  -2.509   9.515 -0.0186 -0.1074 -0.8957
   58TPM     C3 1563   8.796  -2.624   9.432 -0.4396 -0.1061 -0.8006
   58TPM     C4 1564   8.667  -2.669   9.431 -0.4608 -0.0820 -0.1840
   58TPM     S1 1565   8.560  -2.568   9.535  0.0531 -0.0589  0.3287
   59BDD     C1 1566   8.459  -2.852   9.156 -0.2108 -0.0282 -0.0478
   59BDD     C2 1567   8.569  -2.931   9.176 -0.1924  0.0062 -0.0143
   59BDD     C3 1568   8.660  -2.878   9.276 -0.2077  0.0668 -0.0324
   59BDD     C4 1569   8.618  -2.760   9.331 -0.2377  0.0775 -0.0792
   59BDD     S1 1570   8.462  -2.706   9.260 -0.2487  0.0126 -0.1040
   59BDD     C5 1571   8.594  -3.058   9.105 -0.1600 -0.0154  0.0350
   59BDD     C6 1572   8.785  -2.947   9.315 -0.1922  0.1115 -0.0026
   59BDD     O1 1573   8.863  -2.901   9.401 -0.2053  0.1636 -0.0181
   59BDD     O2 1574   8.516  -3.104   9.019 -0.1469 -0.0676  0.0508
   59BDD     C7 1575   8.810  -3.074   9.243 -0.1595  0.0900  0.0470
   59BDD     C8 1576   8.720  -3.127   9.143 -0.1442  0.0294  0.0648
   59BDD     C9 1577   8.761  -3.245   9.089 -0.1144  0.0186  0.1116
   59BDD     S2 1578   8.917  -3.298   9.160 -0.1034  0.0834  0.1363
   59BDD    C10 1579   8.920  -3.152   9.264 -0.1411  0.1243  0.0801
   59BDD    C11 1580   9.039  -3.141   9.358 -0.2407 -0.1310 -0.0623
   59BDD    C12 1581   9.178  -3.093   9.303  0.3097 -0.6661  0.3610
   59BDD    C13 1582   9.197  -2.960   9.218  0.2193  0.0218  0.0400
   59BDD    C14 1583   9.162  -2.822   9.289  0.1714  0.6240  0.1213
   59BDD    C15 1584   9.251  -2.773   9.407 -0.0808  0.9192  0.2899
   59BDD    C16 1585   9.180  -2.662   9.482  0.1735  0.3831  0.8994
   59BDD    C17 1586   9.283  -3.194   9.253 -0.3895  0.1458 -0.3149
   59BDD    C18 1587   9.300  -3.333   9.319 -0.2716  0.4624 -1.1133
   59BDD    C19 1588   8.693  -3.342   8.994  0.0989  0.5290  0.1422
   59BDD    C20 1589   8.646  -3.471   9.051  0.1622 -0.2646  0.2326
   59BDD    C21 1590   8.743  -3.590   9.068  0.3081 -0.3139 -0.0888
   59BDD    C22 1591   8.849  -3.626   8.964 -0.6650 -0.1519 -0.3858
   59BDD    C23 1592   8.913  -3.771   8.996  0.6140  0.1236 -0.3243
   59BDD    C24 1593   8.969  -3.833   8.871 -0.4014  0.6360 -0.4671
   59BDD    C25 1594   8.541  -3.469   9.164  0.4425  0.4103  0.4196
   59BDD    C26 1595   8.421  -3.371   9.173 -0.4473  0.4181 -0.1379
   60TPM     C1 1596   8.343  -2.849   9.068  0.1709  0.2124 -0.1391
   60TPM     C2 1597   8.278  -2.962   9.026  0.1481  0.1837 -0.0267
   60TPM     C3 1598   8.161  -2.935   8.946  0.2494  0.1254 -0.1948
   60TPM     C4 1599   8.137  -2.802   8.927  0.3491  0.1100 -0.4354
   60TPM     S1 1600   8.261  -2.700   9.009  0.3237  0.1679 -0.4682
    1BDTP    C1 1601   2.055   3.882   1.634  0.1974 -0.0667  0.3756
    1BDTP    C2 1602   1.939   3.800   1.643  0.1591 -0.0360  0.1488
    1BDTP    C3 1603   1.945   3.662   1.660  0.0910 -0.0600 -0.0126
    1BDTP    C4 1604   2.072   3.603   1.670  0.0592 -0.1169  0.0523
    1BDTP    C5 1605   2.188   3.685   1.662  0.0976 -0.1477  0.2791
    1BDTP    C6 1606   2.182   3.822   1.644  0.1656 -0.1236  0.4405
    1BDTP    C7 1607   2.104   3.462   1.688 -0.0106 -0.1509 -0.0849
    1BDTP    C8 1608   2.236   3.435   1.694 -0.0262 -0.2048  0.0263
    1BDTP    S1 1609   2.340   3.584   1.677  0.0452 -0.2202  0.3207
    1BDTP    C9 1610   2.024   4.022   1.616  0.2672 -0.0329  0.5128
    1BDTP   C10 1611   1.891   4.049   1.610  0.2829  0.0211  0.4015
    1BDTP    S2 1612   1.788   3.901   1.627  0.2115  0.0366  0.1072
    2FTM     S1 1613   1.788   3.423   1.630  0.2910 -0.0198  0.2992
    2FTM     C1 1614   1.639   3.412   1.732  0.4554  0.1239  0.5568
    2FTM     C2 1615   1.625   3.526   1.805  0.4265  0.3472  0.2107
    2FTM     C3 1616   1.727   3.626   1.788  0.2783  0.4185 -0.2644
    2FTM     C4 1617   1.821   3.587   1.698  0.1909  0.2440 -0.2826
    2FTM     F1 1618   1.520   3.546   1.893  0.5326  0.5003  0.3035
    2FTM     C5 1619   1.552   3.287   1.738 -0.3752 -0.1880 -0.0987
    2FTM     C6 1620   1.554   3.188   1.865 -0.1435  0.2488  0.4647
    2FTM     C7 1621   1.457   3.207   1.984  0.0621  0.2451  0.0114
    2FTM     C8 1622   1.312   3.231   1.945  0.3937  0.6199 -0.2957
    2FTM     C9 1623   1.226   3.318   2.035  0.0545  0.2086  0.0712
    2FTM    C10 1624   1.090   3.356   1.968 -0.1663  0.2779  0.0693
    2FTM    C11 1625   1.686   3.119   1.903 -0.4817  0.0202 -0.0190
    2FTM    C12 1626   1.764   3.045   1.799  0.4866 -0.2417  0.0392
    3FTM     S1 1627   2.333   4.027   1.522  0.0648 -0.1575 -0.0507
    3FTM     C1 1628   2.475   4.088   1.615 -0.3425  0.2671  0.3006
    3FTM     C2 1629   2.492   4.013   1.727 -0.4982  0.4287  0.4339
    3FTM     C3 1630   2.399   3.906   1.747 -0.3146  0.2366  0.2748
    3FTM     C4 1631   2.307   3.899   1.647 -0.0084 -0.0823  0.0111
    3FTM     F1 1632   2.594   4.037   1.818 -0.8160  0.7598  0.7080
    3FTM     C5 1633   2.567   4.187   1.560 -0.3796 -0.0515  0.1581
    3FTM     C6 1634   2.629   4.161   1.426 -0.4236 -0.1233 -0.1399
    3FTM     C7 1635   2.716   4.034   1.412  0.5355 -0.0949  0.0631
    3FTM     C8 1636   2.858   4.046   1.462  0.0219  0.6163 -0.6490
    3FTM     C9 1637   2.932   3.916   1.484 -0.2337 -0.5492  0.4571
    3FTM    C10 1638   3.063   3.929   1.554 -0.6135  0.1971 -0.0183
    3FTM    C11 1639   2.542   4.189   1.304  0.3454 -1.2359 -0.2545
    3FTM    C12 1640   2.506   4.336   1.281  0.3842  0.2792  0.2685
    4TPM     C1 1641   1.826   4.174   1.580 -0.0843  0.1846  0.4374
    4TPM     C2 1642   1.705   4.224   1.618 -0.1189  0.2003  0.3069
    4TPM     C3 1643   1.680   4.357   1.570 -0.2136  0.0565 -0.0460
    4TPM     C4 1644   1.781   4.409   1.495 -0.2511 -0.0689 -0.1846
    4TPM     S1 1645   1.918   4.293   1.480 -0.1691 -0.0145  0.1223
    5BDD     C1 1646   1.917   4.768   1.411  0.0329 -0.0884  0.0510
    5BDD     C2 1647   1.788   4.769   1.367  0.0301 -0.0731  0.0592
    5BDD     C3 1648   1.716   4.646   1.394  0.0109 -0.0569  0.0821
    5BDD     C4 1649   1.792   4.552   1.459 -0.0008 -0.0602  0.0910
    5BDD     S1 1650   1.958   4.612   1.491  0.0115 -0.0837  0.0713
    5BDD     C5 1651   1.726   4.884   1.297  0.0451 -0.0728  0.0464
    5BDD     C6 1652   1.575   4.625   1.354  0.0047 -0.0386  0.0944
    5BDD     O1 1653   1.513   4.519   1.377 -0.0118 -0.0247  0.1142
    5BDD     O2 1654   1.787   4.990   1.274  0.0617 -0.0867  0.0266
    5BDD     C7 1655   1.513   4.740   1.284  0.0198 -0.0384  0.0816
    5BDD     C8 1656   1.585   4.863   1.257  0.0390 -0.0546  0.0587
    5BDD     C9 1657   1.509   4.957   1.192  0.0507 -0.0514  0.0498
    5BDD     S2 1658   1.343   4.897   1.160  0.0384 -0.0279  0.0695
    5BDD    C10 1659   1.384   4.741   1.240  0.0170 -0.0230  0.0899
    5BDD    C11 1660   1.263   4.651   1.246  0.2702 -0.4265  0.6472
    5BDD    C12 1661   1.200   4.604   1.377  0.0157 -0.4000 -0.6323
    5BDD    C13 1662   1.121   4.708   1.461 -0.0570 -0.5829 -0.2152
    5BDD    C14 1663   1.199   4.829   1.514  0.6716  0.8165 -0.4212
    5BDD    C15 1664   1.119   4.892   1.633 -0.3471 -0.1556 -0.1743
    5BDD    C16 1665   1.182   5.007   1.699 -0.1207  0.2546  0.4272
    5BDD    C17 1666   1.120   4.477   1.352  0.0578 -0.3084 -0.9179
    5BDD    C18 1667   1.097   4.378   1.467 -1.0061 -0.1639 -0.4539
    5BDD    C19 1668   1.546   5.088   1.121 -0.6615  0.1514 -0.5566
    5BDD    C20 1669   1.523   5.079   0.968 -0.1107 -0.3076  0.1692
    5BDD    C21 1670   1.595   4.959   0.896 -0.0859  0.0390  0.1500
    5BDD    C22 1671   1.572   4.935   0.746  0.5318  0.3586  0.0827
    5BDD    C23 1672   1.424   4.886   0.708 -0.4920  0.3106 -0.3674
    5BDD    C24 1673   1.402   4.882   0.560 -0.1200 -0.5437  0.0131
    5BDD    C25 1674   1.535   5.216   0.899 -0.5038 -0.8485 -0.8198
    5BDD    C26 1675   1.659   5.297   0.896 -0.4298  0.3035  0.2812
    6TPM     C1 1676   2.031   4.861   1.420 -0.1988  0.3762 -0.0087
    6TPM     C2 1677   2.060   4.961   1.332  0.0982  0.2916 -0.0100
    6TPM     C3 1678   2.188   5.024   1.355  0.3211 -0.1361 -0.0561
    6TPM     C4 1679   2.256   4.972   1.461  0.1939 -0.3775 -0.0901
    6TPM     S1 1680   2.164   4.839   1.540 -0.2204 -0.0810 -0.0662
    7BDTP    C1 1681   2.821   5.162   1.661  0.0893 -0.2047 -0.2232
    7BDTP    C2 1682   2.791   5.052   1.748 -0.0667 -0.0304 -0.0530
    7BDTP    C3 1683   2.673   4.980   1.739 -0.1574  0.1056  0.0407
    7BDTP    C4 1684   2.580   5.017   1.641 -0.0914  0.0685 -0.0367
    7BDTP    C5 1685   2.609   5.126   1.555  0.0644 -0.1059 -0.2069
    7BDTP    C6 1686   2.727   5.199   1.563  0.1551 -0.2420 -0.3006
    7BDTP    C7 1687   2.451   4.957   1.614 -0.1627  0.1880  0.0350
    7BDTP    C8 1688   2.383   5.015   1.512 -0.0690  0.1127 -0.0716
    7BDTP    S1 1689   2.472   5.155   1.437  0.1226 -0.1203 -0.2780
    7BDTP    C9 1690   2.950   5.222   1.689  0.1604 -0.3241 -0.2950
    7BDTP   C10 1691   3.018   5.163   1.790  0.0668 -0.2487 -0.1883
    7BDTP    S2 1692   2.928   5.024   1.865 -0.1248 -0.0160  0.0181
    8FTM     S1 1693   2.776   4.735   1.823  0.2587  0.0804 -0.0752
    8FTM     C1 1694   2.685   4.647   1.952  0.3498  0.1961  0.0687
    8FTM     C2 1695   2.574   4.717   1.986  0.3946  0.2460  0.1122
    8FTM     C3 1696   2.553   4.841   1.916  0.3616  0.1984  0.0381
    8FTM     C4 1697   2.651   4.866   1.825  0.2891  0.1093 -0.0655
    8FTM     F1 1698   2.485   4.674   2.083  0.4682  0.3380  0.2217
    8FTM     C5 1699   2.750   4.522   2.010  0.1095 -0.4263  0.2762
    8FTM     C6 1700   2.703   4.381   1.965 -0.2727  0.2690 -0.1859
    8FTM     C7 1701   2.756   4.255   2.042  0.6325 -0.2091  0.3791
    8FTM     C8 1702   2.705   4.244   2.187 -0.1080 -1.0648  0.2110
    8FTM     C9 1703   2.557   4.214   2.199  0.4741  0.2963  0.3322
    8FTM    C10 1704   2.508   4.071   2.152 -0.4127 -0.5194  0.5741
    8FTM    C11 1705   2.702   4.364   1.815  0.1549 -0.2681  1.0495
    8FTM    C12 1706   2.842   4.360   1.735 -0.2468  0.3109  0.4092
    9FTM     S1 1707   2.874   5.305   1.341 -0.0931 -0.0992 -0.2491
    9FTM     C1 1708   2.839   5.476   1.296 -0.1719 -0.1530 -0.3921
    9FTM     C2 1709   2.742   5.526   1.376 -0.2519 -0.1556 -0.4868
    9FTM     C3 1710   2.690   5.437   1.476 -0.2567 -0.1168 -0.4546
    9FTM     C4 1711   2.749   5.315   1.472 -0.1778 -0.0835 -0.3314
    9FTM     F1 1712   2.694   5.656   1.365 -0.3256 -0.1932 -0.6081
    9FTM     C5 1713   2.914   5.552   1.187 -0.0482 -0.2093 -0.3180
    9FTM     C6 1714   2.872   5.533   1.040 -0.2148 -0.3959 -0.3735
    9FTM     C7 1715   2.950   5.630   0.950 -0.1978  0.2754  0.3036
    9FTM     C8 1716   2.909   5.776   0.945 -0.1817 -0.5742  0.4963
    9FTM     C9 1717   2.915   5.836   0.807  0.2195 -0.3595  0.3642
    9FTM    C10 1718   2.875   5.987   0.814  0.4656  0.9263 -0.3554
    9FTM    C11 1719   2.881   5.397   0.988 -0.1494  0.4063 -0.8468
    9FTM    C12 1720   2.819   5.364   0.850 -0.1194 -0.3093  0.2986
   10TPM     C1 1721   3.155   5.191   1.838  0.1344  0.2259 -0.2891
   10TPM     C2 1722   3.228   5.121   1.928  0.1876  0.1429 -0.3964
   10TPM     C3 1723   3.358   5.178   1.954  0.0432  0.3468 -0.1158
   10TPM     C4 1724   3.383   5.292   1.884 -0.1203  0.5850  0.2055
   10TPM     S1 1725   3.244   5.336   1.778 -0.1043  0.5703  0.1782
   11BDD     C1 1726   3.742   5.399   2.015 -0.0550 -0.0930  0.1557
   11BDD     C2 1727   3.694   5.510   1.952 -0.0514 -0.1141  0.1162
   11BDD     C3 1728   3.563   5.489   1.891  0.0023 -0.1674  0.0189
   11BDD     C4 1729   3.515   5.363   1.909  0.0388 -0.1863 -0.0145
   11BDD     S1 1730   3.628   5.261   2.004  0.0086 -0.1386  0.0737
   11BDD     C5 1731   3.765   5.639   1.945 -0.0973 -0.0858  0.1666
   11BDD     C6 1732   3.492   5.596   1.817  0.0153 -0.1976 -0.0375
   11BDD     O1 1733   3.380   5.578   1.765  0.0616 -0.2437 -0.1214
   11BDD     O2 1734   3.877   5.657   1.997 -0.1436 -0.0398  0.2505
   11BDD     C7 1735   3.563   5.725   1.810 -0.0305 -0.1694  0.0129
   11BDD     C8 1736   3.694   5.746   1.871 -0.0842 -0.1161  0.1102
   11BDD     C9 1737   3.742   5.872   1.853 -0.1208 -0.0972  0.1436
   11BDD     S2 1738   3.629   5.974   1.759 -0.0906 -0.1449  0.0555
   11BDD    C10 1739   3.515   5.836   1.747 -0.0269 -0.1904 -0.0265
   11BDD    C11 1740   3.387   5.868   1.679  0.2389  0.6805 -0.2679
   11BDD    C12 1741   3.393   5.938   1.543 -0.3590 -0.0713  0.7203
   11BDD    C13 1742   3.249   5.981   1.494 -0.4398 -0.0779  0.3673
   11BDD    C14 1743   3.229   6.050   1.353  0.0791 -0.2590 -0.1816
   11BDD    C15 1744   3.315   6.174   1.333 -0.2809 -0.4276  0.7478
   11BDD    C16 1745   3.298   6.251   1.204 -0.3158  0.0694  0.8383
   11BDD    C17 1746   3.485   5.860   1.440  0.9389  0.1600  0.8783
   11BDD    C18 1747   3.436   5.737   1.370 -0.4071  0.6692  0.5331
   11BDD    C19 1748   3.872   5.943   1.901  0.5988  0.0144 -0.0603
   11BDD    C20 1749   3.999   5.947   1.816  0.0108  0.0675  0.4892
   11BDD    C21 1750   4.113   6.025   1.884  0.6358 -0.0970  0.2927
   11BDD    C22 1751   4.165   5.967   2.017  0.1197 -0.5559 -0.6382
   11BDD    C23 1752   4.206   5.822   2.022 -0.1779 -0.3072 -0.3290
   11BDD    C24 1753   4.245   5.795   2.166  0.7530 -0.0857  0.3159
   11BDD    C25 1754   3.962   5.989   1.674  0.9593 -0.0769 -0.1826
   11BDD    C26 1755   4.067   6.004   1.568  0.5747 -0.0520  0.3872
   12TPM     C1 1756   3.855   5.369   2.105 -0.1324  0.0768  0.1777
   12TPM     C2 1757   3.984   5.394   2.071 -0.1416  0.0885  0.1511
   12TPM     C3 1758   4.081   5.342   2.164 -0.1107 -0.0840  0.0232
   12TPM     C4 1759   4.025   5.276   2.270 -0.0776 -0.2273 -0.0476
   12TPM     S1 1760   3.845   5.276   2.259 -0.0833 -0.1547  0.0424
   13BDTP    C1 1761   4.352   5.033   2.749 -0.0250 -0.1534 -0.0865
   13BDTP    C2 1762   4.221   4.984   2.775 -0.0254 -0.1730 -0.1245
   13BDTP    C3 1763   4.113   5.013   2.693 -0.0161 -0.1456 -0.1271
   13BDTP    C4 1764   4.135   5.094   2.580 -0.0060 -0.0970 -0.0904
   13BDTP    C5 1765   4.266   5.143   2.554 -0.0058 -0.0776 -0.0525
   13BDTP    C6 1766   4.374   5.114   2.636 -0.0151 -0.1046 -0.0499
   13BDTP    C7 1767   4.038   5.137   2.481  0.0044 -0.0619 -0.0854
   13BDTP    C8 1768   4.090   5.215   2.383  0.0126 -0.0174 -0.0460
   13BDTP    S1 1769   4.268   5.245   2.402  0.0081 -0.0139 -0.0096
   13BDTP    C9 1770   4.449   4.990   2.848 -0.0356 -0.1885 -0.0916
   13BDTP   C10 1771   4.397   4.912   2.946 -0.0437 -0.2329 -0.1311
   13BDTP    S2 1772   4.218   4.883   2.926 -0.0392 -0.2364 -0.1674
   14FTM     S1 1773   3.831   5.069   2.760 -0.0535 -0.0855  0.2011
   14FTM     C1 1774   3.728   4.922   2.780 -0.0395 -0.0518  0.5407
   14FTM     C2 1775   3.804   4.810   2.769 -0.1104 -0.0769  0.2759
   14FTM     C3 1776   3.944   4.830   2.746 -0.1783 -0.1224 -0.1957
   14FTM     C4 1777   3.976   4.963   2.739 -0.1587 -0.1330 -0.2953
   14FTM     F1 1778   3.751   4.682   2.780 -0.1181 -0.0600  0.4449
   14FTM     C5 1779   3.587   4.927   2.812  0.0227 -0.3030 -0.3173
   14FTM     C6 1780   3.467   4.932   2.711  0.3448  0.1724  0.4961
   14FTM     C7 1781   3.460   5.063   2.627 -0.1928 -0.0316  0.1810
   14FTM     C8 1782   3.566   5.078   2.508 -0.0123  0.5762  0.3015
   14FTM     C9 1783   3.575   4.962   2.410  0.0245 -0.2586  0.1729
   14FTM    C10 1784   3.669   4.990   2.295 -0.4030  0.4108  0.4538
   14FTM    C11 1785   3.336   4.877   2.781 -0.2279 -0.5468  0.5163
   14FTM    C12 1786   3.325   4.768   2.882 -0.4832  0.3498 -0.1164
   15FTM     S1 1787   4.583   5.114   2.439  0.0949 -0.1232 -0.0303
   15FTM     C1 1788   4.732   5.208   2.478 -0.0498  0.2221 -0.2918
   15FTM     C2 1789   4.720   5.264   2.601 -0.1416  0.5643 -0.4538
   15FTM     C3 1790   4.597   5.238   2.671 -0.1062  0.5784 -0.3860
   15FTM     C4 1791   4.512   5.160   2.599  0.0170  0.2358 -0.1649
   15FTM     F1 1792   4.819   5.342   2.658 -0.2632  0.8850 -0.6731
   15FTM     C5 1793   4.858   5.200   2.388  0.2544  0.4353 -0.9624
   15FTM     C6 1794   4.900   5.320   2.305  0.4214 -0.2054 -0.0160
   15FTM     C7 1795   4.924   5.463   2.367 -0.1485  0.2989 -0.0215
   15FTM     C8 1796   5.022   5.492   2.484  0.1875  0.2383 -0.3238
   15FTM     C9 1797   5.170   5.484   2.465 -0.1071  0.0121  0.3547
   15FTM    C10 1798   5.244   5.559   2.572 -0.5250 -0.5422  0.1441
   15FTM    C11 1799   4.976   5.287   2.180  0.4199 -0.3638  0.2340
   15FTM    C12 1800   5.121   5.266   2.198  0.3197 -0.5908  0.6909
   16TPM     C1 1801   4.472   4.865   3.055  0.0753  0.1405 -0.1683
   16TPM     C2 1802   4.433   4.761   3.134 -0.1488  0.2352 -0.1510
   16TPM     C3 1803   4.537   4.714   3.222 -0.3233  0.1827  0.0269
   16TPM     C4 1804   4.654   4.782   3.211 -0.2324  0.0481  0.1453
   16TPM     S1 1805   4.643   4.912   3.086  0.0833 -0.0237  0.0404
   17BDD     C1 1806   5.013   4.626   3.236 -0.1605  0.3705 -0.0931
   17BDD     C2 1807   4.961   4.612   3.362 -0.1024  0.2121 -0.0860
   17BDD     C3 1808   4.824   4.660   3.373 -0.2254 -0.1411 -0.0519
   17BDD     C4 1809   4.774   4.709   3.256 -0.3756 -0.2468 -0.0334
   17BDD     S1 1810   4.895   4.700   3.123 -0.3734  0.0888 -0.0575
   17BDD     C5 1811   5.035   4.554   3.476  0.0684  0.3793 -0.1103
   17BDD     C6 1812   4.748   4.654   3.500 -0.1895 -0.3611 -0.0388
   17BDD     O1 1813   4.630   4.695   3.509 -0.2956 -0.6658 -0.0094
   17BDD     O2 1814   5.152   4.513   3.466  0.1744  0.6839 -0.1398
   17BDD     C7 1815   4.822   4.596   3.614 -0.0187 -0.1937 -0.0632
   17BDD     C8 1816   4.958   4.548   3.603  0.1043  0.1595 -0.0973
   17BDD     C9 1817   5.008   4.499   3.720  0.2543  0.2650 -0.1158
   17BDD     S2 1818   4.888   4.508   3.852  0.2521 -0.0705 -0.0917
   17BDD    C10 1819   4.770   4.582   3.739  0.0392 -0.3524 -0.0561
   17BDD    C11 1820   4.649   4.633   3.805 -0.2638 -0.4192 -0.2648
   17BDD    C12 1821   4.528   4.542   3.800 -0.3433  0.9143  0.4855
   17BDD    C13 1822   4.409   4.620   3.865 -0.0263 -0.3172 -0.4962
   17BDD    C14 1823   4.275   4.558   3.841  0.0114 -0.1393  0.8448
   17BDD    C15 1824   4.166   4.651   3.888 -0.4341 -0.0463  0.2478
   17BDD    C16 1825   4.032   4.590   3.864  0.4365  0.0409  0.2352
   17BDD    C17 1826   4.540   4.391   3.847 -0.0840 -0.3724 -0.1928
   17BDD    C18 1827   4.542   4.370   4.003 -0.0833  0.3760 -0.2638
   17BDD    C19 1828   5.145   4.447   3.775  0.6242  0.1288  0.3362
   17BDD    C20 1829   5.201   4.316   3.719 -0.4196  0.6253  0.3613
   17BDD    C21 1830   5.110   4.190   3.728  0.2259  0.0213 -0.1797
   17BDD    C22 1831   5.098   4.119   3.865 -0.0543  0.3934 -0.5469
   17BDD    C23 1832   4.997   4.173   3.963 -0.0982 -0.1798 -0.1095
   17BDD    C24 1833   4.850   4.153   3.929  0.7905  0.5024 -0.3464
   17BDD    C25 1834   5.346   4.279   3.759 -0.1156 -0.3517 -0.3534
   17BDD    C26 1835   5.450   4.387   3.715 -0.0491 -0.1867 -0.3429
   18TPM     C1 1836   5.146   4.603   3.172  0.1076 -0.1732 -0.2868
   18TPM     C2 1837   5.203   4.479   3.180  0.0956 -0.1836 -0.3594
   18TPM     C3 1838   5.299   4.452   3.077  0.0798 -0.1391 -0.3860
   18TPM     C4 1839   5.316   4.555   2.989  0.0793 -0.0946 -0.3337
   18TPM     S1 1840   5.211   4.696   3.031  0.0994 -0.1057 -0.2462
   19BDTP    C1 1841   5.597   4.646   2.439 -0.0420  0.0314  0.1573
   19BDTP    C2 1842   5.596   4.504   2.450 -0.0416  0.0329  0.1765
   19BDTP    C3 1843   5.543   4.437   2.560 -0.0148  0.0485  0.1984
   19BDTP    C4 1844   5.490   4.515   2.665  0.0128  0.0632  0.2016
   19BDTP    C5 1845   5.491   4.657   2.654  0.0124  0.0618  0.1824
   19BDTP    C6 1846   5.543   4.723   2.544 -0.0142  0.0462  0.1606
   19BDTP    C7 1847   5.431   4.469   2.789  0.0430  0.0806  0.2226
   19BDTP    C8 1848   5.388   4.568   2.870  0.0653  0.0923  0.2203
   19BDTP    S1 1849   5.416   4.734   2.802  0.0508  0.0826  0.1910
   19BDTP    C9 1850   5.656   4.692   2.315 -0.0722  0.0139  0.1363
   19BDTP   C10 1851   5.699   4.592   2.234 -0.0944  0.0024  0.1386
   19BDTP    S2 1852   5.670   4.426   2.302 -0.0799  0.0121  0.1679
   20FTM     S1 1853   5.539   4.178   2.681 -0.4611  0.0771  0.0048
   20FTM     C1 1854   5.461   4.047   2.584 -0.4584  0.1200 -0.0561
   20FTM     C2 1855   5.419   4.096   2.465 -0.2834  0.1293 -0.1140
   20FTM     C3 1856   5.444   4.235   2.441 -0.1440  0.1041 -0.1146
   20FTM     C4 1857   5.508   4.294   2.546 -0.2147  0.0744 -0.0551
   20FTM     F1 1858   5.355   4.018   2.369 -0.2389  0.1612 -0.1700
   20FTM     C5 1859   5.465   3.896   2.616  0.0438  0.2788  0.1417
   20FTM     C6 1860   5.405   3.835   2.743  0.2972  0.5555  0.2302
   20FTM     C7 1861   5.251   3.848   2.768 -0.2289  0.0093  0.3272
   20FTM     C8 1862   5.160   3.800   2.650  0.1767  0.0598 -0.1239
   20FTM     C9 1863   5.008   3.824   2.660 -0.8693  1.0717 -0.5243
   20FTM    C10 1864   4.937   3.758   2.542 -0.4925 -0.3742 -0.3272
   20FTM    C11 1865   5.463   3.881   2.881  0.1122  0.8477  0.6611
   20FTM    C12 1866   5.617   3.874   2.906  0.7140 -0.7218 -0.1299
   21FTM     S1 1867   5.695   4.963   2.487  0.0824 -0.1016 -0.0675
   21FTM     C1 1868   5.607   5.119   2.499 -0.1118 -0.1866 -0.3688
   21FTM     C2 1869   5.479   5.097   2.541 -0.0288 -0.2480 -0.1463
   21FTM     C3 1870   5.443   4.961   2.565  0.1855 -0.2334  0.2621
   21FTM     C4 1871   5.547   4.875   2.542  0.2696 -0.1580  0.3554
   21FTM     F1 1872   5.387   5.200   2.559 -0.1423 -0.3214 -0.2994
   21FTM     C5 1873   5.669   5.254   2.443  0.4131 -0.0970 -0.5910
   21FTM     C6 1874   5.613   5.393   2.479 -0.2578 -0.0600 -0.5693
   21FTM     C7 1875   5.605   5.442   2.631 -0.3008  0.6250  0.4727
   21FTM     C8 1876   5.715   5.402   2.728 -0.1749 -0.2377  0.2746
   21FTM     C9 1877   5.712   5.479   2.859  0.1977  0.0702 -0.3669
   21FTM    C10 1878   5.729   5.629   2.854 -0.0276  0.1154  0.6159
   21FTM    C11 1879   5.686   5.497   2.391 -0.3485 -0.7868  0.1329
   21FTM    C12 1880   5.646   5.649   2.389 -0.0086  0.4966  0.1465
   22TPM     C1 1881   5.756   4.602   2.101 -0.1046  0.0769  0.1920
   22TPM     C2 1882   5.759   4.504   2.005 -0.4197  0.0732  0.1850
   22TPM     C3 1883   5.809   4.549   1.878 -0.6289  0.0119  0.0791
   22TPM     C4 1884   5.845   4.681   1.877 -0.4733 -0.0311  0.0053
   22TPM     S1 1885   5.818   4.759   2.037 -0.0470  0.0028  0.0643
   23BDD     C1 1886   5.790   4.945   1.583  0.0593  0.0308  0.0587
   23BDD     C2 1887   5.873   4.850   1.530  0.0614  0.0204  0.0805
   23BDD     C3 1888   5.908   4.745   1.623  0.0876  0.0585  0.1141
   23BDD     C4 1889   5.851   4.760   1.746  0.1049  0.0973  0.1175
   23BDD     S1 1890   5.749   4.907   1.754  0.0899  0.0889  0.0788
   23BDD     C5 1891   5.924   4.854   1.391  0.0395 -0.0252  0.0711
   23BDD     C6 1892   5.997   4.632   1.586  0.0943  0.0550  0.1416
   23BDD     O1 1893   6.027   4.541   1.667  0.1169  0.0877  0.1706
   23BDD     O2 1894   5.894   4.945   1.311  0.0168 -0.0579  0.0422
   23BDD     C7 1895   6.048   4.636   1.448  0.0725  0.0095  0.1323
   23BDD     C8 1896   6.013   4.742   1.354  0.0463 -0.0286  0.0987
   23BDD     C9 1897   6.071   4.727   1.231  0.0288 -0.0676  0.0953
   23BDD     S2 1898   6.172   4.579   1.224  0.0439 -0.0592  0.1339
   23BDD    C10 1899   6.131   4.542   1.394  0.0746 -0.0010  0.1540
   23BDD    C11 1900   6.205   4.421   1.451  0.6650 -0.4734  0.3328
   23BDD    C12 1901   6.114   4.296   1.438  0.2687 -0.3510 -0.4960
   23BDD    C13 1902   6.133   4.198   1.553 -0.7745  0.1474 -0.1352
   23BDD    C14 1903   6.016   4.114   1.597 -0.4726  0.6707  0.2102
   23BDD    C15 1904   5.900   4.199   1.646  0.2344  0.4549  0.6417
   23BDD    C16 1905   5.789   4.121   1.715  0.4818  0.4681  0.6913
   23BDD    C17 1906   6.072   4.238   1.305 -0.4538  0.0412 -0.1669
   23BDD    C18 1907   6.182   4.176   1.219 -0.5029  0.1535 -0.2725
   23BDD    C19 1908   6.077   4.818   1.105  0.5969  0.5885  0.1229
   23BDD    C20 1909   6.206   4.881   1.071 -0.0093  0.2672  0.1067
   23BDD    C21 1910   6.212   4.911   0.924 -0.0573 -0.4843  0.1335
   23BDD    C22 1911   6.341   4.923   0.843  0.5399 -0.1697  0.1751
   23BDD    C23 1912   6.431   4.798   0.847 -0.0734 -0.0812  0.3408
   23BDD    C24 1913   6.555   4.813   0.747  0.8705 -0.1557 -0.5515
   23BDD    C25 1914   6.259   4.991   1.165 -0.7692 -0.1345  0.7743
   23BDD    C26 1915   6.183   5.121   1.178 -0.0973 -0.0988  0.6493
   24TPM     C1 1916   5.725   5.071   1.541  0.2654 -0.1043  0.2648
   24TPM     C2 1917   5.650   5.135   1.636  0.4473 -0.1606  0.4480
   24TPM     C3 1918   5.591   5.257   1.590  0.2543 -0.1976  0.5955
   24TPM     C4 1919   5.620   5.288   1.460 -0.0746 -0.1699  0.5248
   24TPM     S1 1920   5.726   5.162   1.386 -0.1671 -0.0938  0.2643
   25BDTP    C1 1921   5.462   5.791   1.121  0.3319  0.0391 -0.1540
   25BDTP    C2 1922   5.434   5.684   1.032  0.3598  0.0511 -0.1771
   25BDTP    C3 1923   5.451   5.551   1.066  0.3017  0.0446 -0.1722
   25BDTP    C4 1924   5.499   5.522   1.195  0.2120  0.0254 -0.1429
   25BDTP    C5 1925   5.528   5.629   1.285  0.1842  0.0137 -0.1197
   25BDTP    C6 1926   5.510   5.762   1.250  0.2421  0.0199 -0.1248
   25BDTP    C7 1927   5.526   5.392   1.254  0.1399  0.0156 -0.1324
   25BDTP    C8 1928   5.572   5.396   1.381  0.0602 -0.0032 -0.1028
   25BDTP    S1 1929   5.588   5.565   1.445  0.0653 -0.0106 -0.0842
   25BDTP    C9 1930   5.436   5.921   1.063  0.4040  0.0491 -0.1646
   25BDTP   C10 1931   5.390   5.917   0.935  0.4836  0.0677 -0.1941
   25BDTP    S2 1932   5.373   5.747   0.871  0.4785  0.0751 -0.2128
   26FTM     S1 1933   5.297   5.319   1.013  0.1157 -0.0030 -0.1148
   26FTM     C1 1934   5.314   5.251   0.846 -0.0317 -0.0046 -0.1291
   26FTM     C2 1935   5.401   5.327   0.774 -0.3459  0.1892 -0.3123
   26FTM     C3 1936   5.459   5.439   0.842 -0.4879  0.3467 -0.4493
   26FTM     C4 1937   5.415   5.450   0.971 -0.2755  0.2713 -0.3685
   26FTM     F1 1938   5.434   5.299   0.642 -0.5237  0.2351 -0.3667
   26FTM     C5 1939   5.269   5.113   0.805  0.7353  0.1925 -0.7171
   26FTM     C6 1940   5.200   5.011   0.908 -0.1377 -0.4706 -0.2707
   26FTM     C7 1941   5.194   4.864   0.871 -0.4358  0.2271 -1.0540
   26FTM     C8 1942   5.325   4.790   0.881  0.8477 -0.3300 -0.0067
   26FTM     C9 1943   5.323   4.658   0.793 -0.1350  0.1256 -0.0671
   26FTM    C10 1944   5.466   4.608   0.785 -0.9479 -0.1073  0.1530
   26FTM    C11 1945   5.075   5.061   0.991  0.0040  0.0304 -0.1021
   26FTM    C12 1946   4.951   5.081   0.904  0.4290 -0.0834  0.1198
   27FTM     S1 1947   5.402   5.826   1.507 -0.0088 -0.3253 -0.0240
   27FTM     C1 1948   5.460   5.981   1.578  0.0392 -0.3534 -0.0021
   27FTM     C2 1949   5.542   6.044   1.490  0.0526 -0.3625  0.0035
   27FTM     C3 1950   5.564   5.977   1.365  0.0266 -0.3487 -0.0084
   27FTM     C4 1951   5.497   5.859   1.357 -0.0075 -0.3282 -0.0238
   27FTM     F1 1952   5.602   6.166   1.517  0.0890 -0.3842  0.0199
   27FTM     C5 1953   5.419   6.024   1.718 -0.0984  0.0112  0.0160
   27FTM     C6 1954   5.279   6.068   1.748  0.9689 -0.1285  0.0326
   27FTM     C7 1955   5.170   5.956   1.749  0.0458 -0.0969 -0.7184
   27FTM     C8 1956   5.188   5.842   1.852  0.3082  0.4356  0.8716
   27FTM     C9 1957   5.178   5.878   1.998 -0.6570  0.2836 -0.0183
   27FTM    C10 1958   5.232   5.765   2.072  0.5043  0.0591 -0.8152
   27FTM    C11 1959   5.226   6.199   1.687  0.1458 -0.3721  0.2462
   27FTM    C12 1960   5.314   6.331   1.683  0.0042  0.4600 -0.3492
   28TPM     C1 1961   5.372   6.024   0.848 -0.2182  0.2189 -0.3497
   28TPM     C2 1962   5.303   6.034   0.731 -0.2025  0.5857 -0.3307
   28TPM     C3 1963   5.320   6.160   0.664  0.0385  0.6886 -0.0796
   28TPM     C4 1964   5.402   6.247   0.730  0.2067  0.4005  0.0927
   28TPM     S1 1965   5.465   6.175   0.883  0.0727 -0.0264 -0.0497
   29BDD     C1 1966   5.405   6.589   0.540 -0.0252 -0.1017  0.1938
   29BDD     C2 1967   5.534   6.571   0.583 -0.0012 -0.0738  0.1339
   29BDD     C3 1968   5.552   6.448   0.658  0.0961 -0.1512 -0.0163
   29BDD     C4 1969   5.438   6.374   0.671  0.1446 -0.2367 -0.0685
   29BDD     S1 1970   5.299   6.454   0.590  0.0721 -0.2265  0.0665
   29BDD     C5 1971   5.644   6.666   0.557 -0.0666  0.0246  0.2123
   29BDD     C6 1972   5.683   6.408   0.713  0.1371 -0.1372 -0.1023
   29BDD     O1 1973   5.699   6.301   0.778  0.2210 -0.2037 -0.2317
   29BDD     O2 1974   5.628   6.772   0.492 -0.1506  0.0912  0.3418
   29BDD     C7 1975   5.794   6.502   0.687  0.0716 -0.0386 -0.0238
   29BDD     C8 1976   5.775   6.625   0.612 -0.0256  0.0386  0.1263
   29BDD     C9 1977   5.890   6.699   0.599 -0.0743  0.1241  0.1786
   29BDD     S2 1978   6.029   6.619   0.680 -0.0017  0.1140  0.0435
   29BDD    C10 1979   5.922   6.484   0.730  0.0957 -0.0108 -0.0838
   29BDD    C11 1980   5.997   6.365   0.799  0.1188 -0.5452  0.5417
   29BDD    C12 1981   6.040   6.393   0.947  0.1885  0.0322  0.1110
   29BDD    C13 1982   6.126   6.286   1.016  0.2905 -0.4437 -0.1113
   29BDD    C14 1983   6.267   6.256   0.964 -0.1937 -0.0653  0.8566
   29BDD    C15 1984   6.387   6.355   0.928 -0.0362 -0.2028 -0.3476
   29BDD    C16 1985   6.451   6.446   1.037  0.1391 -0.2882 -0.3754
   29BDD    C17 1986   5.926   6.436   1.037 -0.3417 -0.4971 -0.5195
   29BDD    C18 1987   5.820   6.335   1.083 -0.0844  0.2201  0.0648
   29BDD    C19 1988   5.923   6.836   0.543  0.0938 -0.1101 -0.3691
   29BDD    C20 1989   5.981   6.845   0.401  0.2187 -0.1584  0.0161
   29BDD    C21 1990   6.094   6.751   0.363 -0.4483 -0.0680  0.4770
   29BDD    C22 1991   6.232   6.780   0.420 -0.3095 -0.1187  0.6283
   29BDD    C23 1992   6.337   6.687   0.381  0.2200  0.0902  0.8718
   29BDD    C24 1993   6.476   6.709   0.431  0.6377 -0.6336  0.1391
   29BDD    C25 1994   6.002   6.994   0.348  0.4679  0.1619 -0.5437
   29BDD    C26 1995   5.868   7.076   0.340 -0.1343  0.8994 -0.1502
   30TPM     C1 1996   5.331   6.693   0.460 -0.0919 -0.3759  0.3944
   30TPM     C2 1997   5.366   6.824   0.453  0.0986 -0.4262  0.3815
   30TPM     C3 1998   5.279   6.903   0.369  0.3749 -0.3620  0.1528
   30TPM     C4 1999   5.178   6.831   0.312  0.3950 -0.2626 -0.0087
   30TPM     S1 2000   5.185   6.657   0.360  0.0640 -0.2423  0.1165
   31BDTP    C1 2001   4.721   7.006  -0.085 -0.3234  0.0863  0.0558
   31BDTP    C2 2002   4.769   7.131  -0.035 -0.0644  0.0409 -0.0734
   31BDTP    C3 2003   4.874   7.140   0.055  0.0182 -0.0770 -0.1564
   31BDTP    C4 2004   4.935   7.022   0.098 -0.1626 -0.1540 -0.1099
   31BDTP    C5 2005   4.888   6.897   0.048 -0.4216 -0.1088  0.0188
   31BDTP    C6 2006   4.783   6.887  -0.042 -0.5044  0.0091  0.1023
   31BDTP    C7 2007   5.045   7.006   0.191 -0.1220 -0.2795 -0.1784
   31BDTP    C8 2008   5.082   6.878   0.213 -0.3352 -0.3301 -0.1073
   31BDTP    S1 2009   4.983   6.758   0.119 -0.6177 -0.2258  0.0563
   31BDTP    C9 2010   4.611   7.021  -0.178 -0.3642  0.2116  0.1242
   31BDTP   C10 2011   4.574   7.150  -0.200 -0.1507  0.2620  0.0527
   31BDTP    S2 2012   4.673   7.269  -0.106  0.1316  0.1579 -0.1104
   32FTM     S1 2013   5.106   7.308   0.113 -0.3465 -0.2197  0.0603
   32FTM     C1 2014   5.069   7.483   0.133 -0.0305 -0.1419 -0.0162
   32FTM     C2 2015   4.934   7.502   0.131  0.0054  0.1080 -0.0870
   32FTM     C3 2016   4.854   7.385   0.113 -0.2056  0.2509 -0.0860
   32FTM     C4 2017   4.930   7.272   0.102 -0.4097  0.1053 -0.0121
   32FTM     F1 2018   4.875   7.627   0.144  0.2314  0.2223 -0.1568
   32FTM     C5 2019   5.188   7.574   0.144 -0.0123  0.0579 -0.2086
   32FTM     C6 2020   5.237   7.611   0.284 -0.2169  0.0699  0.5895
   32FTM     C7 2021   5.347   7.718   0.298 -0.0569  0.1473 -0.2252
   32FTM     C8 2022   5.307   7.865   0.275  0.0043  0.6431  0.4539
   32FTM     C9 2023   5.438   7.944   0.280  0.2473  0.0338 -0.6663
   32FTM    C10 2024   5.443   8.059   0.179 -0.1276  0.8031 -0.0623
   32FTM    C11 2025   5.271   7.495   0.375  0.0264 -0.0381  0.5362
   32FTM    C12 2026   5.384   7.393   0.351 -0.1336 -0.2720 -0.8192
   33FTM     S1 2027   4.790   6.699  -0.253  0.0579  0.2176 -0.0900
   33FTM     C1 2028   4.743   6.530  -0.210  0.0552  0.1861 -0.2176
   33FTM     C2 2029   4.700   6.525  -0.081  0.0640  0.0876 -0.2179
   33FTM     C3 2030   4.702   6.649  -0.009  0.0734  0.0321 -0.1221
   33FTM     C4 2031   4.747   6.753  -0.086  0.0714  0.0899 -0.0453
   33FTM     F1 2032   4.657   6.408  -0.021  0.0644  0.0420 -0.3059
   33FTM     C5 2033   4.753   6.416  -0.315 -0.4127 -0.3117 -0.2974
   33FTM     C6 2034   4.642   6.331  -0.377  0.6816  0.8816 -0.3819
   33FTM     C7 2035   4.520   6.406  -0.438 -0.4314 -0.6214  0.6046
   33FTM     C8 2036   4.537   6.500  -0.561  0.2663  0.3160 -0.0068
   33FTM     C9 2037   4.620   6.450  -0.679  0.5215 -0.4465 -0.2483
   33FTM    C10 2038   4.608   6.531  -0.801  0.2355  0.4807 -0.4127
   33FTM    C11 2039   4.583   6.215  -0.286  0.0878 -0.3954 -0.6493
   33FTM    C12 2040   4.671   6.107  -0.222  0.5787  0.7102 -0.5161
   34TPM     C1 2041   4.478   7.182  -0.301  0.0700 -0.2195 -0.6185
   34TPM     C2 2042   4.450   7.123  -0.420 -0.2482  0.5703 -0.9465
   34TPM     C3 2043   4.342   7.185  -0.492 -0.3456  1.1421 -0.3200
   34TPM     C4 2044   4.287   7.292  -0.426 -0.1018  0.7883  0.4856
   34TPM     S1 2045   4.369   7.322  -0.268  0.2726 -0.3032  0.5160
   35BDD     C1 2046   4.085   7.610  -0.520 -0.1900 -0.1104  0.1735
   35BDD     C2 2047   4.047   7.518  -0.613 -0.0653 -0.1067  0.1197
   35BDD     C3 2048   4.107   7.387  -0.593  0.0969 -0.0435  0.0544
   35BDD     C4 2049   4.189   7.381  -0.484  0.0936  0.0003  0.0594
   35BDD     S1 2050   4.198   7.539  -0.399 -0.1130 -0.0348  0.1462
   35BDD     C5 2051   3.955   7.546  -0.725 -0.0908 -0.1612  0.1264
   35BDD     C6 2052   4.081   7.272  -0.682  0.2495 -0.0286 -0.0105
   35BDD     O1 2053   4.132   7.159  -0.665  0.3895  0.0260 -0.0668
   35BDD     O2 2054   3.904   7.659  -0.743 -0.2307 -0.2158  0.1829
   35BDD     C7 2055   3.989   7.301  -0.794  0.2241 -0.0831 -0.0041
   35BDD     C8 2056   3.929   7.432  -0.815  0.0618 -0.1463  0.0613
   35BDD     C9 2057   3.847   7.437  -0.924  0.0651 -0.1900  0.0567
   35BDD     S2 2058   3.839   7.280  -1.009  0.2717 -0.1550 -0.0299
   35BDD    C10 2059   3.951   7.209  -0.888  0.3489 -0.0794 -0.0575
   35BDD    C11 2060   3.975   7.058  -0.903 -0.3738  0.0845 -0.1155
   35BDD    C12 2061   3.869   6.963  -0.851 -0.1303 -0.2092 -0.9456
   35BDD    C13 2062   3.918   6.823  -0.887  0.3767  0.1102 -0.1885
   35BDD    C14 2063   3.802   6.742  -0.948 -0.1444 -0.0642  0.1813
   35BDD    C15 2064   3.848   6.592  -0.963  0.1118 -0.7707 -0.5744
   35BDD    C16 2065   3.762   6.532  -1.069  0.6411  0.5920  0.4117
   35BDD    C17 2066   3.813   6.987  -0.705 -0.5328 -0.1778 -0.0627
   35BDD    C18 2067   3.899   6.963  -0.591 -0.0768 -0.2653 -0.8407
   35BDD    C19 2068   3.750   7.541  -0.986 -0.6084 -0.2546 -0.1659
   35BDD    C20 2069   3.601   7.510  -0.970 -0.0882  0.5864 -0.0920
   35BDD    C21 2070   3.552   7.496  -0.824  0.0399  0.1231  0.1669
   35BDD    C22 2071   3.547   7.612  -0.716 -0.2209  0.1047  0.5473
   35BDD    C23 2072   3.520   7.571  -0.573  0.4868 -0.2531  0.6562
   35BDD    C24 2073   3.374   7.539  -0.536  0.2595  0.2439  0.1753
   35BDD    C25 2074   3.521   7.615  -1.058  0.0582 -0.0165  0.1491
   35BDD    C26 2075   3.368   7.603  -1.074  0.5763 -0.1390  0.2262
   36TPM     C1 2076   4.078   7.757  -0.503  0.6339 -0.3095 -0.4277
   36TPM     C2 2077   3.960   7.824  -0.490  0.4367 -0.5900 -0.7541
   36TPM     C3 2078   3.975   7.962  -0.455  0.0069 -0.5736 -0.6211
   36TPM     C4 2079   4.105   8.002  -0.441 -0.1238 -0.2810 -0.1934
   36TPM     S1 2080   4.219   7.865  -0.471  0.2893 -0.0008  0.0768
   37BDTP    C1 2081   4.360   8.556  -0.294  0.1366 -0.2148 -0.0803
   37BDTP    C2 2082   4.442   8.463  -0.223  0.0979 -0.2527 -0.0856
   37BDTP    C3 2083   4.419   8.326  -0.225  0.0348 -0.2425 -0.0858
   37BDTP    C4 2084   4.311   8.278  -0.301  0.0083 -0.1922 -0.0801
   37BDTP    C5 2085   4.230   8.371  -0.372  0.0470 -0.1540 -0.0746
   37BDTP    C6 2086   4.252   8.508  -0.370  0.1102 -0.1643 -0.0748
   37BDTP    C7 2087   4.269   8.141  -0.319 -0.0558 -0.1724 -0.0793
   37BDTP    C8 2088   4.160   8.126  -0.399 -0.0671 -0.1221 -0.0732
   37BDTP    S1 2089   4.097   8.284  -0.463  0.0019 -0.0920 -0.0684
   37BDTP    C9 2090   4.403   8.693  -0.277  0.2007 -0.2341 -0.0815
   37BDTP   C10 2091   4.511   8.708  -0.197  0.2122 -0.2847 -0.0875
   37BDTP    S2 2092   4.574   8.550  -0.132  0.1431 -0.3147 -0.0925
   38FTM     S1 2093   4.483   8.073  -0.082  0.1244  0.0054  0.1991
   38FTM     C1 2094   4.656   8.029  -0.102  0.0805 -0.1318  0.1226
   38FTM     C2 2095   4.723   8.130  -0.163  0.1044 -0.2427 -0.0379
   38FTM     C3 2096   4.646   8.246  -0.197  0.1569 -0.2282 -0.1099
   38FTM     C4 2097   4.515   8.233  -0.160  0.1739 -0.1020 -0.0005
   38FTM     F1 2098   4.859   8.124  -0.192  0.0800 -0.3638 -0.1299
   38FTM     C5 2099   4.704   7.887  -0.058 -0.0691  0.2267  0.5399
   38FTM     C6 2100   4.720   7.767  -0.157  0.8928 -0.4070  0.5144
   38FTM     C7 2101   4.848   7.779  -0.251  0.6020 -0.0360 -0.3922
   38FTM     C8 2102   4.971   7.710  -0.198  0.2880 -0.7445 -0.9244
   38FTM     C9 2103   5.101   7.726  -0.278  0.0123 -0.0563 -1.0465
   38FTM    C10 2104   5.202   7.628  -0.216 -0.8097 -0.5166 -0.1757
   38FTM    C11 2105   4.595   7.722  -0.233  0.7243 -0.2888  0.6398
   38FTM    C12 2106   4.497   7.642  -0.149 -0.1365 -0.3841 -0.5328
   39FTM     S1 2107   4.126   8.554  -0.616  0.1968  0.0576 -0.0642
   39FTM     C1 2108   4.008   8.690  -0.623 -0.2156 -0.2857  0.1324
   39FTM     C2 2109   4.008   8.757  -0.504 -0.5015 -0.5236  0.2682
   39FTM     C3 2110   4.097   8.708  -0.404 -0.4193 -0.4551  0.2286
   39FTM     C4 2111   4.168   8.600  -0.446 -0.0585 -0.1555  0.0569
   39FTM     F1 2112   3.927   8.867  -0.480 -0.8546 -0.8173  0.4358
   39FTM     C5 2113   3.953   8.734  -0.755  0.8855 -0.1950  0.5231
   39FTM     C6 2114   3.804   8.745  -0.774 -0.3096 -0.6408  0.5839
   39FTM     C7 2115   3.767   8.822  -0.909  0.8047 -0.6218 -0.1444
   39FTM     C8 2116   3.798   8.975  -0.907 -0.0255  0.4217  0.6763
   39FTM     C9 2117   3.705   9.036  -1.015  0.0306 -0.2127 -0.0842
   39FTM    C10 2118   3.697   9.188  -1.014 -0.4535  0.2992 -0.5239
   39FTM    C11 2119   3.702   8.647  -0.723  0.7288  0.3138 -0.5305
   39FTM    C12 2120   3.731   8.495  -0.732  0.2043  0.0152 -0.0685
   40TPM     C1 2121   4.577   8.826  -0.148  0.0077 -0.0403  0.3923
   40TPM     C2 2122   4.633   8.839  -0.025  0.3563 -0.1571  0.2477
   40TPM     C3 2123   4.688   8.970  -0.000  0.5975 -0.2384  0.1476
   40TPM     C4 2124   4.673   9.056  -0.105  0.4328 -0.1835  0.2155
   40TPM     S1 2125   4.588   8.978  -0.243 -0.0435 -0.0236  0.4134
   41BDD     C1 2126   4.693   9.447  -0.150  0.1954 -0.1613 -0.2306
   41BDD     C2 2127   4.809   9.412  -0.087  0.1661 -0.1557 -0.1738
   41BDD     C3 2128   4.816   9.270  -0.056  0.0062 -0.0961  0.1421
   41BDD     C4 2129   4.706   9.200  -0.095 -0.0839 -0.0570  0.3212
   41BDD     S1 2130   4.585   9.306  -0.175  0.0252 -0.0927  0.1068
   41BDD     C5 2131   4.916   9.507  -0.053  0.2840 -0.2048 -0.4072
   41BDD     C6 2132   4.933   9.210   0.013 -0.0511 -0.0799  0.2551
   41BDD     O1 2133   4.939   9.088   0.040 -0.1889 -0.0284  0.5274
   41BDD     O2 2134   4.910   9.629  -0.080  0.4218 -0.2561 -0.6795
   41BDD     C7 2135   5.041   9.305   0.047  0.0666 -0.1287  0.0217
   41BDD     C8 2136   5.033   9.447   0.015  0.2265 -0.1884 -0.2942
   41BDD     C9 2137   5.143   9.517   0.055  0.3169 -0.2275 -0.4735
   41BDD     S2 2138   5.264   9.412   0.134  0.2078 -0.1919 -0.2591
   41BDD    C10 2139   5.157   9.270   0.110  0.0374 -0.1233  0.0787
   41BDD    C11 2140   5.226   9.141   0.147  0.2320 -0.0308 -0.3552
   41BDD    C12 2141   5.322   9.079   0.049 -0.3103 -0.1162  0.0626
   41BDD    C13 2142   5.400   8.959   0.105 -0.1498  0.5456  0.5334
   41BDD    C14 2143   5.356   8.819   0.062 -0.0603 -0.9096  0.8112
   41BDD    C15 2144   5.431   8.708   0.127 -0.4767 -0.4449 -0.0174
   41BDD    C16 2145   5.388   8.569   0.088 -0.2753 -0.3241 -0.2911
   41BDD    C17 2146   5.296   9.098  -0.105 -0.1595  0.1839  0.2105
   41BDD    C18 2147   5.402   9.064  -0.217 -0.2103  0.2973 -0.4643
   41BDD    C19 2148   5.185   9.660   0.026 -0.6350 -0.1058 -0.2704
   41BDD    C20 2149   5.250   9.687  -0.116  0.5475  0.5409 -0.2854
   41BDD    C21 2150   5.255   9.827  -0.170 -0.4417 -0.8914 -0.0430
   41BDD    C22 2151   5.128   9.907  -0.161 -0.5475  0.5513  0.2829
   41BDD    C23 2152   5.137  10.042  -0.233 -0.4013  0.5234 -0.0048
   41BDD    C24 2153   5.008  10.108  -0.271  0.1126 -0.1677  0.4317
   41BDD    C25 2154   5.369   9.589  -0.150  0.4059  0.3297  0.0843
   41BDD    C26 2155   5.423   9.592  -0.293  0.4464  0.1006  0.3045
   42TPM     C1 2156   4.630   9.571  -0.205  0.2309  0.1396 -0.0872
   42TPM     C2 2157   4.667   9.701  -0.184  0.0471  0.1960 -0.1101
   42TPM     C3 2158   4.572   9.797  -0.234 -0.2260  0.0525  0.1245
   42TPM     C4 2159   4.463   9.741  -0.293 -0.2507 -0.1137  0.3259
   42TPM     S1 2160   4.471   9.560  -0.290  0.0720 -0.1016  0.2345
   43BDTP    C1 2161   3.924  10.039  -0.409 -0.1122  0.0010  0.0200
   43BDTP    C2 2162   3.889   9.902  -0.427 -0.1605 -0.0091  0.1922
   43BDTP    C3 2163   3.980   9.799  -0.412 -0.1998 -0.0246  0.3355
   43BDTP    C4 2164   4.113   9.832  -0.379 -0.1915 -0.0305  0.3076
   43BDTP    C5 2165   4.148   9.969  -0.362 -0.1434 -0.0204  0.1354
   43BDTP    C6 2166   4.057  10.072  -0.376 -0.1039 -0.0049 -0.0078
   43BDTP    C7 2167   4.225   9.742  -0.359 -0.2264 -0.0462  0.4355
   43BDTP    C8 2168   4.341   9.805  -0.328 -0.2072 -0.0483  0.3684
   43BDTP    S1 2169   4.325   9.985  -0.320 -0.1420 -0.0308  0.1342
   43BDTP    C9 2170   3.812  10.129  -0.429 -0.0774  0.0167 -0.1078
   43BDTP   C10 2171   3.696  10.066  -0.460 -0.0966  0.0188 -0.0410
   43BDTP    S2 2172   3.712   9.885  -0.469 -0.1618  0.0013  0.1938
   44FTM     S1 2173   3.971   9.519  -0.341 -0.0754  0.0924 -0.1598
   44FTM     C1 2174   3.922   9.408  -0.474 -0.4170  0.0952 -0.0386
   44FTM     C2 2175   3.891   9.480  -0.585 -0.5248  0.0870 -0.0138
   44FTM     C3 2176   3.903   9.622  -0.574 -0.3527  0.0780 -0.0863
   44FTM     C4 2177   3.945   9.660  -0.450 -0.1049  0.0800 -0.1686
   44FTM     F1 2178   3.850   9.421  -0.704 -0.7858  0.0865  0.0753
   44FTM     C5 2179   3.920   9.262  -0.455 -0.0750  0.5303 -0.1742
   44FTM     C6 2180   4.050   9.184  -0.448 -0.0825 -0.3182 -0.2236
   44FTM     C7 2181   4.132   9.220  -0.319  0.3603  0.1806 -0.3388
   44FTM     C8 2182   4.092   9.147  -0.191  0.2674  0.1721  0.8710
   44FTM     C9 2183   4.127   9.002  -0.180  0.2298 -0.3905  1.0474
   44FTM    C10 2184   4.068   8.945  -0.053  0.0699 -0.2540 -0.7897
   44FTM    C11 2185   4.132   9.178  -0.572 -0.0556  0.0127  0.0532
   44FTM    C12 2186   4.072   9.128  -0.706  0.1849 -0.0492  0.0741
   45FTM     S1 2187   4.179  10.240  -0.186 -0.6430  0.2201  0.3041
   45FTM     C1 2188   4.233  10.400  -0.249 -0.2074 -0.0592 -0.0345
   45FTM     C2 2189   4.195  10.414  -0.379  0.5447 -0.5645 -0.3257
   45FTM     C3 2190   4.122  10.304  -0.436  0.8212 -0.7606 -0.3040
   45FTM     C4 2191   4.105  10.202  -0.346  0.2629 -0.3935  0.0147
   45FTM     F1 2192   4.223  10.527  -0.454  1.0272 -0.8795 -0.6294
   45FTM     C5 2193   4.316  10.487  -0.156  0.0384 -0.5359 -0.2917
   45FTM     C6 2194   4.473  10.490  -0.179  0.2141  0.0963  0.0561
   45FTM     C7 2195   4.551  10.607  -0.112  0.0936  0.0478 -0.3639
   45FTM     C8 2196   4.547  10.756  -0.149  0.2370 -0.5035 -0.7482
   45FTM     C9 2197   4.416  10.824  -0.148  0.3756 -0.4346  0.5048
   45FTM    C10 2198   4.439  10.967  -0.181 -0.0375 -0.2011 -0.6431
   45FTM    C11 2199   4.544  10.358  -0.182  0.0326  0.8150  0.7641
   45FTM    C12 2200   4.676  10.351  -0.232 -0.4236  0.5208 -0.3863
   46TPM     C1 2201   3.571  10.133  -0.493  0.2034 -0.0366 -0.1069
   46TPM     C2 2202   3.447  10.078  -0.504  0.2403 -0.1346 -0.0374
   46TPM     C3 2203   3.343  10.174  -0.527  0.1518 -0.2174  0.0172
   46TPM     C4 2204   3.387  10.303  -0.533  0.0474 -0.1825 -0.0104
   46TPM     S1 2205   3.566  10.313  -0.509  0.0528 -0.0413 -0.1087
   47BDD     C1 2206   3.216  10.661  -0.499 -0.2842  0.0078  0.1131
   47BDD     C2 2207   3.153  10.601  -0.604 -0.2472  0.0293  0.0784
   47BDD     C3 2208   3.200  10.466  -0.630 -0.1951  0.0572  0.0284
   47BDD     C4 2209   3.299  10.426  -0.544 -0.1934  0.0566  0.0263
   47BDD     S1 2210   3.339  10.554  -0.425 -0.2565  0.0210  0.0861
   47BDD     C5 2211   3.046  10.665  -0.684 -0.2582  0.0250  0.0896
   47BDD     C6 2212   3.146  10.382  -0.738 -0.1491  0.0835 -0.0145
   47BDD     O1 2213   3.187  10.266  -0.761 -0.1042  0.1076 -0.0577
   47BDD     O2 2214   3.005  10.781  -0.662 -0.3031  0.0010  0.1328
   47BDD     C7 2215   3.039  10.446  -0.819 -0.1602  0.0792 -0.0036
   47BDD     C8 2216   2.992  10.581  -0.793 -0.2122  0.0513  0.0463
   47BDD     C9 2217   2.893  10.621  -0.878 -0.2140  0.0519  0.0486
   47BDD     S2 2218   2.853  10.493  -0.997 -0.1507  0.0875 -0.0113
   47BDD    C10 2219   2.976  10.385  -0.924 -0.1230  0.1007 -0.0384
   47BDD    C11 2220   2.990  10.244  -0.988  0.0882 -0.7653 -0.6812
   47BDD    C12 2221   3.083  10.222  -1.102  0.4993 -0.1555 -0.4352
   47BDD    C13 2222   3.092  10.084  -1.149 -0.5059 -0.4337 -0.0858
   47BDD    C14 2223   3.127   9.976  -1.043 -0.1227  0.4318  0.5821
   47BDD    C15 2224   3.238   9.879  -1.082 -0.2087 -0.0034  0.5115
   47BDD    C16 2225   3.268   9.764  -0.986 -1.2709 -0.1195  0.4444
   47BDD    C17 2226   3.087  10.321  -1.219 -0.3552  0.1416  0.2071
   47BDD    C18 2227   2.959  10.351  -1.298  0.4397  0.2262 -0.0245
   47BDD    C19 2228   2.802  10.738  -0.885  0.0977 -0.5400 -0.1247
   47BDD    C20 2229   2.744  10.768  -1.027  0.2078  0.3493  0.5547
   47BDD    C21 2230   2.839  10.837  -1.125 -0.1361  0.7065 -0.1846
   47BDD    C22 2231   2.800  10.833  -1.266  0.0881 -1.0735  0.8219
   47BDD    C23 2232   2.913  10.897  -1.345  1.0058  0.3715 -0.9592
   47BDD    C24 2233   3.021  10.803  -1.400 -0.4185 -0.9116  0.1247
   47BDD    C25 2234   2.610  10.842  -1.020  0.8323 -0.9321 -0.5862
   47BDD    C26 2235   2.487  10.791  -0.952  0.0872 -0.5591 -0.4369
   48TPM     C1 2236   3.203  10.783  -0.427  0.3307 -0.2366  0.0895
   48TPM     C2 2237   3.215  10.782  -0.291  0.3620 -0.1380  0.0882
   48TPM     C3 2238   3.180  10.907  -0.229  0.3072 -0.1146  0.0110
   48TPM     C4 2239   3.142  11.004  -0.317  0.2342 -0.1954 -0.0465
   48TPM     S1 2240   3.147  10.944  -0.488  0.2289 -0.3081 -0.0070
   49BDTP    C1 2241   3.072  11.617  -0.193 -0.2255 -0.0359 -0.0803
   49BDTP    C2 2242   3.021  11.555  -0.075 -0.2138 -0.0378 -0.0761
   49BDTP    C3 2243   3.017  11.417  -0.058 -0.1594 -0.0365 -0.0544
   49BDTP    C4 2244   3.067  11.337  -0.162 -0.1141 -0.0331 -0.0350
   49BDTP    C5 2245   3.118  11.398  -0.280 -0.1257 -0.0313 -0.0396
   49BDTP    C6 2246   3.121  11.536  -0.297 -0.1802 -0.0326 -0.0614
   49BDTP    C7 2247   3.073  11.192  -0.167 -0.0543 -0.0312 -0.0111
   49BDTP    C8 2248   3.126  11.143  -0.281 -0.0208 -0.0280  0.0029
   49BDTP    S1 2249   3.175  11.273  -0.399 -0.0604 -0.0270 -0.0126
   49BDTP    C9 2250   3.065  11.762  -0.188 -0.2853 -0.0379 -0.1044
   49BDTP   C10 2251   3.012  11.811  -0.073 -0.3187 -0.0411 -0.1183
   49BDTP    S2 2252   2.963  11.681   0.044 -0.2792 -0.0420 -0.1031
   50FTM     S1 2253   3.068  11.402   0.226  0.0804 -0.2414  0.0036
   50FTM     C1 2254   2.960  11.289   0.315  0.1219 -0.4062 -0.1522
   50FTM     C2 2255   2.875  11.228   0.229  0.3040 -0.4967 -0.2681
   50FTM     C3 2256   2.888  11.264   0.091  0.4195 -0.4447 -0.2433
   50FTM     C4 2257   2.987  11.356   0.071  0.3228 -0.3099 -0.1040
   50FTM     F1 2258   2.780  11.136   0.269  0.3768 -0.6320 -0.4035
   50FTM     C5 2259   2.964  11.288   0.460  0.3491 -0.3737  0.2445
   50FTM     C6 2260   2.844  11.346   0.545  0.0616  0.2853 -0.0925
   50FTM     C7 2261   2.792  11.482   0.514 -0.1920  0.0524  0.3290
   50FTM     C8 2262   2.702  11.503   0.390 -0.0128  0.1711 -0.8797
   50FTM     C9 2263   2.581  11.413   0.370  0.2752  0.5811 -0.1458
   50FTM    C10 2264   2.495  11.469   0.260 -0.1005  0.5180  0.0321
   50FTM    C11 2265   2.850  11.310   0.692  0.2731 -0.0263 -0.1078
   50FTM    C12 2266   2.714  11.322   0.761  0.7721 -0.6068  0.0087
   51FTM     S1 2267   3.104  11.522  -0.592 -0.3370  0.1207 -0.2132
   51FTM     C1 2268   3.164  11.670  -0.675  0.0933 -0.0989 -0.3005
   51FTM     C2 2269   3.208  11.760  -0.583  0.1928 -0.1038 -0.3433
   51FTM     C3 2270   3.199  11.721  -0.446 -0.0534  0.0591 -0.3123
   51FTM     C4 2271   3.145  11.596  -0.432 -0.3513  0.1931 -0.2431
   51FTM     F1 2272   3.260  11.884  -0.618  0.5130 -0.2559 -0.4137
   51FTM     C5 2273   3.153  11.680  -0.822 -0.6236 -0.2109 -0.5408
   51FTM     C6 2274   3.211  11.573  -0.916 -1.2501 -0.0122  0.5186
   51FTM     C7 2275   3.169  11.603  -1.055  0.6040 -0.1285 -0.2829
   51FTM     C8 2276   3.023  11.589  -1.091  0.0456  0.0378  0.0665
   51FTM     C9 2277   3.010  11.625  -1.239  1.2819 -0.3246  0.1609
   51FTM    C10 2278   2.861  11.659  -1.272 -0.3324 -0.5035  0.2866
   51FTM    C11 2279   3.359  11.517  -0.910 -0.1516  0.1003 -0.1431
   51FTM    C12 2280   3.485  11.609  -0.942  0.2828 -0.4219 -0.1103
   52TPM     C1 2281   2.985  11.952  -0.038 -0.1662  0.2235  0.2978
   52TPM     C2 2282   2.951  11.995   0.087  0.0222  0.4856  0.2604
   52TPM     C3 2283   2.929  12.137   0.096  0.0218  0.5025 -0.0072
   52TPM     C4 2284   2.946  12.202  -0.023 -0.1669  0.2536 -0.1736
   52TPM     S1 2285   2.991  12.089  -0.155 -0.3602 -0.0240 -0.0042
   53BDD     C1 2286   2.812  12.551  -0.146 -0.1089 -0.0948  0.2378
   53BDD     C2 2287   2.851  12.573  -0.017 -0.0851 -0.0679  0.2258
   53BDD     C3 2288   2.907  12.455   0.047 -0.0063 -0.0356  0.2167
   53BDD     C4 2289   2.910  12.345  -0.034  0.0290 -0.0383  0.2215
   53BDD     S1 2290   2.843  12.381  -0.196 -0.0341 -0.0814  0.2382
   53BDD     C5 2291   2.838  12.703   0.052 -0.1340 -0.0710  0.2227
   53BDD     C6 2292   2.955  12.456   0.187  0.0313 -0.0033  0.2036
   53BDD     O1 2293   3.003  12.355   0.243  0.0992  0.0244  0.1957
   53BDD     O2 2294   2.790  12.804  -0.003 -0.2020 -0.0989  0.2306
   53BDD     C7 2295   2.942  12.586   0.256 -0.0178 -0.0064  0.2007
   53BDD     C8 2296   2.886  12.704   0.192 -0.0966 -0.0387  0.2096
   53BDD     C9 2297   2.883  12.814   0.273 -0.1317 -0.0361  0.2048
   53BDD     S2 2298   2.950  12.778   0.435 -0.0687  0.0070  0.1884
   53BDD    C10 2299   2.981  12.608   0.385  0.0061  0.0204  0.1888
   53BDD    C11 2300   3.056  12.532   0.486 -1.0174  0.7334 -0.1115
   53BDD    C12 2301   3.005  12.514   0.636 -0.1132 -0.5680  0.5255
   53BDD    C13 2302   3.121  12.495   0.741 -0.2805  0.0018  0.3914
   53BDD    C14 2303   3.216  12.615   0.758 -0.1568 -0.5904 -0.2818
   53BDD    C15 2304   3.162  12.759   0.776  0.0991  0.2334 -0.0865
   53BDD    C16 2305   3.270  12.866   0.736  0.2216 -0.1559 -0.5000
   53BDD    C17 2306   2.873  12.428   0.649  0.3465 -0.6116 -0.5121
   53BDD    C18 2307   2.874  12.279   0.633 -0.2388  0.3570  0.8817
   53BDD    C19 2308   2.830  12.949   0.257 -0.2801 -0.1146 -0.0331
   53BDD    C20 2309   2.930  13.059   0.246  0.1729  0.5950 -0.0613
   53BDD    C21 2310   2.852  13.187   0.269  0.3472  0.0999  0.2950
   53BDD    C22 2311   2.919  13.321   0.283 -0.5141 -0.4572  0.1607
   53BDD    C23 2312   2.844  13.444   0.231 -0.2387  0.0526 -0.7512
   53BDD    C24 2313   2.791  13.431   0.095  0.5851  0.2345  0.0661
   53BDD    C25 2314   3.026  13.048   0.123  0.7931 -0.6261  0.7275
   53BDD    C26 2315   2.969  13.070  -0.019  0.1029  0.5972  0.1303
   54TPM     C1 2316   2.747  12.627  -0.255  0.4140  0.1915 -0.4887
   54TPM     C2 2317   2.773  12.759  -0.278  0.2123  0.1991 -0.6773
   54TPM     C3 2318   2.732  12.804  -0.409 -0.1146  0.0194 -0.6397
   54TPM     C4 2319   2.675  12.707  -0.485 -0.1621 -0.1253 -0.4218
   54TPM     S1 2320   2.669  12.549  -0.398  0.2053 -0.0453 -0.2465
   55BDTP    C1 2321   2.478  12.722  -1.083  0.2868 -0.0637 -0.0286
   55BDTP    C2 2322   2.481  12.860  -1.050  0.2354 -0.0491 -0.0846
   55BDTP    C3 2323   2.523  12.907  -0.926  0.1966  0.0153 -0.0954
   55BDTP    C4 2324   2.564  12.812  -0.830  0.2087  0.0677 -0.0489
   55BDTP    C5 2325   2.561  12.674  -0.863  0.2600  0.0530  0.0072
   55BDTP    C6 2326   2.519  12.627  -0.987  0.2990 -0.0113  0.0179
   55BDTP    C7 2327   2.612  12.836  -0.695  0.1750  0.1381 -0.0495
   55BDTP    C8 2328   2.644  12.724  -0.627  0.1982  0.1765  0.0024
   55BDTP    S1 2329   2.619  12.572  -0.723  0.2660  0.1290  0.0598
   55BDTP    C9 2330   2.431  12.698  -1.218  0.3205 -0.1342 -0.0279
   55BDTP   C10 2331   2.398  12.810  -1.286  0.2974 -0.1727 -0.0799
   55BDTP    S2 2332   2.423  12.962  -1.190  0.2296 -0.1249 -0.1375
   56FTM     S1 2333   2.442  13.123  -0.763  0.1042 -0.3052 -0.2388
   56FTM     C1 2334   2.514  13.283  -0.805  0.1405 -0.2335  0.0911
   56FTM     C2 2335   2.596  13.270  -0.912  0.1161 -0.0251  0.0465
   56FTM     C3 2336   2.608  13.138  -0.967  0.0687  0.0889 -0.2396
   56FTM     C4 2337   2.532  13.047  -0.900  0.0566 -0.0365 -0.4207
   56FTM     F1 2338   2.665  13.377  -0.967  0.1351  0.0750  0.2625
   56FTM     C5 2339   2.502  13.397  -0.716 -0.1033 -0.7117 -0.3335
   56FTM     C6 2340   2.395  13.503  -0.724  0.5393 -0.4168  0.2512
   56FTM     C7 2341   2.381  13.586  -0.854  0.0183  1.4239  0.1817
   56FTM     C8 2342   2.501  13.640  -0.940  0.1958 -0.8240 -0.0877
   56FTM     C9 2343   2.460  13.697  -1.078 -1.2623  0.5947  0.1331
   56FTM    C10 2344   2.508  13.595  -1.190 -0.1675 -0.5197  0.5287
   56FTM    C11 2345   2.399  13.597  -0.598  0.5120 -0.0492 -0.0595
   56FTM    C12 2346   2.292  13.705  -0.581 -0.7703 -0.7308  0.0337
   57FTM     S1 2347   2.582  12.419  -1.175  0.1830 -0.3030 -0.1788
   57FTM     C1 2348   2.546  12.251  -1.122  0.2967 -0.3240 -0.1685
   57FTM     C2 2349   2.492  12.252  -0.997  0.0380 -0.3316 -0.2787
   57FTM     C3 2350   2.476  12.380  -0.936 -0.2573 -0.3216 -0.3755
   57FTM     C4 2351   2.519  12.481  -1.017 -0.2236 -0.3060 -0.3385
   57FTM     F1 2352   2.454  12.136  -0.931  0.0532 -0.3479 -0.2985
   57FTM     C5 2353   2.562  12.136  -1.215 -0.4873  0.1739  0.2660
   57FTM     C6 2354   2.669  12.024  -1.194  0.2688  0.2848 -0.3181
   57FTM     C7 2355   2.629  11.908  -1.092 -0.0874 -0.5453  0.4600
   57FTM     C8 2356   2.498  11.842  -1.118  0.0592  0.6343  0.0418
   57FTM     C9 2357   2.497  11.776  -1.251  0.1956 -0.2071  0.3907
   57FTM    C10 2358   2.358  11.738  -1.282 -0.5566 -0.1679  0.7299
   57FTM    C11 2359   2.820  12.061  -1.176 -0.4494  0.1149  0.2440
   57FTM    C12 2360   2.885  12.160  -1.272 -0.6379 -0.1950  0.6395
   58TPM     C1 2361   2.345  12.829  -1.422  0.1214  0.3026 -0.1336
   58TPM     C2 2362   2.257  12.927  -1.456  0.2826  0.3669 -0.3726
   58TPM     C3 2363   2.200  12.913  -1.587  0.2410  0.1274 -0.3283
   58TPM     C4 2364   2.245  12.802  -1.654  0.0481 -0.1195 -0.0559
   58TPM     S1 2365   2.363  12.708  -1.555 -0.0971 -0.0683  0.1678
   59BDD     C1 2366   2.097  12.768  -2.012  0.0448  0.0547  0.0190
   59BDD     C2 2367   2.062  12.654  -1.946  0.0522  0.0522  0.0185
   59BDD     C3 2368   2.112  12.650  -1.809  0.0858  0.0373  0.0057
   59BDD     C4 2369   2.183  12.761  -1.774  0.1035  0.0287 -0.0030
   59BDD     S1 2370   2.194  12.878  -1.909  0.0793  0.0387  0.0037
   59BDD     C5 2371   1.983  12.545  -2.005  0.0287  0.0634  0.0297
   59BDD     C6 2372   2.086  12.536  -1.719  0.0991  0.0322  0.0030
   59BDD     O1 2373   2.128  12.532  -1.601  0.1280  0.0193 -0.0079
   59BDD     O2 2374   1.940  12.548  -2.123 -0.0003  0.0762  0.0405
   59BDD     C7 2375   2.006  12.426  -1.778  0.0756  0.0433  0.0144
   59BDD     C8 2376   1.957  12.431  -1.914  0.0420  0.0582  0.0271
   59BDD     C9 2377   1.885  12.320  -1.950  0.0243  0.0668  0.0359
   59BDD     S2 2378   1.874  12.202  -1.815  0.0486  0.0567  0.0291
   59BDD    C10 2379   1.971  12.312  -1.711  0.0831  0.0407  0.0137
   59BDD    C11 2380   2.004  12.258  -1.576 -0.2630  0.0050 -0.4318
   59BDD    C12 2381   2.123  12.156  -1.558  0.5775 -0.2183  0.2528
   59BDD    C13 2382   2.116  12.028  -1.644 -0.1491 -0.2002  0.0188
   59BDD    C14 2383   2.209  11.906  -1.612  0.0502 -0.3026 -0.3067
   59BDD    C15 2384   2.175  11.775  -1.687  0.0286  0.2387 -0.2334
   59BDD    C16 2385   2.273  11.663  -1.659 -0.8385  0.3101 -0.3398
   59BDD    C17 2386   2.255  12.227  -1.562 -0.4421 -0.3144 -0.3006
   59BDD    C18 2387   2.300  12.314  -1.439 -0.0789  0.2070  0.1016
   59BDD    C19 2388   1.808  12.287  -2.076 -0.2149 -0.5638  0.3572
   59BDD    C20 2389   1.875  12.193  -2.180  0.5691  0.0592  0.3212
   59BDD    C21 2390   1.817  12.208  -2.329  0.4929  0.1316  0.2378
   59BDD    C22 2391   1.801  12.344  -2.393  0.3692 -0.1232  0.2520
   59BDD    C23 2392   1.727  12.342  -2.526 -0.1911 -0.3201  0.3131
   59BDD    C24 2393   1.752  12.466  -2.611 -0.2160  0.1043  0.2440
   59BDD    C25 2394   1.910  12.046  -2.139 -0.1595 -0.4605  0.5784
   59BDD    C26 2395   1.804  11.934  -2.124  0.3857  0.2618 -0.4802
   60TPM     C1 2396   2.072  12.837  -2.138 -0.0177  0.0360  0.1064
   60TPM     C2 2397   1.962  12.823  -2.217  0.0729 -0.1167  0.0061
   60TPM     C3 2398   1.956  12.917  -2.326  0.0167 -0.0929  0.0299
   60TPM     C4 2399   2.061  13.003  -2.330 -0.1166  0.0779  0.1485
   60TPM     S1 2400   2.178  12.972  -2.196 -0.1822  0.2231  0.2398
    1BDTP    C1 2401   3.454   0.115   7.993  0.2348  0.0307 -0.2111
    1BDTP    C2 2402   3.475   0.197   8.108 -0.0322  0.0839 -0.1979
    1BDTP    C3 2403   3.512   0.330   8.100 -0.2556  0.1480 -0.1743
    1BDTP    C4 2404   3.529   0.387   7.973 -0.2141  0.1604 -0.1637
    1BDTP    C5 2405   3.508   0.306   7.857  0.0528  0.1072 -0.1768
    1BDTP    C6 2406   3.471   0.172   7.865  0.2762  0.0430 -0.2003
    1BDTP    C7 2407   3.567   0.522   7.939 -0.4139  0.2226 -0.1396
    1BDTP    C8 2408   3.575   0.547   7.806 -0.3112  0.2188 -0.1341
    1BDTP    S1 2409   3.536   0.401   7.705  0.0531  0.1358 -0.1585
    1BDTP    C9 2410   3.416  -0.020   8.026  0.4346 -0.0315 -0.2351
    1BDTP   C10 2411   3.408  -0.045   8.159  0.3318 -0.0277 -0.2406
    1BDTP    S2 2412   3.447   0.101   8.261 -0.0324  0.0553 -0.2159
    2FTM     S1 2413   3.494   0.575   8.253 -0.0644 -0.2337  0.0653
    2FTM     C1 2414   3.620   0.591   8.381 -0.0092 -0.3539  0.0261
    2FTM     C2 2415   3.692   0.476   8.390 -0.1962 -0.4673  0.0873
    2FTM     C3 2416   3.655   0.371   8.300 -0.3892 -0.4677  0.1662
    2FTM     C4 2417   3.551   0.406   8.219 -0.3486 -0.3508  0.1657
    2FTM     F1 2418   3.796   0.458   8.480 -0.2037 -0.5775  0.0751
    2FTM     C5 2419   3.624   0.722   8.455 -0.3333  0.3258 -0.2070
    2FTM     C6 2420   3.534   0.748   8.584 -0.4219 -0.6515 -0.0726
    2FTM     C7 2421   3.390   0.794   8.550  0.0192  0.2415  0.1576
    2FTM     C8 2422   3.358   0.938   8.514  0.2492 -0.5801  0.3800
    2FTM     C9 2423   3.373   1.041   8.617 -0.0879 -0.3046 -0.0840
    2FTM    C10 2424   3.314   1.176   8.568 -0.2036  0.6617 -0.1997
    2FTM    C11 2425   3.547   0.649   8.700 -0.0990  0.2406 -0.3068
    2FTM    C12 2426   3.679   0.623   8.768  0.1197 -1.0055 -0.4895
    3FTM     S1 2427   3.512  -0.070   7.716 -0.3708  0.0267  0.1128
    3FTM     C1 2428   3.428  -0.078   7.557 -0.4341  0.1411  0.1402
    3FTM     C2 2429   3.360   0.038   7.535 -0.2027  0.2732  0.1169
    3FTM     C3 2430   3.369   0.138   7.638  0.0322  0.2928  0.0770
    3FTM     C4 2431   3.447   0.097   7.742 -0.0210  0.1720  0.0696
    3FTM     F1 2432   3.285   0.061   7.420 -0.1900  0.3841  0.1303
    3FTM     C5 2433   3.446  -0.196   7.464  0.0956  0.7424  0.2630
    3FTM     C6 2434   3.579  -0.230   7.392 -0.1154 -0.0616 -0.1742
    3FTM     C7 2435   3.570  -0.359   7.302 -0.4284 -0.3891 -0.3926
    3FTM     C8 2436   3.485  -0.344   7.179  0.6604  0.3843  0.3958
    3FTM     C9 2437   3.493  -0.458   7.088 -0.2859 -0.0207  0.1804
    3FTM    C10 2438   3.395  -0.446   6.973  0.2584  0.0955  0.2583
    3FTM    C11 2439   3.713  -0.241   7.480  0.0560 -0.2462  0.1641
    3FTM    C12 2440   3.705  -0.352   7.589  0.0683 -0.8555 -0.1281
    4TPM     C1 2441   3.382  -0.165   8.233 -0.0278  0.7763  0.0113
    4TPM     C2 2442   3.470  -0.269   8.237  0.0149  0.8016 -0.2782
    4TPM     C3 2443   3.445  -0.363   8.343  0.1191  0.5512 -0.4709
    4TPM     C4 2444   3.338  -0.330   8.422  0.1559  0.3355 -0.3280
    4TPM     S1 2445   3.260  -0.177   8.366  0.0610  0.4318  0.0637
    5BDD     C1 2446   3.239  -0.388   8.799  0.2136 -0.0408  0.0977
    5BDD     C2 2447   3.270  -0.512   8.751  0.0794 -0.0567  0.0522
    5BDD     C3 2448   3.318  -0.511   8.614 -0.1662 -0.0854 -0.0348
    5BDD     C4 2449   3.323  -0.386   8.559 -0.2156 -0.0918 -0.0544
    5BDD     S1 2450   3.269  -0.261   8.676  0.0418 -0.0618  0.0353
    5BDD     C5 2451   3.256  -0.637   8.829  0.1720 -0.0448  0.0870
    5BDD     C6 2452   3.356  -0.634   8.542 -0.3428 -0.1056 -0.0956
    5BDD     O1 2453   3.397  -0.633   8.424 -0.5546 -0.1307 -0.1707
    5BDD     O2 2454   3.214  -0.638   8.947  0.3838 -0.0200  0.1621
    5BDD     C7 2455   3.342  -0.759   8.620 -0.2502 -0.0944 -0.0608
    5BDD     C8 2456   3.294  -0.760   8.757 -0.0046 -0.0656  0.0262
    5BDD     C9 2457   3.289  -0.885   8.812  0.0449 -0.0594  0.0460
    5BDD     S2 2458   3.343  -1.010   8.695 -0.2125 -0.0892 -0.0434
    5BDD    C10 2459   3.372  -0.883   8.572 -0.3843 -0.1099 -0.1063
    5BDD    C11 2460   3.450  -0.930   8.451 -0.1483 -0.3031  0.5858
    5BDD    C12 2461   3.365  -0.994   8.332  0.8321  0.2707  0.5442
    5BDD    C13 2462   3.456  -1.072   8.241 -0.4526  0.6815  0.1522
    5BDD    C14 2463   3.414  -1.181   8.144 -0.3871 -0.4025 -0.1625
    5BDD    C15 2464   3.330  -1.292   8.184 -0.4185  0.3091 -0.4840
    5BDD    C16 2465   3.278  -1.392   8.078 -0.3965 -0.0349 -0.2570
    5BDD    C17 2466   3.231  -0.933   8.290  0.0155  0.2651  0.1431
    5BDD    C18 2467   3.243  -0.821   8.187 -0.5063 -0.4337  0.0637
    5BDD    C19 2468   3.271  -0.952   8.946 -0.8699  0.1727 -0.5054
    5BDD    C20 2469   3.149  -1.039   8.968  0.4378 -0.2459 -0.3763
    5BDD    C21 2470   3.014  -0.966   8.943  0.5043 -0.0126 -0.7503
    5BDD    C22 2471   2.966  -0.860   9.039  0.0851 -0.2244  0.0113
    5BDD    C23 2472   2.835  -0.802   8.992 -0.0926 -0.0347  0.3138
    5BDD    C24 2473   2.806  -0.666   9.058 -0.4111  0.2445 -0.7611
    5BDD    C25 2474   3.144  -1.129   9.099 -0.7108 -0.2553 -0.9026
    5BDD    C26 2475   3.277  -1.201   9.124 -0.4956  0.3759 -1.0644
    6TPM     C1 2476   3.199  -0.329   8.924 -0.0200  0.2623 -0.0384
    6TPM     C2 2477   3.282  -0.237   8.981  0.2313 -0.1683  0.3021
    6TPM     C3 2478   3.260  -0.219   9.122  0.4191 -0.7703  0.4137
    6TPM     C4 2479   3.160  -0.297   9.173  0.3109 -0.7989  0.1586
    6TPM     S1 2480   3.086  -0.400   9.045 -0.0391 -0.0616 -0.2460
    7BDTP    C1 2481   2.942  -0.286   9.763 -0.0058 -0.1540  0.0035
    7BDTP    C2 2482   2.851  -0.375   9.697  0.0079 -0.1156 -0.0676
    7BDTP    C3 2483   2.863  -0.408   9.563  0.0842 -0.1004 -0.0646
    7BDTP    C4 2484   2.969  -0.351   9.490  0.1500 -0.1245  0.0117
    7BDTP    C5 2485   3.060  -0.263   9.555  0.1363 -0.1631  0.0827
    7BDTP    C6 2486   3.048  -0.230   9.690  0.0600 -0.1782  0.0801
    7BDTP    C7 2487   3.001  -0.370   9.350  0.2344 -0.1152  0.0296
    7BDTP    C8 2488   3.110  -0.302   9.308  0.2840 -0.1447  0.1099
    7BDTP    S1 2489   3.188  -0.203   9.439  0.2308 -0.1881  0.1740
    7BDTP    C9 2490   2.910  -0.267   9.903 -0.0902 -0.1636 -0.0145
    7BDTP   C10 2491   2.801  -0.336   9.945 -0.1398 -0.1342 -0.0948
    7BDTP    S2 2492   2.723  -0.434   9.813 -0.0866 -0.0906 -0.1588
    8FTM     S1 2493   2.590  -0.454   9.489 -0.1843 -0.2358 -0.0127
    8FTM     C1 2494   2.556  -0.611   9.408 -0.1507 -0.0787 -0.3391
    8FTM     C2 2495   2.672  -0.682   9.396 -0.1697 -0.1192 -0.2880
    8FTM     C3 2496   2.790  -0.619   9.446 -0.2106 -0.2713  0.0010
    8FTM     C4 2497   2.765  -0.497   9.499 -0.2233 -0.3498  0.1768
    8FTM     F1 2498   2.677  -0.808   9.337 -0.1513 -0.0210 -0.4997
    8FTM     C5 2499   2.410  -0.651   9.387 -0.3573 -0.6180  0.0402
    8FTM     C6 2500   2.342  -0.594   9.262  0.3281 -0.4088  0.7230
    8FTM     C7 2501   2.397  -0.625   9.127  0.6554  0.2860  0.4068
    8FTM     C8 2502   2.376  -0.762   9.069  0.1856 -0.0409  0.6171
    8FTM     C9 2503   2.227  -0.778   9.034  0.8753  0.0786  0.2826
    8FTM    C10 2504   2.213  -0.919   8.979  0.5346 -0.1277 -0.2029
    8FTM    C11 2505   2.313  -0.447   9.255 -0.3435 -0.1748 -0.2359
    8FTM    C12 2506   2.230  -0.380   9.366 -0.0931  0.3848 -0.8308
    9FTM     S1 2507   3.318  -0.155   9.735  0.0051  0.3255 -0.3495
    9FTM     C1 2508   3.344  -0.003   9.828 -0.3527  0.2421 -0.1051
    9FTM     C2 2509   3.225   0.054   9.860 -0.4999 -0.2868  0.3194
    9FTM     C3 2510   3.108  -0.016   9.815 -0.3471 -0.6504  0.4766
    9FTM     C4 2511   3.139  -0.130   9.746 -0.0739 -0.3914  0.1623
    9FTM     F1 2512   3.214   0.172   9.931 -0.7818 -0.4728  0.5907
    9FTM     C5 2513   3.485   0.053   9.846 -0.4909  0.0720 -0.4256
    9FTM     C6 2514   3.572  -0.008   9.955 -0.2594 -0.1735 -0.0603
    9FTM     C7 2515   3.700   0.071   9.958 -0.1551  0.0065 -0.6764
    9FTM     C8 2516   3.697   0.187  10.055  0.5010 -0.0074  0.4374
    9FTM     C9 2517   3.823   0.266  10.056  0.5388 -0.0370 -0.2846
    9FTM    C10 2518   3.788   0.398  10.118  0.2538 -0.0395  0.0801
    9FTM    C11 2519   3.596  -0.158   9.950 -0.3154 -0.4578 -0.4753
    9FTM    C12 2520   3.663  -0.213  10.071  0.6762 -0.4186  0.0849
   10TPM     C1 2521   2.743  -0.331  10.077  0.1219  0.1168 -0.1769
   10TPM     C2 2522   2.806  -0.295  10.193  0.0901  0.6511 -0.3243
   10TPM     C3 2523   2.735  -0.333  10.312  0.1833  0.9737 -0.1622
   10TPM     C4 2524   2.618  -0.399  10.287  0.2865  0.6857  0.1088
   10TPM     S1 2525   2.589  -0.418  10.110  0.2736 -0.0208  0.1808
   11BDD     C1 2526   2.474  -0.580  10.607 -0.0664  0.0695  0.1565
   11BDD     C2 2527   2.364  -0.545  10.534 -0.0141  0.0460  0.0665
   11BDD     C3 2528   2.397  -0.473  10.412  0.0835 -0.1538 -0.0272
   11BDD     C4 2529   2.531  -0.454  10.395  0.1041 -0.2794 -0.0073
   11BDD     S1 2530   2.626  -0.525  10.529  0.0027 -0.1566  0.1302
   11BDD     C5 2531   2.225  -0.577  10.572 -0.0516  0.2065  0.0634
   11BDD     C6 2532   2.293  -0.425  10.318  0.1528 -0.2122 -0.1331
   11BDD     O1 2533   2.322  -0.362  10.213  0.2369 -0.3843 -0.2139
   11BDD     O2 2534   2.197  -0.639  10.677 -0.1358  0.3786  0.1442
   11BDD     C7 2535   2.154  -0.456  10.357  0.1152 -0.0520 -0.1362
   11BDD     C8 2536   2.122  -0.529  10.478  0.0176  0.1476 -0.0425
   11BDD     C9 2537   1.987  -0.548  10.496 -0.0029  0.2732 -0.0624
   11BDD     S2 2538   1.893  -0.476  10.361  0.0984  0.1504 -0.1998
   11BDD    C10 2539   2.044  -0.421  10.283  0.1675 -0.0758 -0.2262
   11BDD    C11 2540   2.035  -0.341  10.156  0.2747 -0.8508  0.2370
   11BDD    C12 2541   1.961  -0.406  10.031  0.2901 -0.3264  0.0148
   11BDD    C13 2542   1.930  -0.317   9.904  0.1814 -0.0932 -0.0826
   11BDD    C14 2543   1.836  -0.202   9.930  0.1722 -0.0080  0.0130
   11BDD    C15 2544   1.820  -0.098   9.810  0.2509 -0.4635  0.1413
   11BDD    C16 2545   1.944  -0.015   9.767 -0.2777 -0.1855 -0.3319
   11BDD    C17 2546   2.033  -0.534   9.985 -0.4061  0.0624  0.4982
   11BDD    C18 2547   1.936  -0.623   9.895 -0.5264  0.2568 -1.3643
   11BDD    C19 2548   1.903  -0.621  10.599 -0.2120 -0.0475  0.2834
   11BDD    C20 2549   1.880  -0.770  10.571 -0.2092  0.3983 -0.1513
   11BDD    C21 2550   1.790  -0.805  10.444  0.5376  0.0485 -0.4986
   11BDD    C22 2551   1.647  -0.753  10.451  0.2441  0.0806 -0.3734
   11BDD    C23 2552   1.586  -0.761  10.314 -0.1440 -0.0226  0.2705
   11BDD    C24 2553   1.450  -0.716  10.302  0.7474 -0.1607  0.1132
   11BDD    C25 2554   1.828  -0.856  10.690 -0.5492 -0.0588  0.5190
   11BDD    C26 2555   1.915  -0.872  10.812 -0.4437  0.0448 -0.5769
   12TPM     C1 2556   2.505  -0.672  10.722 -0.0404  0.1036  0.4899
   12TPM     C2 2557   2.633  -0.705  10.756 -0.0621  0.3819  0.8526
   12TPM     C3 2558   2.641  -0.807  10.858 -0.1323  0.2329  0.7110
   12TPM     C4 2559   2.520  -0.851  10.902 -0.1641 -0.1588  0.2403
   12TPM     S1 2560   2.385  -0.767  10.817 -0.1074 -0.3714 -0.0630
   13BDTP    C1 2561   2.325  -1.286  11.316 -0.1979 -0.0536 -0.1574
   13BDTP    C2 2562   2.466  -1.286  11.337 -0.2130  0.0546 -0.0572
   13BDTP    C3 2563   2.551  -1.202  11.266 -0.2205  0.0758 -0.0407
   13BDTP    C4 2564   2.496  -1.115  11.171 -0.2128 -0.0134 -0.1270
   13BDTP    C5 2565   2.355  -1.115  11.151 -0.1980 -0.1211 -0.2273
   13BDTP    C6 2566   2.269  -1.199  11.221 -0.1904 -0.1428 -0.2438
   13BDTP    C7 2567   2.564  -1.019  11.087 -0.2184 -0.0108 -0.1291
   13BDTP    C8 2568   2.483  -0.949  11.005 -0.2084 -0.1109 -0.2248
   13BDTP    S1 2569   2.307  -0.994  11.023 -0.1907 -0.2217 -0.3259
   13BDTP    C9 2570   2.256  -1.382  11.400 -0.1925 -0.0556 -0.1554
   13BDTP   C10 2571   2.338  -1.452  11.482 -0.2025  0.0443 -0.0596
   13BDTP    S2 2572   2.513  -1.407  11.464 -0.2203  0.1551  0.0414
   14FTM     S1 2573   2.805  -1.069  11.292 -0.0473 -0.2103 -0.1992
   14FTM     C1 2574   2.949  -1.175  11.307  0.2262  0.1229 -0.4348
   14FTM     C2 2575   2.912  -1.306  11.298  0.5129  0.0350 -0.3745
   14FTM     C3 2576   2.772  -1.330  11.279  0.5368 -0.2887 -0.1470
   14FTM     C4 2577   2.700  -1.215  11.274  0.2593 -0.4543 -0.0292
   14FTM     F1 2578   3.002  -1.411  11.306  0.7707  0.2427 -0.5219
   14FTM     C5 2579   3.075  -1.117  11.359 -0.0625  0.2301 -0.5819
   14FTM     C6 2580   3.213  -1.131  11.293 -0.2962  0.1312  1.0647
   14FTM     C7 2581   3.209  -1.078  11.145 -0.3666 -0.0059 -0.3608
   14FTM     C8 2582   3.173  -0.931  11.135  0.2881  0.2762  0.3232
   14FTM     C9 2583   3.160  -0.869  10.992  0.4771  0.0884  0.0270
   14FTM    C10 2584   3.042  -0.924  10.911  0.8914  0.9057 -0.2504
   14FTM    C11 2585   3.293  -1.266  11.286  0.1671  0.1882  0.0355
   14FTM    C12 2586   3.322  -1.324  11.423 -0.3546  0.2808  0.0310
   15FTM     S1 2587   2.067  -1.206  11.013 -0.2560  0.3163 -0.2465
   15FTM     C1 2588   1.897  -1.224  11.072  0.0804 -1.0075  0.4089
   15FTM     C2 2589   1.895  -1.226  11.208  0.6407 -1.3318  0.4185
   15FTM     C3 2590   2.022  -1.214  11.273  0.8377 -0.5882 -0.0714
   15FTM     C4 2591   2.125  -1.203  11.184  0.4146  0.3351 -0.4692
   15FTM     F1 2592   1.778  -1.238  11.281  1.0083 -2.3212  0.8714
   15FTM     C5 2593   1.797  -1.225  10.958 -0.4569  0.4345  1.0973
   15FTM     C6 2594   1.645  -1.241  10.974  0.1024 -0.2344 -0.1582
   15FTM     C7 2595   1.581  -1.373  11.024 -0.4906  0.0978  0.2875
   15FTM     C8 2596   1.606  -1.496  10.938 -0.0622 -0.4104 -0.0367
   15FTM     C9 2597   1.509  -1.498  10.819  0.5493 -0.1665  0.3748
   15FTM    C10 2598   1.542  -1.602  10.710  0.2222  0.1374 -0.0026
   15FTM    C11 2599   1.578  -1.121  11.052 -0.4528  0.6688 -0.4392
   15FTM    C12 2600   1.594  -0.973  11.020 -0.4017 -0.5034  0.0739
   16TPM     C1 2601   2.305  -1.560  11.578  0.0563 -0.2791 -0.3243
   16TPM     C2 2602   2.382  -1.633  11.663  0.1699 -0.3608 -0.4965
   16TPM     C3 2603   2.309  -1.733  11.737  0.2089 -0.2173 -0.2605
   16TPM     C4 2604   2.176  -1.736  11.708  0.1252 -0.0264  0.0916
   16TPM     S1 2605   2.132  -1.612  11.584 -0.0106 -0.0127  0.1530
   17BDD     C1 2606   1.846  -1.838  11.892 -0.0811 -0.1512  0.0958
   17BDD     C2 2607   1.924  -1.950  11.896 -0.0952 -0.1626  0.0476
   17BDD     C3 2608   2.054  -1.931  11.834 -0.1354 -0.1855 -0.0450
   17BDD     C4 2609   2.073  -1.805  11.785 -0.1515 -0.1912 -0.0661
   17BDD     S1 2610   1.930  -1.701  11.812 -0.1172 -0.1684  0.0285
   17BDD     C5 2611   1.882  -2.078  11.955 -0.0721 -0.1527  0.0849
   17BDD     C6 2612   2.155  -2.038  11.826 -0.1566 -0.2006 -0.1092
   17BDD     O1 2613   2.268  -2.022  11.773 -0.1913 -0.2205 -0.1890
   17BDD     O2 2614   1.770  -2.094  12.008 -0.0374 -0.1329  0.1647
   17BDD     C7 2615   2.113  -2.167  11.886 -0.1335 -0.1909 -0.0719
   17BDD     C8 2616   1.983  -2.186  11.948 -0.0933 -0.1680  0.0207
   17BDD     C9 2617   1.964  -2.312  11.997 -0.0772 -0.1622  0.0418
   17BDD     S2 2618   2.108  -2.416  11.970 -0.1115 -0.1851 -0.0528
   17BDD    C10 2619   2.192  -2.279  11.889 -0.1476 -0.2023 -0.1200
   17BDD    C11 2620   2.332  -2.310  11.835  0.2588  0.5319  0.1518
   17BDD    C12 2621   2.353  -2.386  11.706  0.5856  0.7211 -0.1884
   17BDD    C13 2622   2.366  -2.301  11.578 -0.0538 -0.1598  0.3979
   17BDD    C14 2623   2.235  -2.231  11.535 -0.4368  0.1505 -0.5266
   17BDD    C15 2624   2.245  -2.146  11.413  0.3960  0.1780 -0.2834
   17BDD    C16 2625   2.301  -1.999  11.420 -0.0011  0.3821  0.1461
   17BDD    C17 2626   2.273  -2.526  11.698 -0.0827 -0.5770  0.1417
   17BDD    C18 2627   2.313  -2.627  11.586 -0.5206 -0.3927 -0.2464
   17BDD    C19 2628   1.851  -2.383  12.062 -0.2094  0.0407 -0.1175
   17BDD    C20 2629   1.777  -2.494  11.980  1.3966  0.1769 -0.1958
   17BDD    C21 2630   1.667  -2.565  12.063 -0.0459  0.1728  0.5266
   17BDD    C22 2631   1.527  -2.511  12.105 -0.6141 -1.1648  0.1650
   17BDD    C23 2632   1.440  -2.624  12.153 -0.2498  0.2557 -0.3837
   17BDD    C24 2633   1.307  -2.555  12.188  0.1987  0.5397  0.0611
   17BDD    C25 2634   1.733  -2.439  11.846  0.1022 -0.4800  0.0038
   17BDD    C26 2635   1.701  -2.537  11.732  0.5986  0.3185 -0.2334
   18TPM     C1 2636   1.708  -1.797  11.926 -0.4008 -0.1719  0.0030
   18TPM     C2 2637   1.633  -1.840  12.031 -0.6429  0.0576 -0.0708
   18TPM     C3 2638   1.504  -1.777  12.041 -0.5367  0.3173 -0.3126
   18TPM     C4 2639   1.480  -1.686  11.943 -0.2137  0.2860 -0.4234
   18TPM     S1 2640   1.620  -1.672  11.830 -0.0170 -0.0769 -0.2291
   19BDTP    C1 2641   0.991  -1.300  11.867  0.1173  0.0794 -0.0464
   19BDTP    C2 2642   1.004  -1.309  12.009  0.0100 -0.0739 -0.0460
   19BDTP    C3 2643   1.101  -1.388  12.070 -0.0668 -0.1776 -0.0572
   19BDTP    C4 2644   1.189  -1.461  11.988 -0.0364 -0.1273 -0.0694
   19BDTP    C5 2645   1.176  -1.452  11.847  0.0708  0.0260 -0.0700
   19BDTP    C6 2646   1.079  -1.373  11.785  0.1476  0.1295 -0.0588
   19BDTP    C7 2647   1.297  -1.549  12.029 -0.1018 -0.2137 -0.0825
   19BDTP    C8 2648   1.364  -1.605  11.926 -0.0495 -0.1333 -0.0925
   19BDTP    S1 2649   1.301  -1.555  11.763  0.0900  0.0629 -0.0870
   19BDTP    C9 2650   0.884  -1.212  11.826  0.1827  0.1659 -0.0335
   19BDTP   C10 2651   0.816  -1.155  11.929  0.1303  0.0856 -0.0234
   19BDTP    S2 2652   0.879  -1.206  12.092 -0.0092 -0.1107 -0.0289
   20FTM     S1 2653   1.092  -1.521  12.337  0.0003 -0.2670  0.1142
   20FTM     C1 2654   1.140  -1.410  12.471 -0.2285  0.4232 -0.3611
   20FTM     C2 2655   1.163  -1.286  12.422 -0.4032  0.2432 -0.9204
   20FTM     C3 2656   1.146  -1.269  12.281 -0.3705 -0.4263 -1.0113
   20FTM     C4 2657   1.108  -1.384  12.219 -0.1641 -0.7700 -0.5050
   20FTM     F1 2658   1.202  -1.179  12.502 -0.6030  0.6740 -1.3833
   20FTM     C5 2659   1.115  -1.445  12.618 -0.5498 -0.1975 -0.1965
   20FTM     C6 2660   1.206  -1.384  12.724  0.0814 -0.6744 -0.1843
   20FTM     C7 2661   1.357  -1.390  12.727 -0.1123 -0.0277 -0.0916
   20FTM     C8 2662   1.425  -1.522  12.752 -0.0650 -0.2541  0.4781
   20FTM     C9 2663   1.574  -1.521  12.728 -0.6233 -0.1202  1.4045
   20FTM    C10 2664   1.656  -1.644  12.749 -0.5977 -0.1270  0.2005
   20FTM    C11 2665   1.127  -1.367  12.855  0.0982 -0.5364 -0.4769
   20FTM    C12 2666   1.174  -1.263  12.960  0.1983 -0.0446 -0.1597
   21FTM     S1 2667   0.953  -1.458  11.547  0.0287 -0.0462 -0.0355
   21FTM     C1 2668   1.007  -1.378  11.394 -0.3020  0.0646 -0.0963
   21FTM     C2 2669   1.109  -1.292  11.421 -0.3021  0.1106 -0.2421
   21FTM     C3 2670   1.150  -1.283  11.558 -0.0511  0.0634 -0.3136
   21FTM     C4 2671   1.077  -1.365  11.639  0.1477 -0.0213 -0.2195
   21FTM     F1 2672   1.171  -1.216  11.323 -0.5295  0.1974 -0.3194
   21FTM     C5 2673   0.960  -1.433  11.256  0.4167  0.2596  0.4905
   21FTM     C6 2674   0.850  -1.355  11.182  0.1384  0.1816 -0.0434
   21FTM     C7 2675   0.826  -1.396  11.040  0.5197 -0.3438 -0.9595
   21FTM     C8 2676   0.930  -1.391  10.935 -0.1446  0.5128  0.4782
   21FTM     C9 2677   1.027  -1.277  10.928  0.8257 -0.1560  0.0432
   21FTM    C10 2678   1.164  -1.304  10.889 -0.0993 -0.1743 -0.2619
   21FTM    C11 2679   0.721  -1.323  11.264  0.1065  0.8279  0.1455
   21FTM    C12 2680   0.613  -1.434  11.278 -0.0786 -0.3200 -0.2496
   22TPM     C1 2681   0.714  -1.058  11.908 -0.3131  0.1420 -0.1669
   22TPM     C2 2682   0.620  -1.043  11.811 -0.2740  0.5729 -0.1418
   22TPM     C3 2683   0.535  -0.928  11.829 -0.0291  0.7150  0.1193
   22TPM     C4 2684   0.564  -0.855  11.940  0.1186  0.3927  0.2932
   22TPM     S1 2685   0.702  -0.927  12.032 -0.0414 -0.1198  0.1394
   23BDD     C1 2686   0.340  -0.534  11.955  0.0267 -0.1393  0.0291
   23BDD     C2 2687   0.326  -0.596  12.076 -0.0334 -0.1040  0.0401
   23BDD     C3 2688   0.408  -0.715  12.090 -0.0103 -0.0775  0.1307
   23BDD     C4 2689   0.484  -0.742  11.980  0.0672 -0.0933  0.1874
   23BDD     S1 2690   0.458  -0.620  11.851  0.1165 -0.1423  0.1314
   23BDD     C5 2691   0.236  -0.548  12.184 -0.1144 -0.0932 -0.0322
   23BDD     C6 2692   0.408  -0.797  12.213 -0.0659 -0.0377  0.1577
   23BDD     O1 2693   0.479  -0.900  12.225 -0.0459 -0.0150  0.2357
   23BDD     O2 2694   0.166  -0.445  12.172 -0.1344 -0.1161 -0.1103
   23BDD     C7 2695   0.318  -0.750  12.320 -0.1469 -0.0272  0.0854
   23BDD     C8 2696   0.236  -0.630  12.306 -0.1700 -0.0536 -0.0052
   23BDD     C9 2697   0.161  -0.603  12.417 -0.2475 -0.0379 -0.0619
   23BDD     S2 2698   0.187  -0.725  12.546 -0.2968  0.0112 -0.0058
   23BDD    C10 2699   0.304  -0.812  12.441 -0.2070  0.0083  0.0964
   23BDD    C11 2700   0.363  -0.935  12.511 -0.1467  0.3987  0.0023
   23BDD    C12 2701   0.489  -0.910  12.595 -0.4596 -0.6559  0.4315
   23BDD    C13 2702   0.618  -0.850  12.523  0.9371 -0.4163  0.5587
   23BDD    C14 2703   0.709  -0.952  12.449  0.2055 -0.6450  0.7505
   23BDD    C15 2704   0.833  -0.870  12.408  0.3509 -0.2767  0.4775
   23BDD    C16 2705   0.927  -0.962  12.325 -0.0616  0.0956  0.3155
   23BDD    C17 2706   0.512  -1.008  12.708 -0.3389  0.3811 -0.1359
   23BDD    C18 2707   0.615  -0.980  12.817  0.3063 -0.0851 -0.3134
   23BDD    C19 2708   0.051  -0.502  12.451 -0.2367  0.4493 -0.6972
   23BDD    C20 2709  -0.095  -0.552  12.421 -0.2449 -0.0384  0.1617
   23BDD    C21 2710  -0.154  -0.663  12.511  0.0360 -0.2810 -0.4534
   23BDD    C22 2711  -0.165  -0.644  12.668  0.0170 -0.6715  0.5802
   23BDD    C23 2712  -0.232  -0.760  12.744  0.2466 -0.7195 -0.3572
   23BDD    C24 2713  -0.172  -0.900  12.731 -0.6065  0.2726 -0.3774
   23BDD    C25 2714  -0.193  -0.438  12.378 -0.2337  0.3529 -0.1153
   23BDD    C26 2715  -0.146  -0.330  12.276 -0.1199  0.0251  0.5173
   24TPM     C1 2716   0.294  -0.407  11.902 -0.4192  0.0451  0.3183
   24TPM     C2 2717   0.161  -0.379  11.897 -0.3692  0.3269  0.5013
   24TPM     C3 2718   0.127  -0.271  11.807 -0.2538  0.4694  0.6291
   24TPM     C4 2719   0.236  -0.217  11.744 -0.2159  0.2962  0.5433
   24TPM     S1 2720   0.389  -0.298  11.794 -0.3238 -0.0636  0.2928
   25BDTP    C1 2721   0.248   0.200  11.269  0.2037 -0.1172 -0.1922
   25BDTP    C2 2722   0.110   0.167  11.280  0.2127 -0.1852 -0.2776
   25BDTP    C3 2723   0.060   0.080  11.376  0.1819 -0.1191 -0.2329
   25BDTP    C4 2724   0.152   0.021  11.465  0.1404  0.0205 -0.0976
   25BDTP    C5 2725   0.290   0.053  11.454  0.1314  0.0885 -0.0122
   25BDTP    C6 2726   0.339   0.141  11.358  0.1622  0.0225 -0.0569
   25BDTP    C7 2727   0.124  -0.073  11.572  0.1034  0.1103 -0.0286
   25BDTP    C8 2728   0.234  -0.112  11.641  0.0675  0.2406  0.1028
   25BDTP    S1 2729   0.387  -0.036  11.581  0.0756  0.2680  0.1576
   25BDTP    C9 2730   0.276   0.293  11.162  0.2407 -0.2069 -0.2611
   25BDTP   C10 2731   0.166   0.332  11.093  0.2766 -0.3372 -0.3925
   25BDTP    S2 2732   0.012   0.256  11.153  0.2687 -0.3647 -0.4474
   26FTM     S1 2733  -0.169   0.035  11.535  0.1643 -0.3309 -0.0766
   26FTM     C1 2734  -0.328   0.015  11.454  0.0721  0.1201 -0.0131
   26FTM     C2 2735  -0.312   0.014  11.319 -0.0257  0.4156 -0.0268
   26FTM     C3 2736  -0.178   0.029  11.272 -0.0346  0.3119 -0.0860
   26FTM     C4 2737  -0.088   0.042  11.373  0.0595 -0.0757 -0.1188
   26FTM     F1 2738  -0.418   0.000  11.231 -0.1128  0.7975  0.0135
   26FTM     C5 2739  -0.449  -0.005  11.540  0.6799  0.0850 -0.4644
   26FTM     C6 2740  -0.511   0.118  11.609 -0.2682  0.3067  0.4914
   26FTM     C7 2741  -0.558   0.223  11.507  0.3831  0.3050  0.6324
   26FTM     C8 2742  -0.657   0.184  11.395 -0.2976  0.1408 -0.2566
   26FTM     C9 2743  -0.776   0.111  11.445 -0.3119 -0.5535 -0.5894
   26FTM    C10 2744  -0.822   0.031  11.328  0.6510  0.3256  0.6250
   26FTM    C11 2745  -0.434   0.188  11.721  0.0513  0.3085  0.8732
   26FTM    C12 2746  -0.381   0.109  11.837  1.0466 -0.0167 -0.4474
   27FTM     S1 2747   0.565   0.317  11.346  0.0469  0.1296 -0.1962
   27FTM     C1 2748   0.726   0.236  11.333 -0.0921 -0.1912  0.0363
   27FTM     C2 2749   0.709   0.101  11.327 -0.3271 -0.1809  0.4178
   27FTM     C3 2750   0.574   0.054  11.333 -0.4115  0.0709  0.5493
   27FTM     C4 2751   0.484   0.155  11.344 -0.2352  0.2596  0.2591
   27FTM     F1 2752   0.816   0.013  11.317 -0.4799 -0.3989  0.6705
   27FTM     C5 2753   0.849   0.320  11.323 -0.2631 -0.2940 -0.1386
   27FTM     C6 2754   0.884   0.404  11.197 -0.5209 -0.7739  0.1591
   27FTM     C7 2755   0.909   0.330  11.065  0.4032  0.2838  0.1058
   27FTM     C8 2756   1.038   0.255  11.053  0.1079  0.1059  0.2007
   27FTM     C9 2757   1.163   0.333  11.082 -0.4729  0.3655  0.7126
   27FTM    C10 2758   1.273   0.227  11.062 -0.0432  0.1906 -0.2296
   27FTM    C11 2759   0.803   0.531  11.155 -0.4193 -0.0091  0.1409
   27FTM    C12 2760   0.774   0.634  11.265 -0.4640  0.0564  0.0398
   28TPM     C1 2761   0.149   0.447  10.997 -0.0194  0.6331  0.0663
   28TPM     C2 2762   0.036   0.519  10.976 -0.2452  0.1858 -0.2729
   28TPM     C3 2763   0.045   0.608  10.863 -0.4673 -0.1873 -0.5931
   28TPM     C4 2764   0.165   0.605  10.799 -0.4109 -0.0244 -0.4979
   28TPM     S1 2765   0.277   0.486  10.877 -0.0701  0.6177  0.0074
   29BDD     C1 2766   0.136   0.877  10.516  0.0732  0.0701  0.0386
   29BDD     C2 2767   0.269   0.875  10.549  0.0648  0.0394  0.0707
   29BDD     C3 2768   0.301   0.778  10.652  0.0132  0.0498  0.0969
   29BDD     C4 2769   0.193   0.707  10.696 -0.0171  0.0882  0.0843
   29BDD     S1 2770   0.043   0.757  10.612  0.0170  0.1141  0.0388
   29BDD     C5 2771   0.371   0.962  10.487  0.1040 -0.0005  0.0786
   29BDD     C6 2772   0.439   0.759  10.703 -0.0043  0.0212  0.1334
   29BDD     O1 2773   0.467   0.675  10.791 -0.0488  0.0301  0.1560
   29BDD     O2 2774   0.343   1.046  10.398  0.1485 -0.0094  0.0560
   29BDD     C7 2775   0.541   0.846  10.641  0.0349 -0.0188  0.1413
   29BDD     C8 2776   0.508   0.943  10.538  0.0865 -0.0291  0.1151
   29BDD     C9 2777   0.616   1.014  10.494  0.1168 -0.0675  0.1277
   29BDD     S2 2778   0.767   0.964  10.578  0.0827 -0.0934  0.1732
   29BDD    C10 2779   0.673   0.844  10.673  0.0265 -0.0494  0.1734
   29BDD    C11 2780   0.753   0.774  10.777 -0.1331  0.2300  0.0974
   29BDD    C12 2781   0.868   0.680  10.720  0.7648  0.1754 -0.1464
   29BDD    C13 2782   0.973   0.650  10.832 -0.5600 -0.4669  0.2855
   29BDD    C14 2783   1.046   0.775  10.901 -0.0096 -0.1155 -0.6288
   29BDD    C15 2784   1.106   0.879  10.799 -0.1503  0.0155 -0.7348
   29BDD    C16 2785   1.180   0.993  10.866  0.5193  0.0033  0.2415
   29BDD    C17 2786   0.810   0.556  10.655  0.0395 -0.2270 -0.4501
   29BDD    C18 2787   0.739   0.459  10.753  0.6718 -0.0126  0.0980
   29BDD    C19 2788   0.625   1.119  10.385 -0.5863 -0.8909  0.2200
   29BDD    C20 2789   0.743   1.099  10.281  0.3853  0.0982  0.0784
   29BDD    C21 2790   0.776   0.959  10.227  0.1433 -0.5962 -0.1704
   29BDD    C22 2791   0.679   0.872  10.148  0.5151 -0.6446  0.1054
   29BDD    C23 2792   0.726   0.728  10.132  0.1364  0.7983 -0.5773
   29BDD    C24 2793   0.713   0.646  10.264  0.0829  0.0308 -0.0805
   29BDD    C25 2794   0.759   1.210  10.178 -0.1401  0.2167 -0.1855
   29BDD    C26 2795   0.782   1.353  10.229 -0.3009  0.0274  0.2172
   30TPM     C1 2796   0.046   0.942  10.422 -0.0623  0.2827  0.1334
   30TPM     C2 2797   0.082   1.026  10.321 -0.0130  0.4535  0.2922
   30TPM     C3 2798  -0.028   1.068  10.238  0.0656  0.3886  0.1548
   30TPM     C4 2799  -0.148   1.016  10.275  0.0764  0.1684 -0.1089
   30TPM     S1 2800  -0.132   0.910  10.420 -0.0126  0.0247 -0.2048
   31BDTP    C1 2801  -0.712   1.199  10.055 -0.1287 -0.0311 -0.0113
   31BDTP    C2 2802  -0.746   1.131  10.176 -0.1171 -0.1208 -0.0585
   31BDTP    C3 2803  -0.651   1.070  10.257 -0.1037 -0.1396 -0.0882
   31BDTP    C4 2804  -0.517   1.077  10.217 -0.1020 -0.0667 -0.0706
   31BDTP    C5 2805  -0.483   1.145  10.097 -0.1135  0.0230 -0.0233
   31BDTP    C6 2806  -0.578   1.206  10.016 -0.1271  0.0418  0.0064
   31BDTP    C7 2807  -0.401   1.022  10.285 -0.0892 -0.0695 -0.0947
   31BDTP    C8 2808  -0.283   1.045  10.221 -0.0908  0.0127 -0.0681
   31BDTP    S1 2809  -0.302   1.140  10.068 -0.1090  0.1051 -0.0089
   31BDTP    C9 2810  -0.828   1.255   9.988 -0.1416 -0.0283  0.0128
   31BDTP   C10 2811  -0.946   1.232  10.051 -0.1397 -0.1104 -0.0137
   31BDTP    S2 2812  -0.926   1.137  10.205 -0.1216 -0.2029 -0.0729
   32FTM     S1 2813  -0.621   0.826  10.405  0.1956  0.3823  0.1186
   32FTM     C1 2814  -0.695   0.824  10.569  0.1516  0.2382  0.0968
   32FTM     C2 2815  -0.769   0.936  10.588 -0.3242 -0.0456 -0.0403
   32FTM     C3 2816  -0.772   1.029  10.479 -0.6762 -0.1655 -0.1345
   32FTM     C4 2817  -0.698   0.986  10.373 -0.4621  0.0330 -0.0674
   32FTM     F1 2818  -0.838   0.962  10.705 -0.4702 -0.2137 -0.0886
   32FTM     C5 2819  -0.685   0.715  10.667  0.5421  0.5874 -0.1712
   32FTM     C6 2820  -0.778   0.597  10.633 -0.1031 -0.0025  0.5772
   32FTM     C7 2821  -0.775   0.486  10.737 -0.1699 -0.5291 -0.3852
   32FTM     C8 2822  -0.820   0.506  10.880  0.1442  0.3211  0.2872
   32FTM     C9 2823  -0.794   0.378  10.953 -0.1769 -0.1880  0.2559
   32FTM    C10 2824  -0.845   0.400  11.091 -0.1653 -0.0097  0.0929
   32FTM    C11 2825  -0.787   0.547  10.482 -1.1268  0.0879 -0.0719
   32FTM    C12 2826  -0.876   0.431  10.446 -0.1206  0.0615 -0.0658
   33FTM     S1 2827  -0.494   1.126   9.747  0.3061 -0.0341 -0.0800
   33FTM     C1 2828  -0.469   1.263   9.633 -0.3263  0.0542 -0.1168
   33FTM     C2 2829  -0.496   1.381   9.695 -0.7873 -0.0460 -0.1234
   33FTM     C3 2830  -0.537   1.371   9.833 -0.6795 -0.1940 -0.1008
   33FTM     C4 2831  -0.541   1.242   9.876 -0.1176 -0.2076 -0.0761
   33FTM     F1 2832  -0.486   1.504   9.632 -1.3347 -0.0096 -0.1502
   33FTM     C5 2833  -0.426   1.247   9.494 -0.4130 -0.0122 -0.5773
   33FTM     C6 2834  -0.283   1.198   9.459  0.0787 -0.0753  0.1301
   33FTM     C7 2835  -0.168   1.251   9.538 -0.0999  0.2911 -0.4406
   33FTM     C8 2836  -0.137   1.396   9.556 -0.2610 -0.3809 -0.4448
   33FTM     C9 2837   0.014   1.404   9.616  0.5272 -0.0353  0.0912
   33FTM    C10 2838   0.074   1.534   9.642 -0.6093 -0.0412  0.3853
   33FTM    C11 2839  -0.281   1.048   9.428 -0.1163  0.4465 -0.1320
   33FTM    C12 2840  -0.156   1.003   9.356  0.0130 -0.5887  0.8371
   34TPM     C1 2841  -1.068   1.305  10.030 -0.0052  0.1177 -0.0197
   34TPM     C2 2842  -1.173   1.318  10.117 -0.5896 -0.3433 -0.6275
   34TPM     C3 2843  -1.271   1.414  10.075 -0.6733 -0.6348 -1.1107
   34TPM     C4 2844  -1.243   1.474   9.956 -0.1525 -0.3960 -0.8715
   34TPM     S1 2845  -1.087   1.413   9.887  0.4889  0.2203 -0.0106
   35BDD     C1 2846  -1.346   1.812   9.796 -0.0689 -0.1560 -0.2577
   35BDD     C2 2847  -1.464   1.751   9.830 -0.0718 -0.1189 -0.2023
   35BDD     C3 2848  -1.447   1.623   9.895 -0.0787 -0.0598 -0.0825
   35BDD     C4 2849  -1.316   1.587   9.909 -0.0802 -0.0528 -0.0483
   35BDD     S1 2850  -1.205   1.711   9.843 -0.0739 -0.1195 -0.1637
   35BDD     C5 2851  -1.597   1.810   9.804 -0.0689 -0.1364 -0.2574
   35BDD     C6 2852  -1.561   1.540   9.940 -0.0827 -0.0126 -0.0063
   35BDD     O1 2853  -1.545   1.429   9.996 -0.0887  0.0383  0.0970
   35BDD     O2 2854  -1.613   1.921   9.748 -0.0629 -0.1874 -0.3606
   35BDD     C7 2855  -1.694   1.598   9.914 -0.0799 -0.0302 -0.0614
   35BDD     C8 2856  -1.711   1.727   9.849 -0.0732 -0.0892 -0.1812
   35BDD     C9 2857  -1.842   1.763   9.835 -0.0715 -0.0964 -0.2153
   35BDD     S2 2858  -1.953   1.638   9.901 -0.0777 -0.0296 -0.1000
   35BDD    C10 2859  -1.812   1.538   9.948 -0.0832  0.0069 -0.0060
   35BDD    C11 2860  -1.850   1.401  10.011 -0.6506  0.0397 -0.1757
   35BDD    C12 2861  -1.904   1.401  10.151  0.3731  0.1915 -0.2389
   35BDD    C13 2862  -1.805   1.444  10.265  0.1183 -0.5362  0.4408
   35BDD    C14 2863  -1.691   1.350  10.307 -0.0941 -0.0579  0.2614
   35BDD    C15 2864  -1.594   1.418  10.400  0.2225  0.2935 -0.3913
   35BDD    C16 2865  -1.464   1.341  10.427  0.0429 -0.0408  0.9198
   35BDD    C17 2866  -1.971   1.260  10.166 -0.6340 -0.6612 -0.1414
   35BDD    C18 2867  -2.071   1.253  10.280 -0.0174  0.0976  0.3771
   35BDD    C19 2868  -1.911   1.898   9.791  0.0057  0.0561 -0.7962
   35BDD    C20 2869  -2.002   1.898   9.669  0.3464  0.0034 -0.3758
   35BDD    C21 2870  -2.115   2.004   9.677 -0.5388  0.4216  0.1058
   35BDD    C22 2871  -2.223   1.989   9.568 -0.1849 -0.0070 -0.0600
   35BDD    C23 2872  -2.352   2.063   9.625 -0.3217  0.4179  0.2859
   35BDD    C24 2873  -2.473   2.084   9.541  0.3509  0.0298 -0.3418
   35BDD    C25 2874  -1.939   1.863   9.529  0.1318 -0.5441 -0.2390
   35BDD    C26 2875  -1.829   1.951   9.467  0.1991  0.1670 -0.1270
   36TPM     C1 2876  -1.302   1.933   9.734  0.0261 -0.2602  0.0168
   36TPM     C2 2877  -1.351   1.976   9.614 -0.1886 -0.1370  0.1466
   36TPM     C3 2878  -1.277   2.085   9.557 -0.4609  0.1099  0.2596
   36TPM     C4 2879  -1.171   2.126   9.633 -0.4540  0.1751  0.2158
   36TPM     S1 2880  -1.158   2.028   9.784 -0.1003 -0.0724  0.0271
   37BDTP    C1 2881  -0.729   2.569   9.606 -0.0234  0.1166 -0.1585
   37BDTP    C2 2882  -0.840   2.633   9.542 -0.0038  0.0594 -0.2503
   37BDTP    C3 2883  -0.962   2.570   9.523  0.0029  0.0413 -0.2341
   37BDTP    C4 2884  -0.977   2.438   9.569 -0.0103  0.0817 -0.1216
   37BDTP    C5 2885  -0.866   2.374   9.633 -0.0300  0.1391 -0.0298
   37BDTP    C6 2886  -0.744   2.437   9.652 -0.0365  0.1570 -0.0462
   37BDTP    C7 2887  -1.093   2.353   9.561 -0.0072  0.0731 -0.0837
   37BDTP    C8 2888  -1.076   2.230   9.615 -0.0226  0.1205  0.0308
   37BDTP    S1 2889  -0.910   2.204   9.683 -0.0443  0.1827  0.1065
   37BDTP    C9 2890  -0.612   2.654   9.614 -0.0269  0.1252 -0.1965
   37BDTP   C10 2891  -0.629   2.777   9.560 -0.0112  0.0778 -0.3109
   37BDTP    S2 2892  -0.796   2.803   9.492  0.0107  0.0156 -0.3867
   38FTM     S1 2893  -1.225   2.682   9.541 -0.1267 -0.1099 -0.0060
   38FTM     C1 2894  -1.283   2.766   9.393 -0.3106  0.1593  0.2168
   38FTM     C2 2895  -1.187   2.763   9.297 -0.2484  0.7495  0.2534
   38FTM     C3 2896  -1.065   2.697   9.332 -0.0587  1.0219  0.1142
   38FTM     C4 2897  -1.068   2.648   9.459  0.0276  0.6273 -0.0341
   38FTM     F1 2898  -1.203   2.820   9.171 -0.3598  1.0782  0.4156
   38FTM     C5 2899  -1.421   2.820   9.365 -0.2230 -0.3711  0.0761
   38FTM     C6 2900  -1.507   2.888   9.470  0.7824  0.1099  0.0421
   38FTM     C7 2901  -1.652   2.919   9.420 -0.4613 -0.0195  0.4828
   38FTM     C8 2902  -1.722   2.829   9.313  0.2511  0.2054 -0.3153
   38FTM     C9 2903  -1.867   2.864   9.286  0.3690 -0.4356 -0.2002
   38FTM    C10 2904  -1.920   2.801   9.159  0.4177 -0.2386 -0.5494
   38FTM    C11 2905  -1.441   2.967   9.580  0.5246  0.1123 -0.2628
   38FTM    C12 2906  -1.516   2.963   9.719 -0.1325 -0.2797  0.1435
   39FTM     S1 2907  -0.463   2.370   9.687  0.1355 -0.1603  0.3592
   39FTM     C1 2908  -0.424   2.282   9.839 -0.1247 -0.5348  0.2111
   39FTM     C2 2909  -0.538   2.255   9.908 -0.2184 -0.4478  0.0898
   39FTM     C3 2910  -0.660   2.300   9.847 -0.0966 -0.0932  0.1043
   39FTM     C4 2911  -0.639   2.364   9.729  0.0968  0.0975  0.2412
   39FTM     F1 2912  -0.539   2.187  10.029 -0.4201 -0.6841 -0.0416
   39FTM     C5 2913  -0.288   2.247   9.882 -0.0571  0.4480 -0.0229
   39FTM     C6 2914  -0.199   2.353   9.953  1.1778  0.0431  0.2647
   39FTM     C7 2915  -0.069   2.310  10.023 -0.8357 -0.1606  0.8517
   39FTM     C8 2916  -0.078   2.255  10.165 -0.1454 -0.1558 -0.3426
   39FTM     C9 2917   0.050   2.215  10.232 -0.4906 -0.1820 -0.0010
   39FTM    C10 2918   0.050   2.167  10.375  0.0077 -0.1675  0.1788
   39FTM    C11 2919  -0.214   2.492   9.888 -0.4399 -0.2580  0.2666
   39FTM    C12 2920  -0.134   2.613   9.953 -0.4597  0.2522 -0.0975
   40TPM     C1 2921  -0.536   2.883   9.552  0.2824 -0.0238 -0.0840
   40TPM     C2 2922  -0.402   2.873   9.527  0.2892  0.1894 -0.1366
   40TPM     C3 2923  -0.338   3.000   9.502  0.1035  0.3055 -0.0310
   40TPM     C4 2924  -0.423   3.106   9.507 -0.0454  0.1810  0.1022
   40TPM     S1 2925  -0.592   3.055   9.546  0.0383 -0.0948  0.1047
   41BDD     C1 2926  -0.390   3.444   9.317  0.0003 -0.0173 -0.1910
   41BDD     C2 2927  -0.270   3.429   9.382 -0.0098  0.0011 -0.1683
   41BDD     C3 2928  -0.263   3.309   9.463 -0.0131  0.0110 -0.1533
   41BDD     C4 2929  -0.377   3.233   9.459 -0.0052 -0.0001 -0.1650
   41BDD     S1 2930  -0.501   3.308   9.353  0.0067 -0.0236 -0.1955
   41BDD     C5 2931  -0.158   3.525   9.371 -0.0169  0.0103 -0.1593
   41BDD     C6 2932  -0.143   3.273   9.541 -0.0236  0.0309 -0.1280
   41BDD     O1 2933  -0.136   3.169   9.611 -0.0262  0.0395 -0.1154
   41BDD     O2 2934  -0.165   3.629   9.302 -0.0143  0.0019 -0.1719
   41BDD     C7 2935  -0.031   3.369   9.531 -0.0308  0.0402 -0.1190
   41BDD     C8 2936  -0.039   3.489   9.450 -0.0277  0.0304 -0.1338
   41BDD     C9 2937   0.076   3.565   9.454 -0.0350  0.0415 -0.1223
   41BDD     S2 2938   0.200   3.490   9.560 -0.0470  0.0649 -0.0919
   41BDD    C10 2939   0.088   3.355   9.596 -0.0405  0.0586 -0.0963
   41BDD    C11 2940   0.131   3.249   9.704 -0.2195 -0.6297  0.4273
   41BDD    C12 2941   0.252   3.157   9.694 -0.0377  0.7314 -0.0077
   41BDD    C13 2942   0.390   3.232   9.678  0.4327 -0.0168 -0.0412
   41BDD    C14 2943   0.442   3.333   9.780 -0.2264 -0.0816 -0.0841
   41BDD    C15 2944   0.467   3.275   9.924  0.3282 -1.2062  0.6687
   41BDD    C16 2945   0.586   3.188   9.938  0.6957 -0.1601  0.1876
   41BDD    C17 2946   0.261   3.046   9.798  0.0881  0.1615 -0.1631
   41BDD    C18 2947   0.146   2.940   9.805  0.2566 -0.0784 -0.2833
   41BDD    C19 2948   0.109   3.702   9.392  0.4917  0.1465  0.0415
   41BDD    C20 2949   0.218   3.701   9.288 -0.3064 -0.9256 -0.4669
   41BDD    C21 2950   0.254   3.850   9.271 -0.6388  0.5805  0.2824
   41BDD    C22 2951   0.154   3.944   9.186 -0.0743 -0.4380 -0.2276
   41BDD    C23 2952   0.012   3.973   9.222  0.2027  0.2672 -0.3630
   41BDD    C24 2953  -0.049   4.088   9.143 -0.4604  0.1371  0.0594
   41BDD    C25 2954   0.209   3.614   9.164  0.6674  0.3174  0.3516
   41BDD    C26 2955   0.090   3.619   9.078  0.0781  0.3295  0.2639
   42TPM     C1 2956  -0.458   3.539   9.218  0.3464  0.0558 -0.1910
   42TPM     C2 2957  -0.409   3.660   9.178  0.5770 -0.1668 -0.5949
   42TPM     C3 2958  -0.497   3.732   9.090  0.6473 -0.2239 -0.7129
   42TPM     C4 2959  -0.613   3.666   9.063  0.4699 -0.0449 -0.3986
   42TPM     S1 2960  -0.620   3.507   9.147  0.1990  0.2117  0.0745
   43BDTP    C1 2961  -1.063   3.860   8.665 -0.1254 -0.3061  0.2036
   43BDTP    C2 2962  -0.950   3.939   8.629 -0.1721 -0.2472  0.1838
   43BDTP    C3 2963  -0.828   3.929   8.695 -0.1471 -0.2044  0.1438
   43BDTP    C4 2964  -0.817   3.837   8.800 -0.0722 -0.2200  0.1225
   43BDTP    C5 2965  -0.930   3.758   8.836 -0.0250 -0.2789  0.1423
   43BDTP    C6 2966  -1.052   3.768   8.771 -0.0502 -0.3217  0.1820
   43BDTP    C7 2967  -0.701   3.810   8.883 -0.0335 -0.1833  0.0808
   43BDTP    C8 2968  -0.721   3.715   8.977  0.0391 -0.2111  0.0687
   43BDTP    S1 2969  -0.890   3.647   8.976  0.0691 -0.2881  0.1082
   43BDTP    C9 2970  -1.179   3.888   8.582 -0.1636 -0.3429  0.2451
   43BDTP   C10 2971  -1.159   3.982   8.488 -0.2363 -0.3150  0.2570
   43BDTP    S2 2972  -0.990   4.050   8.490 -0.2664 -0.2381  0.2176
   44FTM     S1 2973  -0.641   4.008   8.484 -0.0953 -0.1200 -0.1640
   44FTM     C1 2974  -0.536   4.150   8.520 -0.4266  0.1247 -0.1538
   44FTM     C2 2975  -0.559   4.193   8.647 -0.7102  0.2205 -0.2367
   44FTM     C3 2976  -0.657   4.121   8.722 -0.6883  0.1122 -0.3116
   44FTM     C4 2977  -0.711   4.018   8.650 -0.3770 -0.0727 -0.2850
   44FTM     F1 2978  -0.492   4.302   8.702 -1.0071  0.4123 -0.2499
   44FTM     C5 2979  -0.433   4.191   8.415  0.3889  0.0209  0.0821
   44FTM     C6 2980  -0.475   4.268   8.296 -0.3903  0.3320  0.4462
   44FTM     C7 2981  -0.359   4.262   8.198 -0.0667  0.2805  0.3987
   44FTM     C8 2982  -0.332   4.144   8.101 -0.5005  0.2165 -0.4830
   44FTM     C9 2983  -0.209   4.171   8.008  1.1772 -0.0860  0.1369
   44FTM    C10 2984  -0.178   4.047   7.926 -0.1360  0.4850 -0.6842
   44FTM    C11 2985  -0.513   4.411   8.323  0.5254 -0.3656  0.0357
   44FTM    C12 2986  -0.582   4.498   8.217  0.0085 -0.0832  0.0301
   45FTM     S1 2987  -1.241   3.591   8.677  0.1767 -0.0289 -0.1710
   45FTM     C1 2988  -1.363   3.533   8.796  0.1698  0.1168 -0.1062
   45FTM     C2 2989  -1.335   3.580   8.920  0.2496  0.1441 -0.1357
   45FTM     C3 2990  -1.218   3.663   8.930  0.3200  0.0554 -0.2081
   45FTM     C4 2991  -1.156   3.680   8.810  0.2922 -0.0430 -0.2358
   45FTM     F1 2992  -1.412   3.552   9.031  0.2644  0.2509 -0.0982
   45FTM     C5 2993  -1.469   3.449   8.733 -0.0459 -0.0304 -0.6098
   45FTM     C6 2994  -1.438   3.316   8.674  0.0105 -0.1479  0.8788
   45FTM     C7 2995  -1.359   3.218   8.758  0.4117 -0.6569  0.4694
   45FTM     C8 2996  -1.450   3.150   8.865  0.5524 -0.1757  0.1186
   45FTM     C9 2997  -1.378   3.069   8.972  0.6844 -0.0601 -0.4260
   45FTM    C10 2998  -1.470   3.037   9.086  0.1861  0.8755 -0.0241
   45FTM    C11 2999  -1.397   3.310   8.523  0.8783 -0.4554 -0.6805
   45FTM    C12 3000  -1.498   3.358   8.420 -0.0244  0.1778  0.6790
   46TPM     C1 3001  -1.252   4.049   8.397  0.0671  0.7752  0.2200
   46TPM     C2 3002  -1.224   4.093   8.271  0.0627  1.6413  0.5090
   46TPM     C3 3003  -1.338   4.150   8.204 -0.0560  1.6717  0.7317
   46TPM     C4 3004  -1.452   4.150   8.278 -0.1425  0.8290  0.6125
   46TPM     S1 3005  -1.425   4.076   8.440 -0.0801 -0.0758  0.2065
   47BDD     C1 3006  -1.696   4.439   8.183  0.0114 -0.0492 -0.0035
   47BDD     C2 3007  -1.758   4.324   8.141  0.0502 -0.0752  0.0095
   47BDD     C3 3008  -1.682   4.204   8.170  0.0978 -0.0451  0.0107
   47BDD     C4 3009  -1.563   4.228   8.233  0.0946  0.0034 -0.0015
   47BDD     S1 3010  -1.538   4.403   8.261  0.0317  0.0147 -0.0155
   47BDD     C5 3011  -1.889   4.321   8.074  0.0452 -0.1287  0.0219
   47BDD     C6 3012  -1.730   4.069   8.133  0.1451 -0.0654  0.0241
   47BDD     O1 3013  -1.665   3.965   8.158  0.1861 -0.0394  0.0246
   47BDD     O2 3014  -1.955   4.425   8.049  0.0041 -0.1547  0.0212
   47BDD     C7 3015  -1.862   4.066   8.066  0.1395 -0.1190  0.0362
   47BDD     C8 3016  -1.938   4.187   8.037  0.0919 -0.1490  0.0350
   47BDD     C9 3017  -2.057   4.162   7.974  0.0951 -0.1974  0.0476
   47BDD     S2 3018  -2.082   3.987   7.946  0.1580 -0.2087  0.0614
   47BDD    C10 3019  -1.924   3.952   8.024  0.1781 -0.1447  0.0491
   47BDD    C11 3020  -1.872   3.808   8.024  0.4299  0.0784  0.0887
   47BDD    C12 3021  -1.950   3.698   8.102 -0.1891  0.3563  0.8791
   47BDD    C13 3022  -2.104   3.694   8.075  0.5223  0.1684 -0.2285
   47BDD    C14 3023  -2.185   3.594   8.159  0.2049  0.0642 -0.2078
   47BDD    C15 3024  -2.174   3.601   8.311  0.0968  0.3937 -0.2943
   47BDD    C16 3025  -2.245   3.486   8.380 -0.0489  0.8180  0.1243
   47BDD    C17 3026  -1.891   3.554   8.090  0.0566 -0.5872  0.4033
   47BDD    C18 3027  -1.742   3.530   8.107 -0.2660 -0.6533 -0.0885
   47BDD    C19 3028  -2.161   4.255   7.902 -0.2262  0.4685  0.7242
   47BDD    C20 3029  -2.139   4.267   7.749 -0.0956  0.2670 -0.0686
   47BDD    C21 3030  -1.994   4.308   7.708  0.9693 -0.1494 -0.4585
   47BDD    C22 3031  -1.947   4.295   7.567  0.1539 -0.0077 -0.0943
   47BDD    C23 3032  -1.932   4.146   7.518 -0.3371  0.1744 -0.2384
   47BDD    C24 3033  -1.863   4.128   7.378  0.3303  0.7080 -0.3131
   47BDD    C25 3034  -2.254   4.334   7.673 -0.0134  0.3263 -0.4097
   47BDD    C26 3035  -2.290   4.482   7.692  0.0362 -0.3154  0.5187
   48TPM     C1 3036  -1.721   4.586   8.181 -0.2125  0.1236 -0.0237
   48TPM     C2 3037  -1.792   4.649   8.083 -0.2515  0.2111  0.0608
   48TPM     C3 3038  -1.787   4.793   8.092  0.0898  0.2073 -0.0551
   48TPM     C4 3039  -1.712   4.839   8.196  0.3885  0.1168 -0.2281
   48TPM     S1 3040  -1.642   4.703   8.292  0.2614  0.0287 -0.2585
   49BDTP    C1 3041  -1.588   5.446   8.297  0.1781  0.0675  0.0458
   49BDTP    C2 3042  -1.488   5.379   8.374  0.0868  0.0269  0.1304
   49BDTP    C3 3043  -1.480   5.241   8.382 -0.0231  0.0241  0.2012
   49BDTP    C4 3044  -1.574   5.164   8.311 -0.0443  0.0628  0.1879
   49BDTP    C5 3045  -1.675   5.231   8.235  0.0464  0.1035  0.1032
   49BDTP    C6 3046  -1.683   5.369   8.227  0.1564  0.1063  0.0327
   49BDTP    C7 3047  -1.585   5.020   8.304 -0.1515  0.0679  0.2511
   49BDTP    C8 3048  -1.688   4.976   8.228 -0.1448  0.1097  0.2184
   49BDTP    S1 3049  -1.785   5.110   8.153 -0.0029  0.1487  0.1032
   49BDTP    C9 3050  -1.577   5.590   8.304  0.2847  0.0625 -0.0172
   49BDTP   C10 3051  -1.475   5.634   8.381  0.2785  0.0206  0.0155
   49BDTP    S2 3052  -1.378   5.500   8.455  0.1364 -0.0183  0.1309
   50FTM     S1 3053  -1.199   5.233   8.436 -0.0519  0.3000  0.3370
   50FTM     C1 3054  -1.144   5.136   8.578 -0.1982 -0.1546  0.0878
   50FTM     C2 3055  -1.251   5.072   8.634 -0.2522 -0.3569 -0.2403
   50FTM     C3 3056  -1.378   5.094   8.571 -0.1848 -0.1751 -0.3161
   50FTM     C4 3057  -1.368   5.178   8.464 -0.0751  0.1780 -0.0369
   50FTM     F1 3058  -1.239   4.990   8.745 -0.3662 -0.7187 -0.4921
   50FTM     C5 3059  -1.000   5.135   8.599 -0.2014  0.7460 -0.4977
   50FTM     C6 3060  -0.945   5.108   8.746  0.2739 -0.1241  0.7017
   50FTM     C7 3061  -0.955   4.963   8.796 -0.1269 -0.2594  0.2742
   50FTM     C8 3062  -0.852   4.873   8.741  0.2692  0.3793 -0.3330
   50FTM     C9 3063  -0.885   4.723   8.768 -0.4770 -0.2388 -0.9616
   50FTM    C10 3064  -0.785   4.622   8.721 -0.6523 -0.0469 -0.3957
   50FTM    C11 3065  -0.988   5.197   8.865 -0.3193  0.6295 -0.3183
   50FTM    C12 3066  -0.994   5.347   8.843  0.1128 -0.2994 -0.5018
   51FTM     S1 3067  -1.870   5.590   8.172 -0.2030  0.1696  0.0036
   51FTM     C1 3068  -1.920   5.600   7.999  0.0572  0.0443 -0.0807
   51FTM     C2 3069  -1.869   5.495   7.930  0.5246  0.2295 -0.0207
   51FTM     C3 3070  -1.789   5.403   8.005  0.7045  0.4741  0.0913
   51FTM     C4 3071  -1.779   5.438   8.136  0.3638  0.4765  0.1185
   51FTM     F1 3072  -1.891   5.477   7.794  0.8174  0.1886 -0.0640
   51FTM     C5 3073  -2.002   5.721   7.956 -0.5300  0.1569 -0.1614
   51FTM     C6 3074  -2.160   5.724   7.966 -0.7665  0.1189  0.5682
   51FTM     C7 3075  -2.226   5.678   8.098 -0.0360 -0.4363 -0.1261
   51FTM     C8 3076  -2.201   5.539   8.156 -0.4416  0.3583  0.0213
   51FTM     C9 3077  -2.244   5.418   8.069 -0.4668 -0.0505 -0.6035
   51FTM    C10 3078  -2.183   5.286   8.120  0.5431  0.5167 -0.0610
   51FTM    C11 3079  -2.226   5.863   7.934 -0.4145  0.7424 -0.2586
   51FTM    C12 3080  -2.179   5.956   7.816 -0.7677 -0.8898 -0.5020
   52TPM     C1 3081  -1.440   5.774   8.386  0.0356  0.1588  0.0614
   52TPM     C2 3082  -1.341   5.830   8.461  0.3688  0.0697 -0.3085
   52TPM     C3 3083  -1.342   5.974   8.460  0.6049  0.0726 -0.4423
   52TPM     C4 3084  -1.443   6.028   8.385  0.4513  0.1638 -0.1747
   52TPM     S1 3085  -1.544   5.900   8.309 -0.0066  0.2539  0.2707
   53BDD     C1 3086  -1.401   6.417   8.408 -0.0365 -0.1194  0.1445
   53BDD     C2 3087  -1.513   6.401   8.331  0.0093 -0.1147  0.0763
   53BDD     C3 3088  -1.550   6.261   8.313  0.0331 -0.1146  0.0269
   53BDD     C4 3089  -1.465   6.174   8.376  0.0052 -0.1192  0.0584
   53BDD     S1 3090  -1.334   6.260   8.463 -0.0536 -0.1240  0.1519
   53BDD     C5 3091  -1.590   6.512   8.271  0.0331 -0.1101  0.0539
   53BDD     C6 3092  -1.667   6.220   8.233  0.0837 -0.1099 -0.0494
   53BDD     O1 3093  -1.699   6.100   8.217  0.1042 -0.1099 -0.0918
   53BDD     O2 3094  -1.558   6.632   8.287  0.0124 -0.1101  0.0963
   53BDD     C7 3095  -1.744   6.331   8.173  0.1074 -0.1053 -0.0715
   53BDD     C8 3096  -1.707   6.470   8.192  0.0833 -0.1054 -0.0222
   53BDD     C9 3097  -1.791   6.558   8.128  0.1115 -0.1009 -0.0536
   53BDD     S2 3098  -1.922   6.471   8.041  0.1703 -0.0961 -0.1472
   53BDD    C10 3099  -1.855   6.314   8.096  0.1534 -0.1007 -0.1397
   53BDD    C11 3100  -1.951   6.194   8.085 -0.8248 -0.5548 -0.1876
   53BDD    C12 3101  -2.061   6.187   8.187 -0.1172  0.0482  0.1069
   53BDD    C13 3102  -2.167   6.297   8.164 -0.6827  0.2503 -0.5688
   53BDD    C14 3103  -2.266   6.287   8.054 -0.1721  0.5679 -0.6629
   53BDD    C15 3104  -2.372   6.390   8.082 -0.0533  0.0276  0.0370
   53BDD    C16 3105  -2.495   6.387   7.987 -0.1267 -0.3334 -0.5156
   53BDD    C17 3106  -2.108   6.042   8.211  0.2889 -0.2624 -0.7047
   53BDD    C18 3107  -2.218   6.026   8.318 -0.1271  0.3436 -0.7600
   53BDD    C19 3108  -1.782   6.711   8.106  0.7324 -0.2812  0.0993
   53BDD    C20 3109  -1.663   6.767   8.022  0.0900 -0.2155 -0.5581
   53BDD    C21 3110  -1.657   6.921   8.001  0.6054 -0.0497 -0.6160
   53BDD    C22 3111  -1.531   6.989   7.971 -0.6114 -0.1146 -0.4571
   53BDD    C23 3112  -1.535   7.137   7.946 -0.5935 -0.1101 -0.4506
   53BDD    C24 3113  -1.397   7.204   7.931 -0.1698 -0.3512  0.4730
   53BDD    C25 3114  -1.617   6.692   7.899 -0.0561  0.4697  0.7909
   53BDD    C26 3115  -1.711   6.687   7.775  0.1526 -0.0087 -0.3217
   54TPM     C1 3116  -1.331   6.525   8.464 -0.2548 -0.1397  0.3258
   54TPM     C2 3117  -1.399   6.628   8.520 -0.1523 -0.0618  0.3071
   54TPM     C3 3118  -1.321   6.706   8.613  0.0284  0.0900  0.0300
   54TPM     C4 3119  -1.193   6.662   8.628  0.0638  0.1278 -0.1621
   54TPM     S1 3120  -1.161   6.517   8.525 -0.1296 -0.0265 -0.0076
   55BDTP    C1 3121  -0.711   6.949   8.920 -0.0577 -0.0497 -0.0496
   55BDTP    C2 3122  -0.816   7.044   8.933 -0.0374 -0.0292 -0.0324
   55BDTP    C3 3123  -0.944   7.021   8.883 -0.0265  0.0314 -0.0885
   55BDTP    C4 3124  -0.969   6.900   8.817 -0.0360  0.0740 -0.1645
   55BDTP    C5 3125  -0.863   6.804   8.805 -0.0565  0.0536 -0.1817
   55BDTP    C6 3126  -0.736   6.827   8.855 -0.0676 -0.0070 -0.1257
   55BDTP    C7 3127  -1.092   6.854   8.758 -0.0273  0.1392 -0.2316
   55BDTP    C8 3128  -1.085   6.731   8.702 -0.0401  0.1682 -0.2975
   55BDTP    S1 3129  -0.920   6.655   8.717 -0.0653  0.1173 -0.2837
   55BDTP    C9 3130  -0.587   6.995   8.980 -0.0665 -0.1148  0.0176
   55BDTP   C10 3131  -0.594   7.118   9.036 -0.0534 -0.1439  0.0837
   55BDTP    S2 3132  -0.759   7.193   9.021 -0.0286 -0.0930  0.0698
   56FTM     S1 3133  -1.082   7.229   8.746 -0.0931  0.0655  0.1446
   56FTM     C1 3134  -1.196   7.325   8.847  0.0199  0.3307  0.0218
   56FTM     C2 3135  -1.197   7.278   8.974 -0.2856  0.2798  0.0033
   56FTM     C3 3136  -1.110   7.167   9.001 -0.6185  0.0371  0.0813
   56FTM     C4 3137  -1.042   7.128   8.890 -0.5655 -0.1020  0.1625
   56FTM     F1 3138  -1.275   7.333   9.075 -0.2820  0.4497 -0.0856
   56FTM     C5 3139  -1.279   7.439   8.791 -0.1104  0.4884  0.2701
   56FTM     C6 3140  -1.218   7.580   8.773 -0.6712  0.4027 -0.2425
   56FTM     C7 3141  -1.332   7.678   8.732 -0.1336  0.2643 -0.0916
   56FTM     C8 3142  -1.380   7.742   8.864  0.5025 -0.2646  0.4446
   56FTM     C9 3143  -1.515   7.804   8.856  0.5028 -0.2668 -0.2388
   56FTM    C10 3144  -1.560   7.865   8.988 -0.2025 -0.9454  0.2230
   56FTM    C11 3145  -1.072   7.597   8.725 -0.2933  0.7114 -0.1771
   56FTM    C12 3146  -1.059   7.587   8.571  0.0808  0.0115  0.5101
   57FTM     S1 3147  -0.464   6.754   8.791  0.3352 -0.1292 -0.4445
   57FTM     C1 3148  -0.421   6.585   8.838  0.1096 -0.1511 -0.3092
   57FTM     C2 3149  -0.529   6.523   8.892  0.1328  0.1680  0.1128
   57FTM     C3 3150  -0.649   6.600   8.901  0.3231  0.4420  0.3510
   57FTM     C4 3151  -0.633   6.726   8.851  0.4492  0.3294  0.1029
   57FTM     F1 3152  -0.525   6.392   8.938 -0.0165  0.2308  0.3085
   57FTM     C5 3153  -0.276   6.543   8.829  0.3558 -0.7528  0.5694
   57FTM     C6 3154  -0.229   6.464   8.704 -0.1064 -0.4697 -0.2642
   57FTM     C7 3155  -0.302   6.330   8.673 -0.1759 -0.2702 -0.2112
   57FTM     C8 3156  -0.281   6.227   8.789  0.0096  0.0022  0.0290
   57FTM     C9 3157  -0.372   6.112   8.805  0.1514 -0.2236 -0.2083
   57FTM    C10 3158  -0.313   6.012   8.902 -0.3017 -0.3527  0.5452
   57FTM    C11 3159  -0.239   6.560   8.582 -0.7834 -0.4416  0.1814
   57FTM    C12 3160  -0.190   6.513   8.440  0.0366  0.5290 -0.0354
   58TPM     C1 3161  -0.481   7.192   9.084 -0.1466 -0.7651  0.2858
   58TPM     C2 3162  -0.487   7.311   9.150 -0.4067 -0.7713  0.2744
   58TPM     C3 3163  -0.361   7.353   9.205 -0.4227 -0.3114 -0.0374
   58TPM     C4 3164  -0.259   7.267   9.180 -0.1743  0.0455 -0.2637
   58TPM     S1 3165  -0.314   7.124   9.084  0.1008 -0.1733 -0.0993
   59BDD     C1 3166   0.050   7.287   9.423 -0.2111  0.3410 -0.0821
   59BDD     C2 3167   0.099   7.314   9.298 -0.1720  0.1966 -0.0987
   59BDD     C3 3168  -0.001   7.309   9.194 -0.1245  0.0002 -0.1357
   59BDD     C4 3169  -0.126   7.278   9.240 -0.1283 -0.0020 -0.1471
   59BDD     S1 3170  -0.127   7.253   9.417 -0.1912  0.2413 -0.1121
   59BDD     C5 3171   0.241   7.346   9.271 -0.1768  0.2334 -0.0808
   59BDD     C6 3172   0.030   7.336   9.052 -0.0772 -0.1779 -0.1585
   59BDD     O1 3173  -0.057   7.331   8.961 -0.0362 -0.3470 -0.1907
   59BDD     O2 3174   0.328   7.350   9.361 -0.2177  0.4027 -0.0489
   59BDD     C7 3175   0.172   7.367   9.024 -0.0820 -0.1408 -0.1407
   59BDD     C8 3176   0.273   7.372   9.129 -0.1295  0.0554 -0.1035
   59BDD     C9 3177   0.397   7.403   9.083 -0.1259  0.0578 -0.0923
   59BDD     S2 3178   0.398   7.428   8.905 -0.0628 -0.1854 -0.1272
   59BDD    C10 3179   0.222   7.394   8.900 -0.0429 -0.2851 -0.1571
   59BDD    C11 3180   0.153   7.402   8.766  0.1190 -0.1649 -0.0617
   59BDD    C12 3181   0.136   7.539   8.695 -0.2193 -0.5794  0.3340
   59BDD    C13 3182   0.265   7.623   8.674 -0.1843 -0.6481  0.0305
   59BDD    C14 3183   0.369   7.560   8.586 -0.1164  0.0806  1.1767
   59BDD    C15 3184   0.482   7.654   8.561 -0.7946 -0.7642 -0.2184
   59BDD    C16 3185   0.613   7.586   8.527 -0.0583  0.6152  0.1498
   59BDD    C17 3186   0.037   7.528   8.577 -0.5383  0.3189  0.2908
   59BDD    C18 3187   0.004   7.657   8.503 -0.1662 -0.1220  0.4944
   59BDD    C19 3188   0.545   7.408   9.140  0.3255  0.3527  1.1944
   59BDD    C20 3189   0.630   7.524   9.094 -0.2150 -0.4198  0.4839
   59BDD    C21 3190   0.775   7.496   9.123 -0.3592 -0.0937  0.0201
   59BDD    C22 3191   0.882   7.581   9.057 -0.7373 -0.2124 -0.3303
   59BDD    C23 3192   0.938   7.550   8.919  0.2622  0.5086  0.3854
   59BDD    C24 3193   1.009   7.416   8.901  0.6813 -0.5447 -0.1538
   59BDD    C25 3194   0.582   7.669   9.133  0.7709  0.5861 -0.3224
   59BDD    C26 3195   0.559   7.701   9.284  0.4390 -0.1382  0.7119
   60TPM     C1 3196   0.098   7.288   9.563  0.2503 -0.1069  0.2315
   60TPM     C2 3197   0.219   7.241   9.606  0.1346 -0.1820  0.4759
   60TPM     C3 3198   0.228   7.230   9.749 -0.1470 -0.1446  0.4990
   60TPM     C4 3199   0.115   7.267   9.815 -0.2460 -0.0408  0.2724
   60TPM     S1 3200  -0.014   7.321   9.700  0.0107  0.0182  0.0094
    1BDTP    C1 3201   0.673   0.205   9.041 -0.0104 -0.1042 -0.1340
    1BDTP    C2 3202   0.674   0.338   8.990 -0.0145 -0.0111  0.1044
    1BDTP    C3 3203   0.558   0.414   8.977 -0.0176  0.0066  0.2351
    1BDTP    C4 3204   0.436   0.356   9.017 -0.0167 -0.0710  0.1254
    1BDTP    C5 3205   0.436   0.223   9.068 -0.0126 -0.1641 -0.1130
    1BDTP    C6 3206   0.551   0.147   9.081 -0.0095 -0.1818 -0.2432
    1BDTP    C7 3207   0.304   0.415   9.013 -0.0194 -0.0701  0.2247
    1BDTP    C8 3208   0.205   0.334   9.058 -0.0176 -0.1570  0.0746
    1BDTP    S1 3209   0.266   0.171   9.112 -0.0123 -0.2520 -0.2141
    1BDTP    C9 3210   0.806   0.146   9.045 -0.0077 -0.1050 -0.2332
    1BDTP   C10 3211   0.904   0.227   9.000 -0.0095 -0.0182 -0.0830
    1BDTP    S2 3212   0.843   0.390   8.946 -0.0148  0.0768  0.2056
    2FTM     S1 3213   0.567   0.700   9.015  0.0834  0.0138 -0.0945
    2FTM     C1 3214   0.589   0.800   8.866  0.2216  0.2089  0.0553
    2FTM     C2 3215   0.593   0.719   8.757  0.4940  0.3396 -0.0308
    2FTM     C3 3216   0.581   0.578   8.781  0.6091  0.2971 -0.2146
    2FTM     C4 3217   0.566   0.550   8.913  0.4186  0.1283 -0.2706
    2FTM     F1 3218   0.609   0.768   8.628  0.6553  0.5056  0.0510
    2FTM     C5 3219   0.567   0.947   8.872 -0.2806  0.0494  0.2368
    2FTM     C6 3220   0.665   1.051   8.928 -0.5491 -0.3184 -0.6788
    2FTM     C7 3221   0.811   1.052   8.864  0.5833  0.2638  0.4419
    2FTM     C8 3222   0.841   1.005   8.715  0.3801  0.3346 -0.0123
    2FTM     C9 3223   0.986   1.033   8.674 -0.4003 -0.0307  0.0874
    2FTM    C10 3224   1.019   0.999   8.529  0.0593  0.1182  0.1656
    2FTM    C11 3225   0.605   1.188   8.952 -0.3051  0.1236 -0.3360
    2FTM    C12 3226   0.571   1.267   8.825 -0.1797  0.0706  0.3850
    3FTM     S1 3227   0.652  -0.123   9.077  0.2399 -0.0266  0.1367
    3FTM     C1 3228   0.603  -0.225   9.217  0.0166  0.3230  0.3147
    3FTM     C2 3229   0.516  -0.156   9.296 -0.2093  0.4778 -0.0629
    3FTM     C3 3230   0.484  -0.023   9.253 -0.2223  0.3374 -0.5028
    3FTM     C4 3231   0.548   0.011   9.138  0.0011  0.0661 -0.4610
    3FTM     F1 3232   0.461  -0.210   9.411 -0.4178  0.7560 -0.0324
    3FTM     C5 3233   0.652  -0.365   9.244 -0.4294  0.4631  0.0308
    3FTM     C6 3234   0.800  -0.407   9.271  0.0997  0.1152  0.2142
    3FTM     C7 3235   0.811  -0.563   9.292  0.2947 -0.0529 -0.0578
    3FTM     C8 3236   0.951  -0.622   9.310 -0.0812 -0.1514  0.1671
    3FTM     C9 3237   1.035  -0.603   9.181 -0.1505 -0.1596 -0.3572
    3FTM    C10 3238   1.171  -0.660   9.203 -0.5390  0.1397  0.1665
    3FTM    C11 3239   0.879  -0.328   9.375  0.2684 -0.4899  0.1053
    3FTM    C12 3240   0.825  -0.321   9.514  0.6607 -1.0323 -0.6800
    4TPM     C1 3241   1.043   0.204   8.998  0.0330 -0.3437  0.3447
    4TPM     C2 3242   1.143   0.288   9.038  0.1017 -0.4866  0.4747
    4TPM     C3 3243   1.275   0.233   9.020  0.0562 -0.5762  0.4113
    4TPM     C4 3244   1.276   0.107   8.967 -0.0472 -0.5017  0.2328
    4TPM     S1 3245   1.109   0.048   8.934 -0.0954 -0.3110  0.1300
    5BDD     C1 3246   1.643  -0.019   8.984 -0.1205  0.1391  0.0555
    5BDD     C2 3247   1.593  -0.073   8.869 -0.1005  0.1266  0.0527
    5BDD     C3 3248   1.453  -0.041   8.847 -0.1397 -0.0060  0.1049
    5BDD     C4 3249   1.399   0.037   8.945 -0.1892 -0.0923  0.1464
    5BDD     S1 3250   1.519   0.076   9.072 -0.1900 -0.0138  0.1235
    5BDD     C5 3251   1.671  -0.157   8.776 -0.0444  0.2358  0.0017
    5BDD     C6 3252   1.378  -0.089   8.729 -0.1268 -0.0420  0.1109
    5BDD     O1 3253   1.258  -0.061   8.709 -0.1607 -0.1562  0.1559
    5BDD     O2 3254   1.792  -0.185   8.795 -0.0105  0.3498 -0.0434
    5BDD     C7 3255   1.457  -0.173   8.635 -0.0708  0.0672  0.0606
    5BDD     C8 3256   1.596  -0.205   8.658 -0.0315  0.1996  0.0083
    5BDD     C9 3257   1.650  -0.283   8.560  0.0180  0.2859 -0.0336
    5BDD     S2 3258   1.530  -0.322   8.432  0.0188  0.2074 -0.0106
    5BDD    C10 3259   1.406  -0.227   8.520 -0.0507  0.0544  0.0577
    5BDD    C11 3260   1.270  -0.215   8.458  0.4543  0.4692 -0.1495
    5BDD    C12 3261   1.173  -0.339   8.461 -0.5401  0.3922  0.0386
    5BDD    C13 3262   1.153  -0.406   8.595 -0.7119  0.4249  0.4597
    5BDD    C14 3263   1.068  -0.324   8.690 -0.5688  0.6329  0.5741
    5BDD    C15 3264   1.076  -0.373   8.837  0.2965  0.1851  0.1800
    5BDD    C16 3265   0.967  -0.302   8.919  0.6870 -0.5545  0.2876
    5BDD    C17 3266   1.043  -0.344   8.381 -0.1912 -0.2384 -0.5379
    5BDD    C18 3267   1.053  -0.317   8.231 -0.3963  0.2482 -0.0426
    5BDD    C19 3268   1.796  -0.319   8.523  0.3168  0.4924 -0.2290
    5BDD    C20 3269   1.875  -0.201   8.458 -0.2543 -0.2615  0.0134
    5BDD    C21 3270   1.827  -0.150   8.317 -0.2377  0.3750  0.2086
    5BDD    C22 3271   1.885  -0.013   8.270 -0.0099 -0.0214 -0.7350
    5BDD    C23 3272   1.848   0.038   8.129  0.5106  0.5620 -0.0095
    5BDD    C24 3273   1.698   0.086   8.117  0.5659  0.0182  0.2021
    5BDD    C25 3274   2.029  -0.215   8.466  1.0069 -0.3594 -0.3708
    5BDD    C26 3275   2.097  -0.325   8.390  0.4026  0.5744  0.3732
    6TPM     C1 3276   1.777  -0.006   9.050  0.1956  0.3021  0.1044
    6TPM     C2 3277   1.877  -0.099   9.042  0.5773  0.7234 -0.1118
    6TPM     C3 3278   1.988  -0.072   9.128  0.4996  1.0145 -0.0997
    6TPM     C4 3279   1.974   0.041   9.203  0.0588  0.8154  0.1265
    6TPM     S1 3280   1.817   0.124   9.169 -0.2953  0.2401  0.3425
    7BDTP    C1 3281   2.386   0.252   9.623 -0.0342  0.0902  0.0870
    7BDTP    C2 3282   2.270   0.328   9.654 -0.0332  0.0651  0.1538
    7BDTP    C3 3283   2.150   0.314   9.585 -0.0736  0.0298  0.2313
    7BDTP    C4 3284   2.144   0.219   9.481 -0.1172  0.0186  0.2437
    7BDTP    C5 3285   2.261   0.143   9.450 -0.1181  0.0437  0.1769
    7BDTP    C6 3286   2.380   0.157   9.519 -0.0777  0.0790  0.0992
    7BDTP    C7 3287   2.032   0.187   9.396 -0.1637 -0.0166  0.3182
    7BDTP    C8 3288   2.057   0.091   9.304 -0.1991 -0.0191  0.3111
    7BDTP    S1 3289   2.228   0.028   9.312 -0.1785  0.0227  0.2086
    7BDTP    C9 3290   2.498   0.284   9.708  0.0123  0.1254  0.0124
    7BDTP   C10 3291   2.473   0.380   9.800  0.0477  0.1279  0.0196
    7BDTP    S2 3292   2.302   0.443   9.792  0.0271  0.0860  0.1220
    8FTM     S1 3293   1.919   0.371   9.737  0.1486 -0.0782 -0.1789
    8FTM     C1 3294   1.847   0.534   9.708  0.1086  0.0195  0.4299
    8FTM     C2 3295   1.914   0.596   9.607 -0.0274  0.3378  0.5341
    8FTM     C3 3296   2.022   0.523   9.548 -0.1069  0.5206  0.1562
    8FTM     C4 3297   2.039   0.401   9.605 -0.0291  0.3364 -0.2507
    8FTM     F1 3298   1.881   0.723   9.562 -0.0879  0.4824  0.9782
    8FTM     C5 3299   1.724   0.558   9.787 -0.3385 -0.2511 -0.2368
    8FTM     C6 3300   1.745   0.625   9.928 -0.5592  0.6948 -0.5538
    8FTM     C7 3301   1.813   0.527  10.031  0.6615  0.3016  0.5564
    8FTM     C8 3302   1.712   0.420  10.083  0.2532 -0.0606  0.4170
    8FTM     C9 3303   1.790   0.306  10.145 -0.0406  0.3690  0.9731
    8FTM    C10 3304   1.697   0.194  10.176 -0.4459  0.4334 -0.0565
    8FTM    C11 3305   1.804   0.768   9.932  0.0199 -0.3184 -0.9719
    8FTM    C12 3306   1.726   0.878   9.860 -0.3225  0.0509  0.5405
    9FTM     S1 3307   2.550   0.076   9.291  0.1327  0.1510 -0.1112
    9FTM     C1 3308   2.701  -0.011   9.336  0.5426  0.8003 -0.2076
    9FTM     C2 3309   2.710  -0.022   9.471  0.7510  0.9701 -0.2079
    9FTM     C3 3310   2.603   0.036   9.547  0.6081  0.6146 -0.1352
    9FTM     C4 3311   2.508   0.092   9.467  0.2796  0.1574 -0.0772
    9FTM     F1 3312   2.816  -0.084   9.535  1.0835  1.4579 -0.2737
    9FTM     C5 3313   2.798  -0.067   9.224  0.5815  0.0964 -0.6799
    9FTM     C6 3314   2.776  -0.051   9.072  0.1184  0.0536 -0.5859
    9FTM     C7 3315   2.775   0.089   9.022 -0.4640  0.4876  0.6470
    9FTM     C8 3316   2.913   0.153   8.999  0.0007 -0.2178 -0.5831
    9FTM     C9 3317   2.897   0.299   8.994 -0.8027 -1.1645 -0.3857
    9FTM    C10 3318   3.018   0.366   8.931 -0.2259 -0.4790 -0.3276
    9FTM    C11 3319   2.658  -0.133   9.014  0.0734 -0.5123  0.1032
    9FTM    C12 3320   2.663  -0.283   9.036  0.6755 -0.2891 -0.0140
   10TPM     C1 3321   2.562   0.419   9.911  0.0482 -0.4090  0.2899
   10TPM     C2 3322   2.526   0.481  10.026  0.0125 -0.4930  0.3240
   10TPM     C3 3323   2.637   0.509  10.114  0.0276 -0.2665  0.2347
   10TPM     C4 3324   2.757   0.468  10.066  0.0749 -0.0098  0.1326
   10TPM     S1 3325   2.740   0.390   9.904  0.1041 -0.0344  0.1413
   11BDD     C1 3326   3.081   0.343  10.243  0.2361  0.0214 -0.1395
   11BDD     C2 3327   3.058   0.468  10.293  0.1903 -0.0285 -0.0366
   11BDD     C3 3328   2.937   0.529  10.242  0.1341 -0.0566  0.0626
   11BDD     C4 3329   2.869   0.450  10.154  0.1379 -0.0278  0.0340
   11BDD     S1 3330   2.953   0.294  10.128  0.2121  0.0366 -0.1192
   11BDD     C5 3331   3.147   0.535  10.390  0.1964 -0.0522 -0.0257
   11BDD     C6 3332   2.893   0.664  10.283  0.0786 -0.1111  0.1823
   11BDD     O1 3333   2.788   0.717  10.240  0.0301 -0.1353  0.2678
   11BDD     O2 3334   3.252   0.482  10.434  0.2449 -0.0279 -0.1113
   11BDD     C7 3335   2.982   0.732  10.381  0.0847 -0.1347  0.1931
   11BDD     C8 3336   3.103   0.670  10.431  0.1409 -0.1066  0.0939
   11BDD     C9 3337   3.171   0.749  10.520  0.1372 -0.1355  0.1226
   11BDD     S2 3338   3.087   0.906  10.546  0.0629 -0.1998  0.2758
   11BDD    C10 3339   2.959   0.856  10.431  0.0389 -0.1846  0.2960
   11BDD    C11 3340   2.846   0.958  10.433 -0.1771  0.0942 -0.1384
   11BDD    C12 3341   2.822   1.038  10.292  0.1773  0.1338 -1.1580
   11BDD    C13 3342   2.944   1.085  10.219 -0.5261 -0.1942 -0.3105
   11BDD    C14 3343   3.030   1.188  10.290  0.4371  0.3614 -0.2658
   11BDD    C15 3344   3.116   1.264  10.198 -0.6805  0.4540 -0.9790
   11BDD    C16 3345   3.202   1.380  10.256  0.5627  0.1965  0.1835
   11BDD    C17 3346   2.699   1.126  10.305 -0.1017 -0.6031  0.3618
   11BDD    C18 3347   2.700   1.257  10.387 -0.7773  0.4660 -0.2211
   11BDD    C19 3348   3.308   0.738  10.592  0.7265  0.1174 -0.0813
   11BDD    C20 3349   3.432   0.785  10.523 -0.3668 -0.0452 -0.2156
   11BDD    C21 3350   3.417   0.926  10.467 -0.2612 -0.5348  0.2279
   11BDD    C22 3351   3.513   0.987  10.367  0.0713  0.4535  0.0378
   11BDD    C23 3352   3.479   1.131  10.329  0.2068  1.1427  0.6041
   11BDD    C24 3353   3.569   1.154  10.211  0.4013 -1.0138  0.1271
   11BDD    C25 3354   3.564   0.754  10.595 -0.2398 -0.3232 -0.2956
   11BDD    C26 3355   3.611   0.832  10.718  0.3916 -0.4435 -0.1782
   12TPM     C1 3356   3.178   0.229  10.261  0.1549 -0.2943 -0.0903
   12TPM     C2 3357   3.145   0.097  10.266  0.3201 -0.3327  0.0140
   12TPM     C3 3358   3.253   0.012  10.307  0.4017 -0.1556  0.1727
   12TPM     C4 3359   3.369   0.078  10.333  0.2988  0.0178  0.1894
   12TPM     S1 3360   3.350   0.256  10.308  0.0891 -0.0295  0.0046
   13BDTP    C1 3361   3.861  -0.130  10.666  0.0204 -0.1667 -0.3135
   13BDTP    C2 3362   3.770  -0.239  10.674  0.0040 -0.1433 -0.1736
   13BDTP    C3 3363   3.647  -0.238  10.610 -0.0773 -0.1283 -0.0180
   13BDTP    C4 3364   3.612  -0.125  10.534 -0.1457 -0.1366  0.0007
   13BDTP    C5 3365   3.703  -0.016  10.527 -0.1294 -0.1599 -0.1392
   13BDTP    C6 3366   3.827  -0.016  10.591 -0.0481 -0.1749 -0.2947
   13BDTP    C7 3367   3.490  -0.101  10.460 -0.2352 -0.1244  0.1494
   13BDTP    C8 3368   3.486   0.019  10.397 -0.2862 -0.1372  0.1281
   13BDTP    S1 3369   3.636   0.119  10.424 -0.2280 -0.1666 -0.0831
   13BDTP    C9 3370   3.983  -0.154  10.741  0.1099 -0.1788 -0.4621
   13BDTP   C10 3371   3.988  -0.274  10.804  0.1608 -0.1659 -0.4410
   13BDTP    S2 3372   3.838  -0.374  10.777  0.1026 -0.1368 -0.2296
   14FTM     S1 3373   3.492  -0.421  10.462  0.3642 -0.0688 -0.1336
   14FTM     C1 3374   3.419  -0.559  10.553  0.0377 -0.0608 -0.3794
   14FTM     C2 3375   3.453  -0.551  10.684 -0.5715  0.0441 -0.2239
   14FTM     C3 3376   3.535  -0.440  10.722 -0.8155  0.1223  0.0884
   14FTM     C4 3377   3.565  -0.360  10.615 -0.3789  0.0763  0.1748
   14FTM     F1 3378   3.411  -0.643  10.779 -0.9444  0.0749 -0.3550
   14FTM     C5 3379   3.334  -0.656  10.478 -0.7620  0.0820 -0.8320
   14FTM     C6 3380   3.228  -0.756  10.550 -0.0804 -0.4076 -0.0390
   14FTM     C7 3381   3.187  -0.854  10.439 -0.3176 -0.1389 -0.2078
   14FTM     C8 3382   3.261  -0.984  10.457 -0.2324  0.6220 -0.1081
   14FTM     C9 3383   3.259  -1.047  10.321 -0.7104 -0.1114 -0.1877
   14FTM    C10 3384   3.298  -1.193  10.338  0.0551 -0.0475 -0.1074
   14FTM    C11 3385   3.114  -0.687  10.632  0.1547 -0.4175 -0.3286
   14FTM    C12 3386   3.003  -0.617  10.561  0.7879 -0.1857 -0.0824
   15FTM     S1 3387   4.009   0.089  10.396 -0.0001 -0.1138  0.1381
   15FTM     C1 3388   4.100   0.236  10.447 -0.2351  0.1029 -0.0639
   15FTM     C2 3389   4.068   0.268  10.575 -0.2701  0.2161 -0.1006
   15FTM     C3 3390   3.973   0.182  10.640 -0.1198  0.1430  0.0231
   15FTM     C4 3391   3.931   0.081  10.558  0.0352 -0.0318  0.1590
   15FTM     F1 3392   4.122   0.377  10.641 -0.4402  0.3926 -0.2484
   15FTM     C5 3393   4.204   0.300  10.369  0.1280 -0.2916  0.2113
   15FTM     C6 3394   4.261   0.242  10.238 -0.4602  0.5499 -0.3291
   15FTM     C7 3395   4.199   0.272  10.104  0.1076 -0.4921  0.4295
   15FTM     C8 3396   4.187   0.417  10.039  0.0570 -0.0226 -0.4390
   15FTM     C9 3397   4.317   0.470   9.987 -0.1087 -0.2962  0.2634
   15FTM    C10 3398   4.293   0.586   9.890 -0.0975  0.7598 -0.2405
   15FTM    C11 3399   4.326   0.101  10.253 -0.5873 -0.6753 -0.0845
   15FTM    C12 3400   4.442   0.078  10.352  0.1242 -0.6238  0.3874
   16TPM     C1 3401   4.073  -0.310  10.916  0.0603 -0.3592  0.0449
   16TPM     C2 3402   4.032  -0.383  11.024 -0.2370 -0.0515  0.1420
   16TPM     C3 3403   4.121  -0.376  11.137 -0.4544  0.1206  0.3050
   16TPM     C4 3404   4.230  -0.298  11.115 -0.3229 -0.0556  0.3321
   16TPM     S1 3405   4.230  -0.226  10.950  0.0892 -0.4558  0.1526
   17BDD     C1 3406   4.514  -0.292  11.389 -0.0546 -0.0048 -0.0465
   17BDD     C2 3407   4.454  -0.169  11.394 -0.0275  0.0093 -0.0679
   17BDD     C3 3408   4.346  -0.154  11.298 -0.0628 -0.0041 -0.0303
   17BDD     C4 3409   4.325  -0.265  11.222 -0.1161 -0.0279  0.0191
   17BDD     S1 3410   4.439  -0.397  11.264 -0.1259 -0.0355  0.0220
   17BDD     C5 3411   4.495  -0.062  11.487  0.0315  0.0350 -0.1235
   17BDD     C6 3412   4.268  -0.029  11.287 -0.0424  0.0072 -0.0448
   17BDD     O1 3413   4.175  -0.015  11.204 -0.0730 -0.0043 -0.0124
   17BDD     O2 3414   4.588  -0.075  11.569  0.0618  0.0467 -0.1559
   17BDD     C7 3415   4.309   0.079  11.379  0.0166  0.0331 -0.1005
   17BDD     C8 3416   4.417   0.063  11.475  0.0519  0.0465 -0.1380
   17BDD     C9 3417   4.438   0.174  11.552  0.1051  0.0706 -0.1875
   17BDD     S2 3418   4.324   0.306  11.509  0.1147  0.0779 -0.1904
   17BDD    C10 3419   4.249   0.202  11.385  0.0435  0.0472 -0.1218
   17BDD    C11 3420   4.134   0.269  11.311  0.4523 -0.0442 -1.2013
   17BDD    C12 3421   4.163   0.369  11.203 -0.4859 -0.8611  0.3539
   17BDD    C13 3422   4.038   0.466  11.185  0.1343  0.5036  0.5120
   17BDD    C14 3423   4.073   0.574  11.083  0.1468  0.2598  0.1898
   17BDD    C15 3424   3.940   0.617  11.017 -0.1100  0.0303 -0.4842
   17BDD    C16 3425   3.961   0.737  10.921 -0.0253 -0.3288  0.1570
   17BDD    C17 3426   4.243   0.313  11.087  0.4659  0.0709 -0.2699
   17BDD    C18 3427   4.165   0.223  10.996  0.2640  0.6607  0.6837
   17BDD    C19 3428   4.539   0.207  11.657 -0.4159  0.0122 -0.6486
   17BDD    C20 3429   4.495   0.203  11.812 -0.2709  0.2463 -0.2141
   17BDD    C21 3430   4.360   0.271  11.833 -0.3746 -1.2775 -0.2149
   17BDD    C22 3431   4.302   0.269  11.971  0.4226  0.7189 -0.2734
   17BDD    C23 3432   4.242   0.131  12.000 -0.6451  0.3372 -0.0548
   17BDD    C24 3433   4.206   0.119  12.150  0.1154  0.3591 -0.2995
   17BDD    C25 3434   4.601   0.239  11.920 -0.0520 -0.1886  0.5127
   17BDD    C26 3435   4.726   0.157  11.910 -0.2824  0.3009 -0.5440
   18TPM     C1 3436   4.626  -0.359  11.453 -0.3700 -0.1514  0.1069
   18TPM     C2 3437   4.641  -0.353  11.589 -0.4939 -0.3409  0.1291
   18TPM     C3 3438   4.733  -0.451  11.640 -0.3806 -0.2754  0.0522
   18TPM     C4 3439   4.788  -0.531  11.545 -0.1703 -0.0352 -0.0286
   18TPM     S1 3440   4.727  -0.488  11.380 -0.0984  0.1271 -0.0137
   19BDTP    C1 3441   5.207  -0.990  11.642 -0.1172 -0.2005 -0.0298
   19BDTP    C2 3442   5.166  -1.014  11.507 -0.0408 -0.1459 -0.0627
   19BDTP    C3 3443   5.071  -0.936  11.443  0.0101 -0.1075 -0.0922
   19BDTP    C4 3444   5.012  -0.830  11.515 -0.0153 -0.1235 -0.0892
   19BDTP    C5 3445   5.053  -0.806  11.649 -0.0917 -0.1781 -0.0563
   19BDTP    C6 3446   5.149  -0.884  11.714 -0.1426 -0.2165 -0.0268
   19BDTP    C7 3447   4.912  -0.736  11.470  0.0273 -0.0907 -0.1161
   19BDTP    C8 3448   4.875  -0.644  11.562 -0.0132 -0.1180 -0.1051
   19BDTP    S1 3449   4.964  -0.664  11.720 -0.1107 -0.1886 -0.0591
   19BDTP    C9 3450   5.308  -1.084  11.687 -0.1597 -0.2332 -0.0029
   19BDTP   C10 3451   5.344  -1.176  11.595 -0.1193 -0.2062 -0.0139
   19BDTP    S2 3452   5.256  -1.156  11.437 -0.0218 -0.1354 -0.0599
   20FTM     S1 3453   4.884  -0.942  11.220  0.0234  0.1180 -0.2482
   20FTM     C1 3454   4.960  -0.948  11.057  0.3633 -0.2560 -0.0801
   20FTM     C2 3455   5.095  -0.955  11.069  0.3275 -0.4640  0.2186
   20FTM     C3 3456   5.147  -0.957  11.202  0.0403 -0.3479  0.3321
   20FTM     C4 3457   5.048  -0.950  11.296 -0.1500 -0.0408  0.1132
   20FTM     F1 3458   5.180  -0.961  10.959  0.5524 -0.7718  0.4068
   20FTM     C5 3459   4.865  -0.935  10.940 -0.2460  0.4490 -0.2418
   20FTM     C6 3460   4.818  -1.068  10.872 -0.0391  0.8424 -0.9795
   20FTM     C7 3461   4.920  -1.167  10.818 -1.1320  0.3131  0.0212
   20FTM     C8 3462   5.007  -1.128  10.694  0.0465  0.3200  0.3517
   20FTM     C9 3463   4.910  -1.111  10.570 -0.3018  0.0136 -0.1841
   20FTM    C10 3464   4.969  -1.039  10.455 -0.4016 -0.0565  0.5869
   20FTM    C11 3465   4.717  -1.157  10.947 -0.1604  0.1161  0.2312
   20FTM    C12 3466   4.582  -1.092  10.986 -0.1292 -0.0655  0.3134
   21FTM     S1 3467   5.337  -0.822  11.916  0.0210  0.0204  0.1838
   21FTM     C1 3468   5.279  -0.831  12.087 -0.3790  0.1424  0.0563
   21FTM     C2 3469   5.148  -0.869  12.089 -0.3939  0.1705 -0.2242
   21FTM     C3 3470   5.087  -0.892  11.962 -0.1025  0.1004 -0.3538
   21FTM     C4 3471   5.173  -0.872  11.859  0.1440  0.0163 -0.1666
   21FTM     F1 3472   5.076  -0.884  12.207 -0.6726  0.2611 -0.3803
   21FTM     C5 3473   5.369  -0.762  12.191  0.4251  0.3141 -0.5592
   21FTM     C6 3474   5.510  -0.823  12.219 -0.2344 -1.1047  0.7748
   21FTM     C7 3475   5.528  -0.971  12.229  0.3111 -0.1349  0.0477
   21FTM     C8 3476   5.436  -1.060  12.327 -0.3293  0.2946  1.2073
   21FTM     C9 3477   5.484  -1.204  12.332  0.1572 -0.7102 -0.3244
   21FTM    C10 3478   5.408  -1.268  12.449  0.6110 -0.1680 -0.5611
   21FTM    C11 3479   5.624  -0.773  12.131 -0.2822 -0.7277 -0.2407
   21FTM    C12 3480   5.653  -0.624  12.146 -0.0351 -0.0089  0.1443
   22TPM     C1 3481   5.444  -1.275  11.606 -0.0602 -0.0227 -0.0138
   22TPM     C2 3482   5.532  -1.286  11.710 -0.0626 -0.0496 -0.0148
   22TPM     C3 3483   5.618  -1.401  11.700 -0.0706 -0.0539 -0.0367
   22TPM     C4 3484   5.596  -1.478  11.590 -0.0742 -0.0303 -0.0522
   22TPM     S1 3485   5.464  -1.410  11.487 -0.0681 -0.0007 -0.0404
   23BDD     C1 3486   5.653  -1.857  11.490 -0.0909  0.0552  0.0129
   23BDD     C2 3487   5.749  -1.831  11.584 -0.0761  0.0376  0.0027
   23BDD     C3 3488   5.750  -1.693  11.629  0.0063  0.0559 -0.0558
   23BDD     C4 3489   5.655  -1.615  11.569  0.0533  0.0874 -0.0895
   23BDD     S1 3490   5.557  -1.710  11.452 -0.0025  0.0962 -0.0501
   23BDD     C5 3491   5.843  -1.933  11.636 -0.1371  0.0032  0.0464
   23BDD     C6 3492   5.846  -1.643  11.730  0.0355  0.0417 -0.0764
   23BDD     O1 3493   5.847  -1.524  11.769  0.1065  0.0575 -0.1270
   23BDD     O2 3494   5.842  -2.052  11.597 -0.2080 -0.0128  0.0969
   23BDD     C7 3495   5.940  -1.745  11.782 -0.0255  0.0070 -0.0327
   23BDD     C8 3496   5.939  -1.883  11.737 -0.1078 -0.0112  0.0259
   23BDD     C9 3497   6.034  -1.960  11.797 -0.1546 -0.0429  0.0595
   23BDD     S2 3498   6.132  -1.866  11.914 -0.0990 -0.0517  0.0201
   23BDD    C10 3499   6.036  -1.719  11.876 -0.0107 -0.0107 -0.0429
   23BDD    C11 3500   6.077  -1.602  11.958  0.2898  0.1788 -0.1990
   23BDD    C12 3501   6.222  -1.554  11.962 -0.1005  0.0338  0.0317
   23BDD    C13 3502   6.256  -1.441  12.059  0.1159  0.7311 -0.2797
   23BDD    C14 3503   6.205  -1.440  12.207  0.0150  0.3423 -0.6247
   23BDD    C15 3504   6.235  -1.317  12.300  0.2428  0.2961  0.9396
   23BDD    C16 3505   6.377  -1.277  12.305 -0.6278  0.1948  0.0349
   23BDD    C17 3506   6.301  -1.549  11.823 -0.3340 -0.2862 -0.7978
   23BDD    C18 3507   6.261  -1.443  11.730  0.2677 -0.1132 -0.1249
   23BDD    C19 3508   6.065  -2.112  11.799 -0.4364  0.2469  0.3723
   23BDD    C20 3509   5.956  -2.206  11.841 -0.2829  0.3290 -0.6515
   23BDD    C21 3510   5.852  -2.160  11.943  0.4662  0.5589  0.6207
   23BDD    C22 3511   5.908  -2.132  12.077  0.8278 -0.5083  0.2298
   23BDD    C23 3512   5.823  -2.023  12.139  0.5077  0.1584 -0.4193
   23BDD    C24 3513   5.856  -2.004  12.287 -0.2467  0.0276  0.0875
   23BDD    C25 3514   5.980  -2.358  11.850  1.1329  0.7796  0.0454
   23BDD    C26 3515   6.011  -2.417  11.708  0.1590 -0.2056 -0.9231
   24TPM     C1 3516   5.589  -1.980  11.430 -0.1411 -0.5993  0.3048
   24TPM     C2 3517   5.656  -2.096  11.403 -0.4152 -0.9865  1.2074
   24TPM     C3 3518   5.575  -2.197  11.342 -0.5085 -1.0507  1.4346
   24TPM     C4 3519   5.445  -2.159  11.322 -0.3057 -0.7125  0.7053
   24TPM     S1 3520   5.417  -1.990  11.379  0.0217 -0.2833 -0.3332
   25BDTP    C1 3521   5.034  -2.504  10.996  0.2748  0.0427  0.0670
   25BDTP    C2 3522   5.023  -2.375  10.934  0.1752 -0.0142 -0.0348
   25BDTP    C3 3523   5.096  -2.265  10.977  0.0203  0.0991 -0.0632
   25BDTP    C4 3524   5.183  -2.282  11.086 -0.0395  0.2772  0.0123
   25BDTP    C5 3525   5.193  -2.410  11.148  0.0600  0.3340  0.1141
   25BDTP    C6 3526   5.121  -2.520  11.105  0.2149  0.2208  0.1425
   25BDTP    C7 3527   5.268  -2.182  11.149 -0.1959  0.4187  0.0011
   25BDTP    C8 3528   5.341  -2.229  11.253 -0.2183  0.5772  0.0885
   25BDTP    S1 3529   5.312  -2.405  11.286 -0.0446  0.5695  0.1973
   25BDTP    C9 3530   4.949  -2.603  10.933  0.4311 -0.0988  0.0782
   25BDTP   C10 3531   4.876  -2.556  10.829  0.4536 -0.2574 -0.0092
   25BDTP    S2 3532   4.904  -2.380  10.796  0.2799 -0.2496 -0.1180
   26FTM     S1 3533   4.921  -2.059  10.859 -0.0891  0.3624  0.1991
   26FTM     C1 3534   5.005  -1.914  10.794  0.1665  0.0896 -0.0882
   26FTM     C2 3535   5.139  -1.925  10.813  0.1719 -0.2282 -0.3079
   26FTM     C3 3536   5.184  -2.045  10.877 -0.0176 -0.2779 -0.2673
   26FTM     C4 3537   5.081  -2.128  10.909 -0.1733  0.0114 -0.0079
   26FTM     F1 3538   5.230  -1.828  10.772  0.3490 -0.4930 -0.5589
   26FTM     C5 3539   4.929  -1.802  10.717 -0.8109 -0.1846 -0.3202
   26FTM     C6 3540   4.874  -1.690  10.804  0.0561  0.2229 -0.4073
   26FTM     C7 3541   4.773  -1.736  10.909  0.7746  0.1706  0.6804
   26FTM     C8 3542   4.827  -1.747  11.046 -0.6116 -0.1346 -0.0764
   26FTM     C9 3543   4.721  -1.785  11.140  0.6610 -0.1224  0.0204
   26FTM    C10 3544   4.757  -1.787  11.284 -0.0114  0.8600 -1.0498
   26FTM    C11 3545   4.831  -1.565  10.726 -0.2170 -0.5736 -0.4343
   26FTM    C12 3546   4.693  -1.564  10.652 -0.6008 -0.4247  0.0974
   27FTM     S1 3547   5.088  -2.651  11.351  0.2493 -0.0501  0.1964
   27FTM     C1 3548   5.118  -2.829  11.353  0.2852 -0.0449  0.1132
   27FTM     C2 3549   5.152  -2.871  11.228  0.4002  0.0387  0.1157
   27FTM     C3 3550   5.156  -2.771  11.126  0.4662  0.1025  0.1808
   27FTM     C4 3551   5.125  -2.648  11.174  0.3992  0.0664  0.2298
   27FTM     F1 3552   5.182  -3.004  11.199  0.4530  0.0627  0.0591
   27FTM     C5 3553   5.102  -2.910  11.476 -0.3388 -0.7358  0.7600
   27FTM     C6 3554   5.191  -2.896  11.598  0.3385  0.4176  0.1297
   27FTM     C7 3555   5.155  -3.011  11.691 -0.1929  0.5355 -0.8966
   27FTM     C8 3556   5.204  -3.156  11.661 -0.3517 -0.6270 -0.7522
   27FTM     C9 3557   5.181  -3.254  11.773 -0.1236  0.3206  0.0922
   27FTM    C10 3558   5.215  -3.395  11.727  0.1303 -0.2232 -0.3666
   27FTM    C11 3559   5.213  -2.755  11.643 -0.1003 -0.5958 -0.2824
   27FTM    C12 3560   5.296  -2.751  11.777  0.2761  0.0940  0.0405
   28TPM     C1 3561   4.790  -2.632  10.745 -0.0453 -0.5592  0.0646
   28TPM     C2 3562   4.730  -2.749  10.781 -0.3315 -0.4017  0.1046
   28TPM     C3 3563   4.650  -2.808  10.676 -0.4828 -0.2382  0.1278
   28TPM     C4 3564   4.649  -2.736  10.561 -0.3120 -0.2707  0.1055
   28TPM     S1 3565   4.750  -2.587  10.575  0.0560 -0.5128  0.0530
   29BDD     C1 3566   4.376  -2.706  10.275 -0.0458  0.0842 -0.1613
   29BDD     C2 3567   4.405  -2.840  10.284 -0.0476  0.0865 -0.1197
   29BDD     C3 3568   4.504  -2.870  10.386 -0.1062  0.1079 -0.0560
   29BDD     C4 3569   4.549  -2.760  10.453 -0.1482  0.1214 -0.0501
   29BDD     S1 3570   4.470  -2.610  10.393 -0.1172  0.1085 -0.1237
   29BDD     C5 3571   4.343  -2.944  10.200  0.0044  0.0693 -0.1369
   29BDD     C6 3572   4.550  -3.008  10.413 -0.1185  0.1141 -0.0034
   29BDD     O1 3573   4.635  -3.035  10.501 -0.1690  0.1324  0.0515
   29BDD     O2 3574   4.257  -2.917  10.112  0.0550  0.0509 -0.1918
   29BDD     C7 3575   4.488  -3.112  10.329 -0.0664  0.0968 -0.0206
   29BDD     C8 3576   4.389  -3.082  10.227 -0.0077  0.0755 -0.0843
   29BDD     C9 3577   4.344  -3.192  10.160  0.0342  0.0620 -0.0902
   29BDD     S2 3578   4.422  -3.342  10.220  0.0032  0.0749 -0.0166
   29BDD    C10 3579   4.517  -3.246  10.338 -0.0683  0.0993  0.0210
   29BDD    C11 3580   4.607  -3.332  10.430  0.5296  0.0020  0.3297
   29BDD    C12 3581   4.547  -3.395  10.556  0.3965 -0.4032  0.9002
   29BDD    C13 3582   4.422  -3.491  10.528  0.4263 -0.5842 -0.5454
   29BDD    C14 3583   4.462  -3.621  10.462  0.1842  0.1173  0.0738
   29BDD    C15 3584   4.344  -3.702  10.409 -0.8559 -0.3856 -0.0983
   29BDD    C16 3585   4.235  -3.643  10.316 -0.9710  0.1420 -0.2022
   29BDD    C17 3586   4.506  -3.284  10.652  1.3076  0.0207 -0.5148
   29BDD    C18 3587   4.617  -3.220  10.734  0.6890  0.8766  0.1553
   29BDD    C19 3588   4.251  -3.226  10.044 -0.4490  0.7853 -0.3054
   29BDD    C20 3589   4.332  -3.264   9.914 -0.1022  0.7554 -0.3415
   29BDD    C21 3590   4.236  -3.313   9.805  0.2498 -0.5789  0.1998
   29BDD    C22 3591   4.294  -3.343   9.667  0.1794 -0.0755  0.0010
   29BDD    C23 3592   4.394  -3.459   9.668  0.3822 -0.1777 -1.1814
   29BDD    C24 3593   4.369  -3.600   9.718  0.3500  0.8007 -0.4319
   29BDD    C25 3594   4.438  -3.158   9.873  1.3448  0.9736  0.1915
   29BDD    C26 3595   4.405  -3.021   9.819  0.2246 -0.1417 -0.0785
   30TPM     C1 3596   4.298  -2.610  10.193 -0.1268  0.2518  0.0776
   30TPM     C2 3597   4.172  -2.644  10.152 -0.2621  0.3792  0.3839
   30TPM     C3 3598   4.094  -2.532  10.107 -0.1798  0.4259  0.3569
   30TPM     C4 3599   4.160  -2.413  10.112  0.0187  0.3342  0.0300
   30TPM     S1 3600   4.327  -2.433  10.176  0.1171  0.1805 -0.2715
   31BDTP    C1 3601   3.979  -1.812  10.044  0.2131 -0.1378 -0.0285
   31BDTP    C2 3602   3.876  -1.882   9.975  0.1593 -0.0763 -0.0108
   31BDTP    C3 3603   3.874  -2.020   9.965  0.0795 -0.0744 -0.0175
   31BDTP    C4 3604   3.977  -2.093  10.026  0.0513 -0.1358 -0.0429
   31BDTP    C5 3605   4.080  -2.023  10.095  0.1051 -0.1972 -0.0606
   31BDTP    C6 3606   4.083  -1.885  10.105  0.1849 -0.1992 -0.0539
   31BDTP    C7 3607   3.996  -2.237  10.029 -0.0286 -0.1462 -0.0542
   31BDTP    C8 3608   4.106  -2.278  10.096 -0.0374 -0.2117 -0.0793
   31BDTP    S1 3609   4.202  -2.140  10.165  0.0546 -0.2693 -0.0920
   31BDTP    C9 3610   3.961  -1.668  10.041  0.2932 -0.1273 -0.0172
   31BDTP   C10 3611   3.851  -1.628   9.974  0.3018 -0.0619  0.0079
   31BDTP    S2 3612   3.754  -1.766   9.905  0.2099 -0.0044  0.0206
   32FTM     S1 3613   3.814  -2.203   9.749 -0.0889 -0.2147  0.3551
   32FTM     C1 3614   3.639  -2.219   9.709 -0.0158 -0.0539 -0.0341
   32FTM     C2 3615   3.566  -2.136   9.788 -0.0964  0.1976 -0.3666
   32FTM     C3 3616   3.640  -2.057   9.883 -0.2170  0.2787 -0.3396
   32FTM     C4 3617   3.774  -2.081   9.876 -0.2291  0.0828  0.0255
   32FTM     F1 3618   3.428  -2.126   9.780 -0.0658  0.3694 -0.7152
   32FTM     C5 3619   3.597  -2.317   9.604  0.0622 -0.5160 -0.3935
   32FTM     C6 3620   3.702  -2.375   9.496  0.2021  0.0510  0.1428
   32FTM     C7 3621   3.662  -2.506   9.418  0.3166  0.3048  0.7027
   32FTM     C8 3622   3.616  -2.630   9.493 -0.3844  0.7978  0.1627
   32FTM     C9 3623   3.485  -2.632   9.562 -0.1973 -0.2655  0.0804
   32FTM    C10 3624   3.475  -2.766   9.634 -0.1208 -0.2554 -0.3810
   32FTM    C11 3625   3.804  -2.287   9.423  0.3920  0.2947  0.7508
   32FTM    C12 3626   3.741  -2.180   9.334 -0.1085 -0.8833 -0.5340
   33FTM     S1 3627   4.289  -1.697  10.088 -0.2667  0.3616  0.0980
   33FTM     C1 3628   4.406  -1.684  10.224 -0.3964  0.0807  0.2380
   33FTM     C2 3629   4.370  -1.769  10.324 -0.1254 -0.6076 -0.2350
   33FTM     C3 3630   4.253  -1.847  10.301  0.1919 -0.9499 -0.7233
   33FTM     C4 3631   4.197  -1.822  10.180  0.1629 -0.5096 -0.6209
   33FTM     F1 3632   4.442  -1.780  10.442 -0.1485 -0.9682 -0.2539
   33FTM     C5 3633   4.513  -1.582  10.231 -0.5493  0.8849  0.0630
   33FTM     C6 3634   4.490  -1.436  10.170  0.5528 -0.0729 -0.1153
   33FTM     C7 3635   4.589  -1.329  10.208  0.5289  0.2815  0.7737
   33FTM     C8 3636   4.591  -1.275  10.349  0.0743  0.2754 -0.2968
   33FTM     C9 3637   4.473  -1.190  10.394  0.2745 -0.3142 -0.6640
   33FTM    C10 3638   4.493  -1.150  10.535 -0.1587 -1.0555 -0.7663
   33FTM    C11 3639   4.435  -1.401  10.026  0.2164  0.0064  0.4544
   33FTM    C12 3640   4.527  -1.448   9.914  0.7891  0.7068  0.2196
   34TPM     C1 3641   3.797  -1.500   9.954  0.1507  0.2522  0.0833
   34TPM     C2 3642   3.860  -1.380   9.937  0.2086  0.2277  0.1251
   34TPM     C3 3643   3.770  -1.268   9.928  0.2615  0.2713  0.1362
   34TPM     C4 3644   3.639  -1.302   9.939  0.2440  0.3286  0.1029
   34TPM     S1 3645   3.618  -1.480   9.961  0.1585  0.3327  0.0545
   35BDD     C1 3646   3.329  -1.123   9.768  0.0111 -0.0499 -0.0859
   35BDD     C2 3647   3.383  -1.028   9.851  0.0099 -0.0389 -0.0979
   35BDD     C3 3648   3.501  -1.075   9.922  0.0660  0.0024 -0.1632
   35BDD     C4 3649   3.534  -1.204   9.893  0.1092  0.0218 -0.1999
   35BDD     S1 3650   3.421  -1.277   9.774  0.0825 -0.0098 -0.1554
   35BDD     C5 3651   3.329  -0.892   9.867 -0.0428 -0.0656 -0.0499
   35BDD     C6 3652   3.575  -0.989  10.017  0.0749  0.0207 -0.1867
   35BDD     O1 3653   3.677  -1.030  10.078  0.1233  0.0560 -0.2429
   35BDD     O2 3654   3.228  -0.852   9.805 -0.0913 -0.1009  0.0064
   35BDD     C7 3655   3.521  -0.853  10.033  0.0220 -0.0060 -0.1386
   35BDD     C8 3656   3.404  -0.806   9.961 -0.0342 -0.0467 -0.0734
   35BDD     C9 3657   3.370  -0.677   9.991 -0.0773 -0.0665 -0.0366
   35BDD     S2 3658   3.483  -0.605  10.110 -0.0505 -0.0346 -0.0811
   35BDD    C10 3659   3.575  -0.758  10.116  0.0208  0.0052 -0.1506
   35BDD    C11 3660   3.698  -0.749  10.202 -0.7263  0.0999 -0.1241
   35BDD    C12 3661   3.814  -0.662  10.161  0.2816 -0.2417  0.3704
   35BDD    C13 3662   3.924  -0.636  10.270  0.5942  0.1025  0.5371
   35BDD    C14 3663   3.885  -0.554  10.393  0.2758 -0.3036  0.1440
   35BDD    C15 3664   3.841  -0.414  10.356 -0.0504 -0.2925 -0.1682
   35BDD    C16 3665   3.960  -0.315  10.355  0.0763 -0.7867 -0.5585
   35BDD    C17 3666   3.874  -0.708  10.025 -0.1445  0.3069  0.2107
   35BDD    C18 3667   3.959  -0.837  10.012  0.1226  0.2057 -0.1850
   35BDD    C19 3668   3.257  -0.584   9.938  0.0001 -0.1327 -0.5683
   35BDD    C20 3669   3.166  -0.531  10.055  0.4349 -0.2033 -0.4713
   35BDD    C21 3670   3.107  -0.644  10.143  0.2379  0.7033 -0.2867
   35BDD    C22 3671   3.012  -0.743  10.070  0.0626  0.1254 -0.2815
   35BDD    C23 3672   2.985  -0.870  10.150 -0.1175  0.4583  0.4213
   35BDD    C24 3673   2.892  -0.967  10.080 -0.1562 -0.4675 -0.0939
   35BDD    C25 3674   3.219  -0.425  10.156  0.6668  0.5955 -0.8134
   35BDD    C26 3675   3.267  -0.292  10.123  0.4660 -0.5269  0.6732
   36TPM     C1 3676   3.212  -1.124   9.680 -0.0103 -0.4695  0.2859
   36TPM     C2 3677   3.221  -1.152   9.547 -0.0201 -0.8321  0.3591
   36TPM     C3 3678   3.096  -1.139   9.477  0.0059 -0.8731  0.3049
   36TPM     C4 3679   2.992  -1.101   9.557  0.0357 -0.5413  0.1905
   36TPM     S1 3680   3.044  -1.079   9.728  0.0331 -0.1489  0.1419
   37BDTP    C1 3681   2.384  -1.079   9.396 -0.1389 -0.3345 -0.0980
   37BDTP    C2 3682   2.386  -1.007   9.519 -0.1220 -0.2151 -0.1671
   37BDTP    C3 3683   2.502  -0.983   9.590 -0.1109 -0.1378 -0.2117
   37BDTP    C4 3684   2.623  -1.031   9.537 -0.1168 -0.1795 -0.1874
   37BDTP    C5 3685   2.622  -1.103   9.414 -0.1337 -0.2983 -0.1183
   37BDTP    C6 3686   2.505  -1.127   9.343 -0.1448 -0.3761 -0.0736
   37BDTP    C7 3687   2.757  -1.018   9.592 -0.1077 -0.1157 -0.2241
   37BDTP    C8 3688   2.854  -1.076   9.517 -0.1168 -0.1802 -0.1862
   37BDTP    S1 3689   2.790  -1.154   9.366 -0.1382 -0.3307 -0.0987
   37BDTP    C9 3690   2.251  -1.092   9.340 -0.1480 -0.3982 -0.0610
   37BDTP   C10 3691   2.153  -1.034   9.415 -0.1389 -0.3338 -0.0989
   37BDTP    S2 3692   2.217  -0.955   9.566 -0.1175 -0.1833 -0.1863
   38FTM     S1 3693   2.568  -0.967   9.871 -0.3048 -0.1154 -0.1006
   38FTM     C1 3694   2.520  -0.814   9.954 -0.2753  0.0474 -0.3813
   38FTM     C2 3695   2.451  -0.735   9.868 -0.2538 -0.0932 -0.5302
   38FTM     C3 3696   2.431  -0.787   9.736 -0.2589 -0.3304 -0.4373
   38FTM     C4 3697   2.487  -0.910   9.720 -0.2851 -0.3730 -0.2099
   38FTM     F1 3698   2.401  -0.611   9.904 -0.2283 -0.0157 -0.7594
   38FTM     C5 3699   2.558  -0.779  10.098 -0.6715  0.2090  0.7208
   38FTM     C6 3700   2.457  -0.840  10.201 -0.0379  0.3585  0.0642
   38FTM     C7 3701   2.500  -0.869  10.354 -0.4976 -0.1774  0.5891
   38FTM     C8 3702   2.637  -0.952  10.353 -0.2313 -0.7019 -0.3180
   38FTM     C9 3703   2.722  -0.937  10.479  0.0498 -0.2092  0.0056
   38FTM    C10 3704   2.831  -1.044  10.486  0.4412  0.2187  0.4221
   38FTM    C11 3705   2.307  -0.804  10.188 -0.8147 -0.5242  0.4395
   38FTM    C12 3706   2.192  -0.877  10.250 -0.2653 -0.3127 -0.1738
   39FTM     S1 3707   2.585  -1.079   9.075 -0.2385 -0.1523 -0.1675
   39FTM     C1 3708   2.589  -1.222   8.965 -0.2688 -0.1447 -0.1789
   39FTM     C2 3709   2.541  -1.332   9.030 -0.1821 -0.1655 -0.1493
   39FTM     C3 3710   2.498  -1.312   9.165 -0.0890 -0.1879 -0.1163
   39FTM     C4 3711   2.514  -1.182   9.206 -0.1050 -0.1843 -0.1210
   39FTM     F1 3712   2.533  -1.457   8.971 -0.1818 -0.1652 -0.1497
   39FTM     C5 3713   2.668  -1.205   8.838  0.3735  1.0537 -0.3174
   39FTM     C6 3714   2.683  -1.326   8.737  0.7068  0.9387 -0.1179
   39FTM     C7 3715   2.781  -1.441   8.785  0.8987  0.2484 -0.3444
   39FTM     C8 3716   2.930  -1.412   8.787 -0.3258  0.6111 -0.7976
   39FTM     C9 3717   2.995  -1.345   8.668 -0.3141 -0.4469  0.1593
   39FTM    C10 3718   3.148  -1.338   8.674 -0.0404  0.0523 -0.0222
   39FTM    C11 3719   2.552  -1.379   8.675  0.2908  0.3544 -0.0225
   39FTM    C12 3720   2.554  -1.489   8.564 -0.9203 -0.9187 -0.1432
   40TPM     C1 3721   2.018  -1.039   9.398 -0.0640  0.2984  0.2317
   40TPM     C2 3722   1.920  -1.021   9.492 -0.0177 -0.2899  0.4001
   40TPM     C3 3723   1.787  -1.033   9.440 -0.0411 -0.7524  0.5596
   40TPM     C4 3724   1.782  -1.060   9.307 -0.1053 -0.5168  0.5130
   40TPM     S1 3725   1.947  -1.072   9.236 -0.1414  0.3138  0.2623
   41BDD     C1 3726   1.400  -1.063   9.212  0.0168 -0.2826  0.0548
   41BDD     C2 3727   1.464  -1.029   9.096 -0.0056 -0.1857  0.0706
   41BDD     C3 3728   1.609  -1.025   9.109 -0.0111 -0.0088  0.0949
   41BDD     C4 3729   1.653  -1.057   9.234  0.0071  0.0268  0.0973
   41BDD     S1 3730   1.517  -1.093   9.345  0.0324 -0.1588  0.0694
   41BDD     C5 3731   1.394  -0.998   8.970 -0.0226 -0.2525  0.0637
   41BDD     C6 3732   1.698  -0.991   8.996 -0.0343  0.1183  0.1152
   41BDD     O1 3733   1.822  -0.988   9.006 -0.0391  0.2711  0.1364
   41BDD     O2 3734   1.270  -1.001   8.959 -0.0179 -0.4051  0.0427
   41BDD     C7 3735   1.628  -0.961   8.869 -0.0514  0.0517  0.1085
   41BDD     C8 3736   1.483  -0.964   8.857 -0.0458 -0.1252  0.0839
   41BDD     C9 3737   1.439  -0.932   8.731 -0.0640 -0.1607  0.0813
   41BDD     S2 3738   1.575  -0.896   8.620 -0.0894  0.0246  0.1093
   41BDD    C10 3739   1.692  -0.927   8.753 -0.0737  0.1485  0.1242
   41BDD    C11 3740   1.835  -0.902   8.721  0.0070  0.5358  0.1039
   41BDD    C12 3741   1.878  -0.782   8.640 -1.0835 -0.9032  0.0306
   41BDD    C13 3742   1.863  -0.639   8.706 -0.4802  0.1307 -0.2169
   41BDD    C14 3743   1.960  -0.611   8.827 -0.7279 -0.2725  0.6186
   41BDD    C15 3744   1.966  -0.463   8.857 -0.2358  0.0536 -0.1027
   41BDD    C16 3745   2.077  -0.418   8.957 -0.0437 -0.2349  0.0157
   41BDD    C17 3746   2.010  -0.806   8.575  0.1838 -0.4168 -0.1002
   41BDD    C18 3747   2.065  -0.724   8.457 -0.3010  0.0942 -0.0877
   41BDD    C19 3748   1.298  -0.949   8.673 -0.6184  0.8585 -0.1404
   41BDD    C20 3749   1.217  -0.824   8.636 -0.0109 -0.5174 -0.1913
   41BDD    C21 3750   1.283  -0.725   8.543  0.3640 -0.1561  0.0269
   41BDD    C22 3751   1.323  -0.752   8.396  0.8227  0.4082  0.0691
   41BDD    C23 3752   1.409  -0.644   8.324  0.1487 -0.0682 -0.6782
   41BDD    C24 3753   1.399  -0.664   8.176  0.0694 -0.0023  0.2156
   41BDD    C25 3754   1.133  -0.750   8.750  0.9420  0.2407  0.8992
   41BDD    C26 3755   1.012  -0.821   8.809  0.2286 -0.1061 -0.2943
   42TPM     C1 3756   1.262  -1.063   9.263  0.0543 -0.1983 -0.2176
   42TPM     C2 3757   1.239  -1.021   9.391  0.0375 -0.6557 -0.0653
   42TPM     C3 3758   1.100  -1.001   9.421  0.0213 -0.9172  0.0408
   42TPM     C4 3759   1.017  -1.028   9.316  0.0259 -0.6589 -0.0307
   42TPM     S1 3760   1.109  -1.081   9.170  0.0510 -0.0612 -0.2390
   43BDTP    C1 3761   0.386  -1.016   9.312 -0.0763  0.0327  0.1404
   43BDTP    C2 3762   0.417  -0.986   9.176 -0.0090 -0.1154  0.1221
   43BDTP    C3 3763   0.548  -0.977   9.130  0.0142 -0.1655  0.1774
   43BDTP    C4 3764   0.652  -0.999   9.221 -0.0308 -0.0651  0.2539
   43BDTP    C5 3765   0.621  -1.030   9.356 -0.0981  0.0827  0.2718
   43BDTP    C6 3766   0.491  -1.039   9.403 -0.1214  0.1332  0.2167
   43BDTP    C7 3767   0.795  -0.996   9.195 -0.0182 -0.0915  0.3211
   43BDTP    C8 3768   0.872  -1.021   9.304 -0.0721  0.0277  0.3872
   43BDTP    S1 3769   0.774  -1.054   9.454 -0.1464  0.1905  0.3743
   43BDTP    C9 3770   0.243  -1.020   9.337 -0.0889  0.0589  0.0732
   43BDTP   C10 3771   0.167  -0.995   9.229 -0.0350 -0.0606  0.0069
   43BDTP    S2 3772   0.265  -0.962   9.079  0.0392 -0.2232  0.0196
   44FTM     S1 3773   0.512  -0.783   8.932 -0.0742 -0.0070  0.4890
   44FTM     C1 3774   0.575  -0.816   8.766 -0.2488  0.5695  0.3023
   44FTM     C2 3775   0.630  -0.940   8.762 -0.0818  0.6566 -0.1397
   44FTM     C3 3776   0.628  -1.015   8.884  0.1855  0.2890 -0.3550
   44FTM     C4 3777   0.568  -0.946   8.985  0.2246 -0.0922 -0.0684
   44FTM     F1 3778   0.687  -0.994   8.647 -0.1612  1.0738 -0.3755
   44FTM     C5 3779   0.540  -0.718   8.652 -0.2153 -0.2025 -0.1908
   44FTM     C6 3780   0.643  -0.606   8.613  1.0246  0.1967  0.8853
   44FTM     C7 3781   0.767  -0.656   8.543 -0.1616 -0.2583 -0.0963
   44FTM     C8 3782   0.756  -0.735   8.415  0.0751 -0.2505  0.5598
   44FTM     C9 3783   0.886  -0.789   8.352  0.7547 -0.1005 -0.3400
   44FTM    C10 3784   0.886  -0.877   8.238  0.4417 -0.0175 -0.4031
   44FTM    C11 3785   0.676  -0.504   8.719 -0.7253  0.4259  0.1549
   44FTM    C12 3786   0.562  -0.443   8.798 -0.2594  0.2517 -0.1072
   45FTM     S1 3787   0.339  -0.975   9.643  0.2576  0.0233 -0.1153
   45FTM     C1 3788   0.364  -1.089   9.780  0.2599 -0.1465 -0.2560
   45FTM     C2 3789   0.463  -1.177   9.749  0.1203 -0.2370 -0.4471
   45FTM     C3 3790   0.524  -1.162   9.620  0.0059 -0.1812 -0.4947
   45FTM     C4 3791   0.470  -1.058   9.550  0.0596 -0.0436 -0.3347
   45FTM     F1 3792   0.504  -1.277   9.836  0.0879 -0.3757 -0.5903
   45FTM     C5 3793   0.275  -1.082   9.911 -0.5987 -0.0370  0.0668
   45FTM     C6 3794   0.153  -1.178   9.926  0.0726 -0.2569 -0.1528
   45FTM     C7 3795   0.082  -1.154  10.065 -0.1349  0.1452  0.5370
   45FTM     C8 3796   0.168  -1.214  10.180  0.4246 -0.4042  0.0954
   45FTM     C9 3797   0.114  -1.185  10.308  0.7730 -0.3376 -0.2646
   45FTM    C10 3798   0.206  -1.242  10.416  0.1942  0.4121 -0.0287
   45FTM    C11 3799   0.046  -1.181   9.812  0.7292  0.1156  0.7676
   45FTM    C12 3800  -0.026  -1.046   9.773 -0.8043  0.4891 -0.4369
   46TPM     C1 3801   0.024  -0.986   9.223  0.0575 -0.3041  0.2193
   46TPM     C2 3802  -0.039  -0.947   9.108  0.0837 -0.0556  0.2887
   46TPM     C3 3803  -0.182  -0.953   9.115  0.0741  0.2220  0.3448
   46TPM     C4 3804  -0.230  -0.996   9.236  0.0411  0.1848  0.3187
   46TPM     S1 3805  -0.095  -1.034   9.350  0.0190 -0.2062  0.2201
   47BDD     C1 3806  -0.620  -0.955   9.195 -0.0933 -0.2364  0.1004
   47BDD     C2 3807  -0.602  -0.987   9.327 -0.0362 -0.1755  0.1073
   47BDD     C3 3808  -0.462  -1.005   9.362  0.0010  0.1261  0.1214
   47BDD     C4 3809  -0.376  -0.987   9.258 -0.0290  0.2897  0.1251
   47BDD     S1 3810  -0.464  -0.946   9.107 -0.1054  0.0782  0.1109
   47BDD     C5 3811  -0.712  -1.002   9.424 -0.0131 -0.3912  0.1011
   47BDD     C6 3812  -0.419  -1.040   9.499  0.0646  0.2406  0.1307
   47BDD     O1 3813  -0.299  -1.056   9.530  0.0966  0.5007  0.1428
   47BDD     O2 3814  -0.832  -0.986   9.394 -0.0451 -0.6511  0.0889
   47BDD     C7 3815  -0.529  -1.055   9.597  0.0877  0.0243  0.1245
   47BDD     C8 3816  -0.668  -1.037   9.561  0.0505 -0.2770  0.1104
   47BDD     C9 3817  -0.754  -1.055   9.666  0.0806 -0.4413  0.1066
   47BDD     S2 3818  -0.666  -1.097   9.817  0.1571 -0.2295  0.1206
   47BDD    C10 3819  -0.510  -1.087   9.729  0.1454  0.0856  0.1311
   47BDD    C11 3820  -0.389  -1.107   9.814 -0.3376 -0.3357  0.7726
   47BDD    C12 3821  -0.379  -1.239   9.874 -0.5079  0.1392  0.0818
   47BDD    C13 3822  -0.388  -1.361   9.772  0.0007 -0.0087  0.1814
   47BDD    C14 3823  -0.410  -1.502   9.833  0.2854 -0.8772  0.3041
   47BDD    C15 3824  -0.526  -1.525   9.932 -0.4434 -0.4183  0.3409
   47BDD    C16 3825  -0.652  -1.588   9.870  0.1029 -0.3169  0.0044
   47BDD    C17 3826  -0.266  -1.241   9.974 -0.0011 -0.1879 -0.4772
   47BDD    C18 3827  -0.280  -1.157  10.107  0.3893  0.3923  0.7375
   47BDD    C19 3828  -0.903  -1.065   9.683  0.6955 -0.0833 -0.2802
   47BDD    C20 3829  -0.963  -1.211   9.699  0.0470 -0.2879  0.3335
   47BDD    C21 3830  -1.111  -1.201   9.717  0.1348  0.6060 -0.2576
   47BDD    C22 3831  -1.168  -1.329   9.794  0.6908 -0.3678  0.6284
   47BDD    C23 3832  -1.318  -1.323   9.830 -0.3008  0.3676 -0.7227
   47BDD    C24 3833  -1.408  -1.282   9.720  0.4954 -0.5319  0.5307
   47BDD    C25 3834  -0.917  -1.341   9.619  0.1809 -0.0811 -0.0010
   47BDD    C26 3835  -0.910  -1.340   9.471 -0.0194 -0.3227  0.6726
   48TPM     C1 3836  -0.725  -0.930   9.101  0.6438 -0.2874 -0.1661
   48TPM     C2 3837  -0.840  -1.003   9.107  0.7377 -0.4134  0.1857
   48TPM     C3 3838  -0.926  -0.984   8.993  0.3231 -0.4315  0.4914
   48TPM     C4 3839  -0.876  -0.897   8.900 -0.0867 -0.3191  0.3725
   48TPM     S1 3840  -0.716  -0.831   8.950  0.0200 -0.1806 -0.1386
   49BDTP    C1 3841  -1.074  -0.804   8.312  0.0606  0.0565  0.0041
   49BDTP    C2 3842  -0.934  -0.781   8.302  0.0961 -0.1504  0.0098
   49BDTP    C3 3843  -0.849  -0.786   8.412  0.0861 -0.2818  0.0126
   49BDTP    C4 3844  -0.905  -0.814   8.538  0.0389 -0.2055  0.0091
   49BDTP    C5 3845  -1.046  -0.838   8.548  0.0041  0.0012  0.0031
   49BDTP    C6 3846  -1.130  -0.833   8.438  0.0141  0.1324  0.0006
   49BDTP    C7 3847  -0.838  -0.824   8.666  0.0203 -0.3125  0.0109
   49BDTP    C8 3848  -0.919  -0.854   8.770 -0.0267 -0.1972  0.0067
   49BDTP    S1 3849  -1.093  -0.872   8.721 -0.0534  0.0625 -0.0002
   49BDTP    C9 3850  -1.142  -0.794   8.184  0.0799  0.1628  0.0021
   49BDTP   C10 3851  -1.060  -0.765   8.080  0.1266  0.0477  0.0064
   49BDTP    S2 3852  -0.886  -0.746   8.129  0.1535 -0.2119  0.0133
   50FTM     S1 3853  -0.605  -0.823   8.262 -0.3214 -0.1450  0.1893
   50FTM     C1 3854  -0.466  -0.721   8.313 -0.1967 -0.1403 -0.1520
   50FTM     C2 3855  -0.499  -0.651   8.425  0.0901 -0.1791 -0.0415
   50FTM     C3 3856  -0.631  -0.671   8.476  0.2270 -0.2139  0.3068
   50FTM     C4 3857  -0.702  -0.760   8.401  0.0391 -0.2015  0.4680
   50FTM     F1 3858  -0.411  -0.564   8.487  0.2451 -0.1853 -0.2489
   50FTM     C5 3859  -0.341  -0.724   8.232 -0.4214 -0.1438 -0.3772
   50FTM     C6 3860  -0.346  -0.652   8.101 -0.1069  0.2671 -0.3480
   50FTM     C7 3861  -0.359  -0.496   8.111 -0.1190 -0.3563  0.2555
   50FTM     C8 3862  -0.493  -0.439   8.148  0.0335 -0.5120  0.1591
   50FTM     C9 3863  -0.483  -0.286   8.178  0.1485  0.2022  0.3006
   50FTM    C10 3864  -0.614  -0.208   8.207  0.1525 -0.2775  0.0772
   50FTM    C11 3865  -0.240  -0.713   8.002  0.1074 -0.6999  0.3671
   50FTM    C12 3866  -0.091  -0.695   8.029 -0.0501  0.2482  0.0937
   51FTM     S1 3867  -1.331  -1.010   8.551 -0.1745 -0.1331  0.1114
   51FTM     C1 3868  -1.502  -0.960   8.523 -0.0924  0.3387  0.4358
   51FTM     C2 3869  -1.505  -0.848   8.446  0.0691  0.3293  0.4139
   51FTM     C3 3870  -1.379  -0.796   8.405  0.1373 -0.0370  0.1500
   51FTM     C4 3871  -1.275  -0.870   8.452  0.0241 -0.3171 -0.0363
   51FTM     F1 3872  -1.624  -0.786   8.408  0.1646  0.6516  0.6316
   51FTM     C5 3873  -1.615  -1.033   8.585 -0.3894 -0.0744 -0.3950
   51FTM     C6 3874  -1.645  -1.017   8.732 -0.1955 -0.0562 -0.5915
   51FTM     C7 3875  -1.784  -1.077   8.780 -0.4319  0.4768  0.1782
   51FTM     C8 3876  -1.912  -1.017   8.729 -0.9988 -0.5795  0.3962
   51FTM     C9 3877  -1.939  -0.872   8.729 -0.6014  0.4575  0.0209
   51FTM    C10 3878  -2.046  -0.831   8.635  0.6853 -0.3459 -0.0495
   51FTM    C11 3879  -1.528  -1.019   8.843  0.4620 -0.5000  0.1838
   51FTM    C12 3880  -1.447  -1.145   8.868 -0.2099  0.1599 -0.0208
   52TPM     C1 3881  -1.090  -0.749   7.942  0.0085  0.0869  0.1246
   52TPM     C2 3882  -1.211  -0.732   7.883  0.0038  0.2916  0.1930
   52TPM     C3 3883  -1.204  -0.698   7.744 -0.0193  0.2177  0.1739
   52TPM     C4 3884  -1.076  -0.690   7.696 -0.0320 -0.0434  0.0911
   52TPM     S1 3885  -0.955  -0.724   7.825 -0.0158 -0.2175  0.0302
   53BDD     C1 3886  -1.009  -0.373   7.474  0.0600  0.2086 -0.1685
   53BDD     C2 3887  -1.073  -0.459   7.390  0.0508  0.1595 -0.1116
   53BDD     C3 3888  -1.107  -0.586   7.452  0.2227  0.1247 -0.0875
   53BDD     C4 3889  -1.068  -0.594   7.583  0.3600  0.1475 -0.1265
   53BDD     S1 3890  -0.987  -0.444   7.637  0.2840  0.2143 -0.1961
   53BDD     C5 3891  -1.106  -0.428   7.249 -0.1156  0.1431 -0.0771
   53BDD     C6 3892  -1.177  -0.694   7.380  0.2444  0.0699 -0.0268
   53BDD     O1 3893  -1.207  -0.803   7.433  0.3924  0.0396 -0.0061
   53BDD     O2 3894  -1.077  -0.319   7.195 -0.2637  0.1731 -0.0979
   53BDD     C7 3895  -1.210  -0.663   7.239  0.0775  0.0536  0.0077
   53BDD     C8 3896  -1.176  -0.537   7.177 -0.0939  0.0885 -0.0162
   53BDD     C9 3897  -1.215  -0.528   7.046 -0.2313  0.0653  0.0226
   53BDD     S2 3898  -1.296  -0.678   6.992 -0.1552 -0.0015  0.0921
   53BDD    C10 3899  -1.274  -0.750   7.155  0.0689  0.0043  0.0646
   53BDD    C11 3900  -1.340  -0.882   7.168 -0.0122 -0.4420  0.2273
   53BDD    C12 3901  -1.281  -1.009   7.099  0.4036 -0.3585 -0.5065
   53BDD    C13 3902  -1.133  -1.046   7.143  0.1173 -0.0851  0.7670
   53BDD    C14 3903  -1.126  -1.093   7.290 -0.0483 -0.6961 -0.3339
   53BDD    C15 3904  -1.000  -1.171   7.323  0.1137  0.1136 -0.4403
   53BDD    C16 3905  -0.984  -1.179   7.478 -0.4230 -0.1006  0.7642
   53BDD    C17 3906  -1.386  -1.121   7.081 -0.7065 -0.1831 -0.2509
   53BDD    C18 3907  -1.344  -1.252   7.013 -0.2185 -0.9246  0.0885
   53BDD    C19 3908  -1.187  -0.428   6.935  0.0226  0.1890 -0.2877
   53BDD    C20 3909  -1.306  -0.337   6.901 -0.7852  0.0069  0.4580
   53BDD    C21 3910  -1.398  -0.410   6.805  1.1434  0.2136 -0.3064
   53BDD    C22 3911  -1.531  -0.332   6.786  0.9533  0.3577  0.6744
   53BDD    C23 3912  -1.647  -0.427   6.735 -0.2064  0.1862  0.1937
   53BDD    C24 3913  -1.778  -0.351   6.743  0.9377 -0.1158  0.5396
   53BDD    C25 3914  -1.262  -0.195   6.846  0.1159 -0.1520 -0.0606
   53BDD    C26 3915  -1.203  -0.100   6.943  0.7958 -0.1312 -0.5165
   54TPM     C1 3916  -0.953  -0.237   7.470 -0.1180  0.4185 -0.0225
   54TPM     C2 3917  -0.864  -0.196   7.564 -0.2177  0.3548  0.1013
   54TPM     C3 3918  -0.810  -0.064   7.540 -0.2117  0.3824  0.2617
   54TPM     C4 3919  -0.860  -0.005   7.427 -0.1077  0.4670  0.2604
   54TPM     S1 3920  -0.978  -0.112   7.342 -0.0085  0.5189  0.0548
   55BDTP    C1 3921  -0.710   0.551   7.180 -0.0627  0.0788  0.0651
   55BDTP    C2 3922  -0.753   0.475   7.067  0.0908 -0.0714  0.1069
   55BDTP    C3 3923  -0.794   0.342   7.077  0.1020 -0.0663  0.2240
   55BDTP    C4 3924  -0.792   0.282   7.204 -0.0446  0.0943  0.3037
   55BDTP    C5 3925  -0.749   0.358   7.317 -0.1979  0.2446  0.2621
   55BDTP    C6 3926  -0.708   0.490   7.307 -0.2093  0.2395  0.1451
   55BDTP    C7 3927  -0.829   0.146   7.239 -0.0635  0.1315  0.4290
   55BDTP    C8 3928  -0.816   0.117   7.371 -0.2217  0.3002  0.4827
   55BDTP    S1 3929  -0.755   0.257   7.469 -0.3688  0.4357  0.3819
   55BDTP    C9 3930  -0.673   0.686   7.145 -0.0436  0.0416 -0.0601
   55BDTP   C10 3931  -0.686   0.715   7.013  0.1142 -0.1271 -0.1137
   55BDTP    S2 3932  -0.747   0.575   6.915  0.2615 -0.2626 -0.0130
   56FTM     S1 3933  -1.037   0.247   6.958 -0.0390 -0.0047 -0.0023
   56FTM     C1 3934  -1.029   0.204   6.783 -0.0328 -0.0459  0.0081
   56FTM     C2 3935  -0.901   0.218   6.738 -0.0489  0.0313 -0.0135
   56FTM     C3 3936  -0.805   0.262   6.835 -0.0658  0.1249 -0.0387
   56FTM     C4 3937  -0.860   0.282   6.958 -0.0634  0.1192 -0.0364
   56FTM     F1 3938  -0.864   0.192   6.607 -0.0489  0.0217 -0.0116
   56FTM     C5 3939  -1.148   0.155   6.700  0.8626 -0.3054 -0.2348
   56FTM     C6 3940  -1.285   0.236   6.698 -0.0463 -0.1732  0.1922
   56FTM     C7 3941  -1.397   0.177   6.619  0.4771  0.2089  0.9527
   56FTM     C8 3942  -1.432   0.036   6.648 -0.1298  0.0227  0.1169
   56FTM     C9 3943  -1.549  -0.027   6.577 -0.7716 -0.7730  0.1740
   56FTM    C10 3944  -1.518  -0.068   6.433 -0.5185  0.1670 -0.1430
   56FTM    C11 3945  -1.268   0.389   6.668 -0.1781  0.2129 -0.3344
   56FTM    C12 3946  -1.400   0.468   6.694 -1.5166  0.0373 -0.2876
   57FTM     S1 3947  -0.762   0.586   7.573 -0.0788 -0.2370  0.2158
   57FTM     C1 3948  -0.619   0.650   7.662 -0.1052  0.0162  0.0785
   57FTM     C2 3949  -0.511   0.651   7.579 -0.3102  0.7404 -0.1955
   57FTM     C3 3950  -0.532   0.604   7.446 -0.4559  1.1331 -0.3129
   57FTM     C4 3951  -0.661   0.565   7.425 -0.3591  0.6953 -0.1223
   57FTM     F1 3952  -0.385   0.695   7.620 -0.3786  1.0907 -0.3564
   57FTM     C5 3953  -0.640   0.687   7.808 -0.2049  0.3653  0.1053
   57FTM     C6 3954  -0.612   0.840   7.841  0.2757 -0.1451 -0.1492
   57FTM     C7 3955  -0.568   0.867   7.988  0.2194 -0.0354 -0.2725
   57FTM     C8 3956  -0.446   0.804   8.052 -0.8106  0.2680 -0.0125
   57FTM     C9 3957  -0.434   0.806   8.204  0.2891  0.3724 -0.1865
   57FTM    C10 3958  -0.326   0.711   8.257  0.6151 -0.1649  0.0590
   57FTM    C11 3959  -0.719   0.945   7.800  0.2668  0.0798 -0.4776
   57FTM    C12 3960  -0.777   0.951   7.662  0.3654 -0.3109  0.8142
   58TPM     C1 3961  -0.663   0.840   6.957 -0.0875  0.3740  0.1251
   58TPM     C2 3962  -0.723   0.893   6.847 -0.2608  0.6520  0.3477
   58TPM     C3 3963  -0.695   1.033   6.827 -0.1488  0.6607  0.5605
   58TPM     C4 3964  -0.615   1.087   6.923  0.1090  0.3895  0.5000
   58TPM     S1 3965  -0.567   0.965   7.046  0.2320  0.0996  0.1673
   59BDD     C1 3966  -0.661   1.453   7.058  0.1391 -0.2213  0.1936
   59BDD     C2 3967  -0.639   1.468   6.924  0.1030 -0.1661  0.1936
   59BDD     C3 3968  -0.621   1.341   6.855  0.0031 -0.1422  0.1231
   59BDD     C4 3969  -0.629   1.232   6.937 -0.0357 -0.1795  0.0703
   59BDD     S1 3970  -0.660   1.281   7.107  0.0503 -0.2471  0.1054
   59BDD     C5 3971  -0.634   1.598   6.855  0.1593 -0.1334  0.2584
   59BDD     C6 3972  -0.596   1.333   6.709 -0.0501 -0.0833  0.1106
   59BDD     O1 3973  -0.580   1.224   6.650 -0.1361 -0.0626  0.0498
   59BDD     O2 3974  -0.650   1.707   6.914  0.2453 -0.1540  0.3192
   59BDD     C7 3975  -0.591   1.463   6.640  0.0060 -0.0505  0.1756
   59BDD     C8 3976  -0.609   1.590   6.709  0.1059 -0.0744  0.2460
   59BDD     C9 3977  -0.601   1.699   6.627  0.1447 -0.0372  0.2989
   59BDD     S2 3978  -0.570   1.650   6.457  0.0590  0.0304  0.2639
   59BDD    C10 3979  -0.569   1.478   6.506 -0.0298  0.0046  0.1756
   59BDD    C11 3980  -0.535   1.381   6.395 -0.3892 -0.3098  0.2078
   59BDD    C12 3981  -0.651   1.309   6.326 -0.5353  0.2366  0.0188
   59BDD    C13 3982  -0.600   1.209   6.217  0.1479  0.2976 -0.5241
   59BDD    C14 3983  -0.521   1.091   6.272  0.5421  0.9622 -0.2641
   59BDD    C15 3984  -0.600   0.995   6.360  0.1553 -0.1325 -0.3854
   59BDD    C16 3985  -0.496   0.890   6.397  0.3610  0.1515  0.3285
   59BDD    C17 3986  -0.747   1.416   6.270 -0.0100 -0.2333  0.1508
   59BDD    C18 3987  -0.869   1.361   6.203 -0.0752  0.1908 -0.2103
   59BDD    C19 3988  -0.585   1.849   6.654  0.4078 -0.0932 -0.3024
   59BDD    C20 3989  -0.698   1.931   6.593  0.2434 -0.1713 -0.4586
   59BDD    C21 3990  -0.837   1.891   6.649  0.4833  0.5685 -0.1008
   59BDD    C22 3991  -0.877   1.933   6.789  0.0693 -0.0041  0.1555
   59BDD    C23 3992  -1.013   1.882   6.835 -0.4479 -0.2575  0.6450
   59BDD    C24 3993  -1.042   1.930   6.974 -0.1455 -0.1757 -0.5104
   59BDD    C25 3994  -0.686   2.085   6.586  0.5400  0.2763 -0.3340
   59BDD    C26 3995  -0.564   2.141   6.517 -0.4306  0.0893  0.7699
   60TPM     C1 3996  -0.687   1.546   7.166 -0.1769 -0.0691  0.1421
   60TPM     C2 3997  -0.805   1.553   7.234  0.0756 -0.1721  0.5953
   60TPM     C3 3998  -0.808   1.656   7.334  0.3681 -0.1696  0.6027
   60TPM     C4 3999  -0.692   1.728   7.343  0.3384 -0.0647  0.1551
   60TPM     S1 4000  -0.570   1.670   7.223 -0.0645  0.0399 -0.3140
    1BDTP    C1 4001   2.809   5.560   7.413  0.0023  0.0557 -0.0432
    1BDTP    C2 4002   2.938   5.616   7.435  0.0358 -0.0113 -0.0671
    1BDTP    C3 4003   3.042   5.602   7.344 -0.0077 -0.0099 -0.1178
    1BDTP    C4 4004   3.019   5.528   7.227 -0.0881  0.0609 -0.1462
    1BDTP    C5 4005   2.890   5.471   7.205 -0.1217  0.1279 -0.1223
    1BDTP    C6 4006   2.785   5.486   7.296 -0.0782  0.1263 -0.0717
    1BDTP    C7 4007   3.111   5.500   7.119 -0.1449  0.0767 -0.1992
    1BDTP    C8 4008   3.058   5.426   7.019 -0.2185  0.1513 -0.2158
    1BDTP    S1 4009   2.884   5.381   7.047 -0.2263  0.2120 -0.1671
    1BDTP    C9 4010   2.716   5.588   7.521  0.0590  0.0399  0.0095
    1BDTP   C10 4011   2.769   5.662   7.621  0.1327 -0.0346  0.0265
    1BDTP    S2 4012   2.943   5.707   7.593  0.1404 -0.0953 -0.0224
    2FTM     S1 4013   3.280   5.743   7.256  0.4413  0.2402 -0.1622
    2FTM     C1 4014   3.413   5.756   7.376  0.1999  0.2806  0.1031
    2FTM     C2 4015   3.379   5.692   7.491  0.0222  0.2055  0.0086
    2FTM     C3 4016   3.250   5.630   7.492  0.0619  0.1138 -0.2695
    2FTM     C4 4017   3.183   5.647   7.375  0.2770  0.1192 -0.3916
    2FTM     F1 4018   3.462   5.686   7.602 -0.1870  0.2148  0.1680
    2FTM     C5 4019   3.544   5.824   7.353 -0.2574  0.5258  0.3842
    2FTM     C6 4020   3.652   5.760   7.262 -0.3368  0.7598 -0.3692
    2FTM     C7 4021   3.689   5.609   7.284  0.1694 -0.0301  0.0714
    2FTM     C8 4022   3.587   5.506   7.222  0.1836 -0.2919  0.3770
    2FTM     C9 4023   3.569   5.510   7.066 -0.0744 -0.8510 -1.0684
    2FTM    C10 4024   3.489   5.394   7.011  0.5082 -0.2306  0.2080
    2FTM    C11 4025   3.770   5.858   7.222 -0.0396  0.0531 -0.2825
    2FTM    C12 4026   3.879   5.783   7.138 -0.2139 -0.0213  0.1197
    3FTM     S1 4027   2.566   5.324   7.366 -0.1107  0.0179 -0.2062
    3FTM     C1 4028   2.439   5.301   7.241  0.0879 -0.1341 -0.3809
    3FTM     C2 4029   2.469   5.375   7.130  0.3355 -0.3787 -0.4790
    3FTM     C3 4030   2.590   5.452   7.137  0.3849 -0.4609 -0.4257
    3FTM     C4 4031   2.655   5.436   7.256  0.1679 -0.2730 -0.2817
    3FTM     F1 4032   2.389   5.377   7.017  0.5323 -0.5429 -0.6229
    3FTM     C5 4033   2.321   5.219   7.250 -0.3295 -0.5066 -0.4818
    3FTM     C6 4034   2.203   5.269   7.325  0.3251 -0.2100 -0.8744
    3FTM     C7 4035   2.125   5.401   7.292  1.0008 -0.3796 -0.1555
    3FTM     C8 4036   2.066   5.403   7.146  0.3238  0.1481 -0.5903
    3FTM     C9 4037   2.002   5.537   7.111  0.2527 -0.0820 -0.0773
    3FTM    C10 4038   2.076   5.635   7.018 -0.3271 -0.2655 -0.0853
    3FTM    C11 4039   2.214   5.256   7.476 -0.3132 -0.0165  0.2642
    3FTM    C12 4040   2.090   5.236   7.567  0.0840  0.8832  0.0074
    4TPM     C1 4041   2.708   5.726   7.735  0.0440 -0.0385 -0.1323
    4TPM     C2 4042   2.654   5.668   7.846  0.2889 -0.1305 -0.0619
    4TPM     C3 4043   2.622   5.762   7.951  0.2333 -0.1827 -0.0322
    4TPM     C4 4044   2.650   5.891   7.919 -0.0541 -0.1305 -0.0802
    4TPM     S1 4045   2.721   5.905   7.754 -0.2785 -0.0102 -0.1672
    5BDD     C1 4046   2.486   6.114   8.202 -0.3587  0.0979 -0.1515
    5BDD     C2 4047   2.588   6.190   8.151 -0.2688  0.0409 -0.0563
    5BDD     C3 4048   2.658   6.126   8.041 -0.1789 -0.0136  0.0327
    5BDD     C4 4049   2.609   6.002   8.010 -0.2017  0.0026  0.0041
    5BDD     S1 4050   2.471   5.957   8.116 -0.3372  0.0873 -0.1361
    5BDD     C5 4051   2.625   6.324   8.202 -0.2620  0.0342 -0.0439
    5BDD     C6 4052   2.772   6.189   7.972 -0.0736 -0.0799  0.1428
    5BDD     O1 4053   2.833   6.134   7.877  0.0038 -0.1268  0.2196
    5BDD     O2 4054   2.564   6.379   8.296 -0.3395  0.0812 -0.1206
    5BDD     C7 4055   2.809   6.323   8.022 -0.0671 -0.0865  0.1554
    5BDD     C8 4056   2.738   6.387   8.132 -0.1569 -0.0321  0.0665
    5BDD     C9 4057   2.788   6.511   8.163 -0.1341 -0.0485  0.0949
    5BDD     S2 4058   2.926   6.556   8.057  0.0014 -0.1330  0.2352
    5BDD    C10 4059   2.911   6.399   7.971  0.0229 -0.1435  0.2506
    5BDD    C11 4060   3.016   6.376   7.868 -0.3505 -0.3113 -0.3705
    5BDD    C12 4061   3.156   6.325   7.898  0.2569  0.4366  0.3028
    5BDD    C13 4062   3.241   6.341   7.767  0.3360 -0.3464 -0.0021
    5BDD    C14 4063   3.374   6.275   7.747 -0.3091  0.1029  0.6876
    5BDD    C15 4064   3.348   6.130   7.728 -0.0089  0.0662 -0.2960
    5BDD    C16 4065   3.473   6.055   7.770 -0.2307  0.6351 -1.0295
    5BDD    C17 4066   3.226   6.380   8.032  0.1266 -0.4801  0.3630
    5BDD    C18 4067   3.350   6.325   8.086 -0.3650  0.0316  0.5565
    5BDD    C19 4068   2.749   6.612   8.272 -0.3400  0.0720  0.0429
    5BDD    C20 4069   2.705   6.749   8.224  0.6579  0.4699  0.0932
    5BDD    C21 4070   2.692   6.865   8.331  0.4738  0.3842  0.7267
    5BDD    C22 4071   2.816   6.888   8.414  0.1548  0.1391 -0.6031
    5BDD    C23 4072   2.808   7.001   8.509 -0.5797 -0.5645  0.1637
    5BDD    C24 4073   2.928   7.019   8.599 -0.5705  0.6930 -0.1296
    5BDD    C25 4074   2.576   6.735   8.132  0.4558 -0.2413 -0.1788
    5BDD    C26 4075   2.506   6.861   8.086  0.0458  0.0141  0.2508
    6TPM     C1 4076   2.385   6.130   8.301  0.1318  0.0507  0.1703
    6TPM     C2 4077   2.419   6.166   8.428  0.1877  0.1497  0.1271
    6TPM     C3 4078   2.317   6.139   8.526  0.3469 -0.0455  0.2398
    6TPM     C4 4079   2.205   6.082   8.474  0.4125 -0.2938  0.3700
    6TPM     S1 4080   2.220   6.057   8.296  0.2771 -0.2998  0.3596
    7BDTP    C1 4081   1.717   5.878   8.797  0.1715 -0.1787 -0.0029
    7BDTP    C2 4082   1.731   5.779   8.696  0.1357 -0.1956  0.0086
    7BDTP    C3 4083   1.828   5.786   8.597  0.1113 -0.2201 -0.0174
    7BDTP    C4 4084   1.917   5.895   8.599  0.1226 -0.2284 -0.0570
    7BDTP    C5 4085   1.902   5.994   8.701  0.1583 -0.2115 -0.0679
    7BDTP    C6 4086   1.805   5.987   8.799  0.1827 -0.1870 -0.0418
    7BDTP    C7 4087   2.025   5.924   8.508  0.1020 -0.2529 -0.0889
    7BDTP    C8 4088   2.093   6.038   8.536  0.1204 -0.2552 -0.1233
    7BDTP    S1 4089   2.028   6.125   8.682  0.1663 -0.2267 -0.1199
    7BDTP    C9 4090   1.608   5.849   8.889  0.1920 -0.1543  0.0296
    7BDTP   C10 4091   1.540   5.735   8.861  0.1736 -0.1520  0.0639
    7BDTP    S2 4092   1.605   5.648   8.715  0.1277 -0.1805  0.0604
    8FTM     S1 4093   1.957   5.551   8.527  0.0675 -0.0592 -0.1047
    8FTM     C1 4094   1.902   5.467   8.377 -0.0826  0.1984 -0.1943
    8FTM     C2 4095   1.802   5.538   8.319 -0.1388  0.3020  0.0257
    8FTM     C3 4096   1.763   5.659   8.386 -0.0703  0.1899  0.2718
    8FTM     C4 4097   1.835   5.681   8.499  0.0421 -0.0057  0.2386
    8FTM     F1 4098   1.740   5.498   8.202 -0.2558  0.5041  0.0179
    8FTM     C5 4099   1.935   5.318   8.357  1.2264  1.0096  0.0553
    8FTM     C6 4100   1.933   5.210   8.467 -0.2284 -1.1639  0.1409
    8FTM     C7 4101   2.021   5.090   8.442  0.1095 -0.1181  0.0578
    8FTM     C8 4102   2.150   5.097   8.365  0.3257 -1.0967  0.1592
    8FTM     C9 4103   2.250   5.204   8.411  0.0614 -0.3107 -0.4337
    8FTM    C10 4104   2.385   5.173   8.357  0.1973  0.6164 -0.3583
    8FTM    C11 4105   1.801   5.179   8.530  0.4101  0.0514 -0.4205
    8FTM    C12 4106   1.804   5.100   8.664  0.3638 -0.2553  0.4811
    9FTM     S1 4107   1.941   6.100   9.022  0.3504  0.0314 -0.0792
    9FTM     C1 4108   1.889   6.266   9.070  0.4329  0.1072 -0.2495
    9FTM     C2 4109   1.780   6.303   8.997  0.2198 -0.0653 -0.0207
    9FTM     C3 4110   1.732   6.206   8.902 -0.0149 -0.2620  0.2940
    9FTM     C4 4111   1.806   6.092   8.902  0.0196 -0.2395  0.3059
    9FTM     F1 4112   1.717   6.425   9.012  0.2247 -0.0553 -0.0823
    9FTM     C5 4113   1.975   6.330   9.169  0.3038 -0.3054 -0.4940
    9FTM     C6 4114   2.039   6.466   9.120 -0.3745  0.5540 -0.2296
    9FTM     C7 4115   2.121   6.521   9.237  0.1467 -0.0695 -0.4622
    9FTM     C8 4116   2.044   6.609   9.341  0.2102 -0.1662  0.4740
    9FTM     C9 4117   1.961   6.728   9.294 -0.5539  0.3041  0.0235
    9FTM    C10 4118   2.052   6.833   9.231  0.1182  0.2352  0.2559
    9FTM    C11 4119   2.117   6.457   8.983 -0.3345  0.2660  0.2099
    9FTM    C12 4120   2.243   6.370   8.971  0.0163 -0.3755  0.7010
   10TPM     C1 4121   1.445   5.671   8.940  0.4731 -0.1535  0.3347
   10TPM     C2 4122   1.442   5.654   9.075  0.7585 -0.8528  0.2594
   10TPM     C3 4123   1.339   5.564   9.120  0.6782 -0.8774  0.0284
   10TPM     C4 4124   1.264   5.512   9.019  0.3316 -0.1971 -0.0720
   10TPM     S1 4125   1.317   5.574   8.858  0.0778  0.5335  0.1185
   11BDD     C1 4126   1.066   5.178   9.000 -0.2033  0.1643  0.0181
   11BDD     C2 4127   1.004   5.251   9.098 -0.1419  0.1605  0.0606
   11BDD     C3 4128   1.064   5.381   9.120 -0.0851  0.1314  0.0763
   11BDD     C4 4129   1.172   5.406   9.040 -0.1040  0.1135  0.0454
   11BDD     S1 4130   1.205   5.268   8.931 -0.1942  0.1316 -0.0055
   11BDD     C5 4131   0.886   5.203   9.173 -0.1333  0.1832  0.0882
   11BDD     C6 4132   1.012   5.476   9.221 -0.0142  0.1225  0.1214
   11BDD     O1 4133   1.064   5.588   9.241  0.0348  0.0975  0.1347
   11BDD     O2 4134   0.834   5.091   9.154 -0.1824  0.2083  0.0749
   11BDD     C7 4135   0.895   5.429   9.297 -0.0056  0.1453  0.1490
   11BDD     C8 4136   0.834   5.299   9.274 -0.0624  0.1743  0.1333
   11BDD     C9 4137   0.726   5.274   9.354 -0.0436  0.1922  0.1643
   11BDD     S2 4138   0.693   5.412   9.464  0.0466  0.1740  0.2148
   11BDD    C10 4139   0.832   5.501   9.394  0.0558  0.1415  0.1917
   11BDD    C11 4140   0.854   5.639   9.448  0.4930 -0.9874  0.1020
   11BDD    C12 4141   0.760   5.756   9.415 -0.4065 -0.0907 -0.2145
   11BDD    C13 4142   0.614   5.752   9.465 -0.0713  0.3229  0.2460
   11BDD    C14 4143   0.514   5.846   9.401  0.1912  0.0057 -0.4746
   11BDD    C15 4144   0.386   5.849   9.491  0.2146 -0.1194  0.7489
   11BDD    C16 4145   0.287   5.960   9.448 -0.4023  0.9070  0.0571
   11BDD    C17 4146   0.827   5.893   9.438 -0.0777  0.6806  0.0506
   11BDD    C18 4147   0.951   5.917   9.354 -0.1565 -1.1210 -0.2458
   11BDD    C19 4148   0.640   5.151   9.373  0.4276 -0.1376 -0.4453
   11BDD    C20 4149   0.696   5.042   9.464 -0.5160 -0.2089  0.2617
   11BDD    C21 4150   0.613   4.920   9.461 -0.4796  0.2946  0.2619
   11BDD    C22 4151   0.669   4.784   9.524 -0.0243 -0.1433  0.1255
   11BDD    C23 4152   0.598   4.667   9.475  0.5941  0.4649 -0.0067
   11BDD    C24 4153   0.644   4.532   9.543  0.3649  0.7256  0.1624
   11BDD    C25 4154   0.742   5.079   9.603  0.7159 -0.3637 -0.7222
   11BDD    C26 4155   0.642   5.149   9.701 -1.0545 -0.0184  0.1050
   12TPM     C1 4156   1.057   5.044   8.940 -0.3512 -0.1530  0.1568
   12TPM     C2 4157   0.964   4.946   8.961 -0.2962 -0.2450 -0.0215
   12TPM     C3 4158   0.989   4.825   8.887  0.0477 -0.2741  0.1407
   12TPM     C4 4159   1.102   4.831   8.810  0.2550 -0.2042  0.4422
   12TPM     S1 4160   1.184   4.990   8.824  0.0301 -0.0958  0.5457
   13BDTP    C1 4161   1.239   4.382   8.386 -0.1532  0.0366  0.1135
   13BDTP    C2 4162   1.324   4.490   8.348 -0.0566 -0.0347  0.1276
   13BDTP    C3 4163   1.329   4.609   8.419  0.1317 -0.0899  0.2079
   13BDTP    C4 4164   1.247   4.623   8.532  0.2298 -0.0745  0.2780
   13BDTP    C5 4165   1.162   4.516   8.569  0.1332 -0.0032  0.2637
   13BDTP    C6 4166   1.156   4.396   8.499 -0.0551  0.0520  0.1832
   13BDTP    C7 4167   1.235   4.738   8.620  0.4252 -0.1229  0.3668
   13BDTP    C8 4168   1.147   4.721   8.721  0.4792 -0.0919  0.4196
   13BDTP    S1 4169   1.065   4.558   8.718  0.2903  0.0031  0.3641
   13BDTP    C9 4170   1.250   4.268   8.297 -0.3485  0.0851  0.0248
   13BDTP   C10 4171   1.339   4.285   8.196 -0.4026  0.0541 -0.0281
   13BDTP    S2 4172   1.420   4.447   8.199 -0.2137 -0.0409  0.0273
   14FTM     S1 4173   1.388   4.785   8.204 -0.0677 -0.0566  0.2151
   14FTM     C1 4174   1.542   4.878   8.220  0.1514 -0.4105  0.1888
   14FTM     C2 4175   1.602   4.847   8.337  0.2185 -0.7218  0.0765
   14FTM     C3 4176   1.535   4.753   8.421  0.1063 -0.7044  0.0057
   14FTM     C4 4177   1.419   4.709   8.365 -0.0518 -0.3691  0.0657
   14FTM     F1 4178   1.723   4.904   8.377  0.3854 -1.0407  0.0312
   14FTM     C5 4179   1.596   4.973   8.114 -0.2087  0.0028 -0.0263
   14FTM     C6 4180   1.538   5.111   8.092  0.0404 -0.3248  0.4189
   14FTM     C7 4181   1.521   5.221   8.197 -0.2887  0.1383  0.1493
   14FTM     C8 4182   1.468   5.178   8.337  0.3766  1.0198 -0.0657
   14FTM     C9 4183   1.441   5.292   8.429 -0.3425 -0.0282  0.2595
   14FTM    C10 4184   1.390   5.250   8.566  0.4250 -0.4930 -0.2376
   14FTM    C11 4185   1.592   5.165   7.962 -0.8064  0.2124  1.0121
   14FTM    C12 4186   1.726   5.234   7.949  0.2985  0.2953 -0.1028
   15FTM     S1 4187   1.114   4.123   8.581  0.0246  0.0219  0.1783
   15FTM     C1 4188   0.943   4.080   8.620 -0.1016  0.4687  0.1262
   15FTM     C2 4189   0.862   4.186   8.594  0.1243  0.5383 -0.3262
   15FTM     C3 4190   0.926   4.304   8.545  0.4025  0.2557 -0.6516
   15FTM     C4 4191   1.060   4.288   8.532  0.3893 -0.0402 -0.4419
   15FTM     F1 4192   0.724   4.183   8.614  0.0925  0.8625 -0.4721
   15FTM     C5 4193   0.904   3.941   8.669  0.1146 -0.3523  0.1979
   15FTM     C6 4194   0.909   3.913   8.820 -0.9918 -0.2947 -0.2885
   15FTM     C7 4195   0.831   3.996   8.924 -0.0266 -0.4099  0.2802
   15FTM     C8 4196   0.678   4.012   8.911 -0.5642  0.0488  0.3338
   15FTM     C9 4197   0.603   3.881   8.932  0.3456  0.3907  0.2139
   15FTM    C10 4198   0.453   3.886   8.899  0.4163 -0.5847 -0.3134
   15FTM    C11 4199   1.051   3.873   8.871  0.0378 -0.3897 -0.6732
   15FTM    C12 4200   1.145   3.787   8.790  0.1635 -0.0964  0.6446
   16TPM     C1 4201   1.359   4.204   8.079 -0.5264 -0.1268 -0.1696
   16TPM     C2 4202   1.327   4.074   8.055 -1.1375  0.0917 -0.6056
   16TPM     C3 4203   1.381   4.023   7.931 -1.1764  0.1892 -0.6623
   16TPM     C4 4204   1.453   4.115   7.861 -0.5948  0.0452 -0.2690
   16TPM     S1 4205   1.459   4.274   7.947  0.0519 -0.2272  0.2068
   17BDD     C1 4206   1.574   3.934   7.535 -0.1957 -0.0297 -0.0498
   17BDD     C2 4207   1.601   4.065   7.512 -0.1364 -0.0286  0.0249
   17BDD     C3 4208   1.564   4.153   7.622 -0.0907 -0.0750  0.0769
   17BDD     C4 4209   1.509   4.086   7.728 -0.1159 -0.1106  0.0414
   17BDD     S1 4210   1.500   3.909   7.697 -0.1984 -0.0888 -0.0598
   17BDD     C5 4211   1.662   4.116   7.387 -0.1196  0.0150  0.0510
   17BDD     C6 4212   1.585   4.299   7.618 -0.0238 -0.0820  0.1600
   17BDD     O1 4213   1.553   4.374   7.713  0.0156 -0.1220  0.2048
   17BDD     O2 4214   1.694   4.041   7.292 -0.1590  0.0550  0.0063
   17BDD     C7 4215   1.646   4.350   7.494 -0.0069 -0.0384  0.1860
   17BDD     C8 4216   1.683   4.263   7.384 -0.0526  0.0080  0.1340
   17BDD     C9 4217   1.738   4.329   7.278 -0.0275  0.0436  0.1695
   17BDD     S2 4218   1.747   4.506   7.309  0.0551  0.0219  0.2705
   17BDD    C10 4219   1.673   4.482   7.470  0.0523 -0.0372  0.2604
   17BDD    C11 4220   1.668   4.608   7.553  0.4696  0.0800  0.4432
   17BDD    C12 4221   1.805   4.670   7.584 -0.3334  0.8211  0.4380
   17BDD    C13 4222   1.927   4.576   7.630 -0.4494  0.2592 -0.6848
   17BDD    C14 4223   2.066   4.649   7.641  0.1353 -0.2090 -0.7189
   17BDD    C15 4224   2.174   4.577   7.722 -0.0671  0.6012  0.9055
   17BDD    C16 4225   2.231   4.464   7.634 -0.2587 -0.2074 -0.2802
   17BDD    C17 4226   1.795   4.812   7.652 -0.0125 -0.0246  0.0229
   17BDD    C18 4227   1.700   4.921   7.607 -0.2439 -0.1748  0.1518
   17BDD    C19 4228   1.786   4.299   7.137  0.3210 -0.2846 -0.3355
   17BDD    C20 4229   1.921   4.236   7.125  0.6726 -0.4504  0.3730
   17BDD    C21 4230   2.034   4.298   7.209  0.0179  0.5149  0.5464
   17BDD    C22 4231   2.095   4.431   7.176  0.0327 -0.2394  0.5445
   17BDD    C23 4232   2.237   4.435   7.223 -0.1707  0.8971 -0.4212
   17BDD    C24 4233   2.321   4.509   7.125 -0.2015 -0.3700 -0.3691
   17BDD    C25 4234   1.939   4.203   6.977 -0.5830 -0.3141 -0.3683
   17BDD    C26 4235   2.068   4.132   6.941 -0.1563  0.2445  0.2055
   18TPM     C1 4236   1.589   3.806   7.461  0.3835 -0.3782  0.5923
   18TPM     C2 4237   1.495   3.710   7.488  0.1943 -0.3020  0.2203
   18TPM     C3 4238   1.499   3.599   7.397 -0.1053  0.0967 -0.2857
   18TPM     C4 4239   1.594   3.610   7.300 -0.1443  0.3245 -0.2996
   18TPM     S1 4240   1.688   3.763   7.317  0.1967  0.0508  0.3303
   19BDTP    C1 4241   1.730   3.281   6.782 -0.1655  0.2263  0.0919
   19BDTP    C2 4242   1.634   3.197   6.845 -0.1722  0.2141  0.0654
   19BDTP    C3 4243   1.575   3.228   6.967 -0.1346  0.1573  0.0985
   19BDTP    C4 4244   1.613   3.348   7.030 -0.0882  0.1101  0.1605
   19BDTP    C5 4245   1.710   3.432   6.967 -0.0815  0.1222  0.1870
   19BDTP    C6 4246   1.768   3.401   6.845 -0.1191  0.1792  0.1540
   19BDTP    C7 4247   1.566   3.402   7.156 -0.0439  0.0476  0.2037
   19BDTP    C8 4248   1.622   3.520   7.190 -0.0047  0.0127  0.2607
   19BDTP    S1 4249   1.742   3.581   7.068 -0.0184  0.0541  0.2676
   19BDTP    C9 4250   1.777   3.227   6.656 -0.2099  0.2888  0.0488
   19BDTP   C10 4251   1.722   3.109   6.622 -0.2491  0.3237 -0.0081
   19BDTP    S2 4252   1.602   3.048   6.744 -0.2353  0.2823 -0.0152
   20FTM     S1 4253   1.473   3.112   7.201  0.0054  0.1191 -0.0558
   20FTM     C1 4254   1.309   3.038   7.196  0.2188 -0.3714  0.0276
   20FTM     C2 4255   1.260   3.043   7.069  0.2667 -0.8056 -0.0106
   20FTM     C3 4256   1.345   3.103   6.970  0.1435 -0.7839 -0.1049
   20FTM     C4 4257   1.463   3.145   7.024 -0.0037 -0.3178 -0.1398
   20FTM     F1 4258   1.135   2.993   7.034  0.4250 -1.2485  0.0377
   20FTM     C5 4259   1.242   2.969   7.308 -0.2266  0.5379 -0.6624
   20FTM     C6 4260   1.325   2.927   7.437  0.4866 -0.0277 -0.4946
   20FTM     C7 4261   1.230   2.875   7.551  0.0430 -0.4242  0.5618
   20FTM     C8 4262   1.122   2.964   7.609 -0.6789 -0.1906 -0.0465
   20FTM     C9 4263   1.188   3.093   7.659  0.3661  0.4228  0.1018
   20FTM    C10 4264   1.092   3.182   7.736  0.3113  0.4929 -0.3635
   20FTM    C11 4265   1.450   2.843   7.422 -0.4698 -0.0385  0.2375
   20FTM    C12 4266   1.427   2.704   7.364 -0.3022 -0.2996  0.7207
   21FTM     S1 4267   1.844   3.540   6.596 -0.3588  0.0881  0.2196
   21FTM     C1 4268   1.961   3.674   6.621 -0.0955 -0.0752 -0.1303
   21FTM     C2 4269   1.993   3.685   6.752  0.2527 -0.0670 -0.2116
   21FTM     C3 4270   1.929   3.591   6.840  0.3339  0.0637 -0.0122
   21FTM     C4 4271   1.846   3.507   6.773  0.0384  0.1586  0.2302
   21FTM     F1 4272   2.081   3.780   6.801  0.5184 -0.1773 -0.4719
   21FTM     C5 4273   2.030   3.751   6.517  0.1139 -0.5684 -0.0179
   21FTM     C6 4274   2.126   3.690   6.411 -0.2603  1.0464  0.1633
   21FTM     C7 4275   2.190   3.780   6.309  0.4005 -0.1481 -0.4017
   21FTM     C8 4276   2.114   3.890   6.237 -0.2681  0.5457 -0.1446
   21FTM     C9 4277   2.018   3.849   6.126 -0.7731 -0.0376  0.1967
   21FTM    C10 4278   1.979   3.966   6.047  0.2456  0.0276  0.0005
   21FTM    C11 4279   2.229   3.591   6.485  0.1982 -0.2514  0.6858
   21FTM    C12 4280   2.326   3.504   6.397  0.6498 -0.0498 -0.0051
   22TPM     C1 4281   1.748   3.031   6.501 -0.6024 -0.0100 -0.1054
   22TPM     C2 4282   1.785   2.901   6.484 -0.6772 -0.0809  0.2551
   22TPM     C3 4283   1.800   2.862   6.346 -0.1719 -0.3247  0.3731
   22TPM     C4 4284   1.775   2.964   6.258  0.2882 -0.4398  0.1028
   22TPM     S1 4285   1.730   3.116   6.343  0.1176 -0.2477 -0.3251
   23BDD     C1 4286   1.706   2.982   5.869 -0.0574 -0.0987 -0.1990
   23BDD     C2 4287   1.830   2.925   5.881 -0.0397 -0.0444 -0.1239
   23BDD     C3 4288   1.872   2.908   6.019 -0.1380 -0.0739 -0.0969
   23BDD     C4 4289   1.780   2.952   6.110 -0.2293 -0.1504 -0.1519
   23BDD     S1 4290   1.634   3.018   6.030 -0.1984 -0.1907 -0.2410
   23BDD     C5 4291   1.913   2.884   5.767  0.0682  0.0367 -0.0743
   23BDD     C6 4292   2.003   2.849   6.055 -0.1379 -0.0252 -0.0178
   23BDD     O1 4293   2.039   2.835   6.174 -0.2227 -0.0507  0.0055
   23BDD     O2 4294   1.877   2.899   5.648  0.1530  0.0622 -0.0975
   23BDD     C7 4295   2.086   2.808   5.941 -0.0299  0.0559  0.0318
   23BDD     C8 4296   2.044   2.825   5.803  0.0684  0.0855  0.0049
   23BDD     C9 4297   2.136   2.781   5.712  0.1596  0.1618  0.0598
   23BDD     S2 4298   2.282   2.716   5.792  0.1287  0.2022  0.1491
   23BDD    C10 4299   2.210   2.752   5.953 -0.0123  0.1102  0.1069
   23BDD    C11 4300   2.291   2.716   6.073 -1.0835 -0.1795 -0.2162
   23BDD    C12 4301   2.290   2.557   6.098  0.7085  0.5457 -0.4954
   23BDD    C13 4302   2.271   2.520   6.242  0.1327 -0.1562 -0.1636
   23BDD    C14 4303   2.176   2.596   6.334  0.6218 -0.5446 -0.6681
   23BDD    C15 4304   2.182   2.548   6.473  0.0209  0.3932  0.0598
   23BDD    C16 4305   2.090   2.634   6.562  0.0036  0.0660  0.5787
   23BDD    C17 4306   2.405   2.486   6.022 -0.1171  0.8038  0.0245
   23BDD    C18 4307   2.541   2.529   6.071  0.2397  0.1836  0.3498
   23BDD    C19 4308   2.144   2.775   5.559 -0.3088 -0.0987 -0.0760
   23BDD    C20 4309   2.071   2.662   5.488 -0.4129  0.5196 -0.2315
   23BDD    C21 4310   2.080   2.671   5.338 -0.0609 -0.3977 -0.1774
   23BDD    C22 4311   2.018   2.785   5.255  0.5131 -0.0866 -0.1972
   23BDD    C23 4312   1.869   2.797   5.270  0.1132 -0.5559  0.4988
   23BDD    C24 4313   1.802   2.923   5.200 -0.3514  0.3036 -0.1975
   23BDD    C25 4314   2.094   2.520   5.547  0.2290  0.2742 -0.6347
   23BDD    C26 4315   2.016   2.397   5.494 -0.7851 -0.1021 -0.1550
   24TPM     C1 4316   1.621   3.019   5.758  0.2016  0.3258 -0.0373
   24TPM     C2 4317   1.599   2.943   5.647  0.5417  0.5845 -0.2854
   24TPM     C3 4318   1.476   2.973   5.579  0.5563  0.4674 -0.3647
   24TPM     C4 4319   1.403   3.072   5.638  0.2273  0.1195 -0.1771
   24TPM     S1 4320   1.486   3.136   5.786 -0.1293 -0.0890  0.1166
   25BDTP    C1 4321   0.796   3.128   5.476 -0.1973 -0.0026 -0.1613
   25BDTP    C2 4322   0.789   3.119   5.618 -0.1793 -0.0126 -0.1609
   25BDTP    C3 4323   0.901   3.109   5.698 -0.1693 -0.0244 -0.1763
   25BDTP    C4 4324   1.027   3.108   5.636 -0.1775 -0.0263 -0.1928
   25BDTP    C5 4325   1.035   3.117   5.494 -0.1955 -0.0163 -0.1931
   25BDTP    C6 4326   0.922   3.127   5.413 -0.2055 -0.0045 -0.1777
   25BDTP    C7 4327   1.158   3.099   5.698 -0.1698 -0.0377 -0.2107
   25BDTP    C8 4328   1.261   3.100   5.611 -0.1812 -0.0367 -0.2240
   25BDTP    S1 4329   1.208   3.113   5.438 -0.2031 -0.0212 -0.2160
   25BDTP    C9 4330   0.666   3.138   5.413 -0.2049  0.0089 -0.1435
   25BDTP   C10 4331   0.562   3.136   5.501 -0.1937  0.0078 -0.1302
   25BDTP    S2 4332   0.615   3.123   5.674 -0.1718 -0.0077 -0.1380
   26FTM     S1 4333   0.998   2.995   5.948  0.3892 -0.0660 -0.0087
   26FTM     C1 4334   0.907   3.045   6.096  0.0179 -0.4031 -0.1198
   26FTM     C2 4335   0.806   3.129   6.061 -0.1271 -0.6192 -0.2224
   26FTM     C3 4336   0.793   3.158   5.922  0.0378 -0.5378 -0.2209
   26FTM     C4 4337   0.887   3.095   5.847  0.3181 -0.2499 -0.1137
   26FTM     F1 4338   0.718   3.184   6.154 -0.4176 -0.9037 -0.3237
   26FTM     C5 4339   0.968   3.019   6.235  0.2905 -1.1671  0.0556
   26FTM     C6 4340   0.907   2.906   6.326  0.7503  0.3289 -0.5340
   26FTM     C7 4341   0.778   2.968   6.396  0.8568  0.0114  0.2338
   26FTM     C8 4342   0.745   2.908   6.535  0.6603  0.1203  0.1513
   26FTM     C9 4343   0.847   2.937   6.638 -0.4737  1.1399  0.2718
   26FTM    C10 4344   0.877   2.838   6.745  0.3536  0.2003  0.3660
   26FTM    C11 4345   0.878   2.770   6.254 -0.4190 -0.7477  0.1476
   26FTM    C12 4346   1.011   2.706   6.212  0.4438  0.3930 -0.3676
   27FTM     S1 4347   0.853   3.074   5.145 -0.0760  0.0713  0.0823
   27FTM     C1 4348   0.905   3.196   5.023 -0.4597  0.2465  0.0933
   27FTM     C2 4349   0.983   3.290   5.083 -0.7695  0.5002  0.1057
   27FTM     C3 4350   1.007   3.273   5.223 -0.7284  0.5721  0.1076
   27FTM     C4 4351   0.945   3.162   5.273 -0.3756  0.3667  0.0960
   27FTM     F1 4352   1.038   3.397   5.013 -1.1087  0.6825  0.1165
   27FTM     C5 4353   0.844   3.198   4.886 -0.4591  0.4557 -0.2928
   27FTM     C6 4354   0.908   3.112   4.776 -0.0232  0.2056 -0.6341
   27FTM     C7 4355   1.056   3.144   4.742 -0.1955 -0.7619  0.2121
   27FTM     C8 4356   1.103   3.291   4.721 -0.2439 -0.2869 -0.1646
   27FTM     C9 4357   1.253   3.303   4.714  0.3120 -0.5474  0.1571
   27FTM    C10 4358   1.312   3.439   4.650  0.3199  0.2379  0.7625
   27FTM    C11 4359   0.896   2.960   4.800 -0.0117 -0.0301 -0.2121
   27FTM    C12 4360   0.761   2.894   4.839 -0.2504 -0.1987 -0.7910
   28TPM     C1 4361   0.426   3.112   5.455 -0.0210 -0.0221 -0.4100
   28TPM     C2 4362   0.368   3.137   5.334 -0.5504  0.6751 -0.0257
   28TPM     C3 4363   0.234   3.086   5.322 -0.7482  1.0843  0.3912
   28TPM     C4 4364   0.189   3.022   5.434 -0.3695  0.6989  0.3252
   28TPM     S1 4365   0.315   3.021   5.564  0.2712 -0.2178 -0.2736
   29BDD     C1 4366  -0.140   2.848   5.317  0.0538 -0.0062 -0.2451
   29BDD     C2 4367  -0.060   2.746   5.360  0.0279  0.0036 -0.1742
   29BDD     C3 4368   0.067   2.792   5.415 -0.0784  0.0272  0.0556
   29BDD     C4 4369   0.081   2.928   5.412 -0.1324  0.0351  0.1564
   29BDD     S1 4370  -0.063   3.008   5.341 -0.0536  0.0134 -0.0291
   29BDD     C5 4371  -0.096   2.603   5.353  0.1004 -0.0083 -0.3153
   29BDD     C6 4372   0.169   2.699   5.467 -0.1228  0.0412  0.1664
   29BDD     O1 4373   0.278   2.739   5.514 -0.2146  0.0616  0.3645
   29BDD     O2 4374  -0.205   2.563   5.306  0.1924 -0.0287 -0.5133
   29BDD     C7 4375   0.133   2.556   5.461 -0.0503  0.0292  0.0255
   29BDD     C8 4376   0.006   2.510   5.406  0.0563  0.0056 -0.2043
   29BDD     C9 4377  -0.008   2.374   5.409  0.1104 -0.0022 -0.3054
   29BDD     S2 4378   0.136   2.295   5.480  0.0313  0.0195 -0.1198
   29BDD    C10 4379   0.213   2.455   5.504 -0.0758  0.0391  0.0962
   29BDD    C11 4380   0.348   2.445   5.575  0.2819  0.1594  0.1055
   29BDD    C12 4381   0.351   2.392   5.720  0.0222 -0.3152 -0.9592
   29BDD    C13 4382   0.490   2.386   5.777 -0.5969 -0.1435  0.4927
   29BDD    C14 4383   0.517   2.293   5.893  0.1984  0.0923 -0.1549
   29BDD    C15 4384   0.660   2.303   5.938  0.2174  0.3648  0.0090
   29BDD    C16 4385   0.721   2.218   6.053  0.4055 -0.0241  0.0844
   29BDD    C17 4386   0.252   2.456   5.820 -0.2221  0.0302 -0.1798
   29BDD    C18 4387   0.280   2.594   5.883 -0.2477 -0.5955  0.8906
   29BDD    C19 4388  -0.112   2.279   5.363 -0.3083 -0.6350  0.2756
   29BDD    C20 4389  -0.201   2.222   5.484  0.4633 -0.3535 -0.1758
   29BDD    C21 4390  -0.291   2.115   5.424  0.7632  0.4202  0.0838
   29BDD    C22 4391  -0.367   2.020   5.517  0.0161 -0.6050  0.5780
   29BDD    C23 4392  -0.450   1.918   5.443  0.4702 -1.0862 -0.1386
   29BDD    C24 4393  -0.551   1.885   5.541  0.6212  0.1952 -0.2364
   29BDD    C25 4394  -0.274   2.324   5.582 -0.6749  0.5056  0.0112
   29BDD    C26 4395  -0.400   2.396   5.538  0.1211  0.1739  0.2815
   30TPM     C1 4396  -0.268   2.866   5.240  0.2166  0.0117 -0.1663
   30TPM     C2 4397  -0.296   2.982   5.173  0.6728 -0.2798 -0.8848
   30TPM     C3 4398  -0.420   2.979   5.100  0.8504 -0.3732 -1.1858
   30TPM     C4 4399  -0.487   2.861   5.111  0.5300 -0.1529 -0.6969
   30TPM     S1 4400  -0.398   2.743   5.215 -0.0251  0.1923  0.1887
   31BDTP    C1 4401  -1.070   2.712   4.913 -0.0706  0.1445 -0.0914
   31BDTP    C2 4402  -1.025   2.593   4.979 -0.1390  0.1828  0.0241
   31BDTP    C3 4403  -0.899   2.582   5.036 -0.1848  0.2031  0.1302
   31BDTP    C4 4404  -0.813   2.692   5.028 -0.1626  0.1849  0.1223
   31BDTP    C5 4405  -0.857   2.811   4.962 -0.0944  0.1466  0.0068
   31BDTP    C6 4406  -0.983   2.822   4.905 -0.0484  0.1262 -0.0993
   31BDTP    C7 4407  -0.678   2.704   5.079 -0.2009  0.2002  0.2196
   31BDTP    C8 4408  -0.619   2.824   5.055 -0.1647  0.1755  0.1832
   31BDTP    S1 4409  -0.727   2.939   4.964 -0.0772  0.1294  0.0206
   31BDTP    C9 4410  -1.205   2.700   4.861 -0.0322  0.1292 -0.1887
   31BDTP   C10 4411  -1.263   2.580   4.885 -0.0684  0.1539 -0.1523
   31BDTP    S2 4412  -1.155   2.465   4.976 -0.1557  0.2000  0.0102
   32FTM     S1 4413  -0.898   2.439   5.282 -0.0297  0.3560 -0.2404
   32FTM     C1 4414  -0.838   2.269   5.278 -0.2487  0.2751 -0.1621
   32FTM     C2 4415  -0.795   2.238   5.153 -0.0451  0.2492 -0.0875
   32FTM     C3 4416  -0.807   2.342   5.055  0.2854  0.2898 -0.0867
   32FTM     C4 4417  -0.860   2.456   5.106  0.3367  0.3486 -0.1631
   32FTM     F1 4418  -0.743   2.114   5.120 -0.1462  0.1873 -0.0155
   32FTM     C5 4419  -0.845   2.195   5.411  0.1297  0.5544 -0.2671
   32FTM     C6 4420  -0.976   2.196   5.486 -0.7367  0.0163  0.0430
   32FTM     C7 4421  -1.096   2.134   5.409  0.7901 -0.0060 -0.5373
   32FTM     C8 4422  -1.157   2.183   5.273  0.0820  0.3695 -0.0531
   32FTM     C9 4423  -1.268   2.094   5.226  0.0858  0.3153  0.6629
   32FTM    C10 4424  -1.277   2.089   5.069 -0.9512 -0.1005 -0.4744
   32FTM    C11 4425  -0.954   2.167   5.636  0.5887 -0.7210 -0.6084
   32FTM    C12 4426  -1.067   2.189   5.730 -0.2478 -0.4565  0.1624
   33FTM     S1 4427  -1.198   3.007   4.916  0.1201 -0.2625  0.0392
   33FTM     C1 4428  -1.181   3.155   4.814 -0.1159 -0.1471  0.1657
   33FTM     C2 4429  -1.063   3.151   4.746 -0.0064  0.2043  0.3303
   33FTM     C3 4430  -0.981   3.035   4.768  0.2611  0.4005  0.3673
   33FTM     C4 4431  -1.037   2.948   4.857  0.3599  0.1925  0.2261
   33FTM     F1 4432  -1.023   3.251   4.659 -0.1416  0.3691  0.4573
   33FTM     C5 4433  -1.293   3.252   4.805  0.3745 -0.0466  0.4444
   33FTM     C6 4434  -1.347   3.321   4.932 -0.0026  0.1531 -0.0587
   33FTM     C7 4435  -1.236   3.376   5.025  0.0400  0.4952  0.4826
   33FTM     C8 4436  -1.160   3.493   4.972 -0.1644 -0.3838  0.0916
   33FTM     C9 4437  -1.034   3.519   5.055  0.3643  0.3586  0.4929
   33FTM    C10 4438  -1.037   3.585   5.189  0.2328  0.1636 -0.1869
   33FTM    C11 4439  -1.459   3.246   5.005  0.3066 -0.3487  0.3875
   33FTM    C12 4440  -1.541   3.311   5.110  0.3240 -0.1179  0.2284
   34TPM     C1 4441  -1.404   2.545   4.874 -0.5415  0.1871  0.2044
   34TPM     C2 4442  -1.519   2.617   4.887 -0.7362 -0.0824 -0.0118
   34TPM     C3 4443  -1.638   2.536   4.892 -0.5553 -0.3626 -0.2234
   34TPM     C4 4444  -1.613   2.402   4.882 -0.2226 -0.3066 -0.1689
   34TPM     S1 4445  -1.437   2.368   4.867 -0.1112  0.1074  0.1571
   35BDD     C1 4446  -1.790   2.064   4.966 -0.2324 -0.0545  0.2832
   35BDD     C2 4447  -1.875   2.132   4.884 -0.1785 -0.0631  0.2202
   35BDD     C3 4448  -1.827   2.265   4.849 -0.0856 -0.1240  0.1175
   35BDD     C4 4449  -1.706   2.295   4.904 -0.0697 -0.1610  0.1036
   35BDD     S1 4450  -1.644   2.160   5.005 -0.1702 -0.1221  0.2183
   35BDD     C5 4451  -2.004   2.079   4.835 -0.2103 -0.0157  0.2521
   35BDD     C6 4452  -1.903   2.356   4.761 -0.0156 -0.1433  0.0370
   35BDD     O1 4453  -1.861   2.470   4.730  0.0645 -0.1959 -0.0515
   35BDD     O2 4454  -2.045   1.965   4.865 -0.2904  0.0368  0.3407
   35BDD     C7 4455  -2.031   2.303   4.712 -0.0476 -0.0959  0.0688
   35BDD     C8 4456  -2.079   2.171   4.747 -0.1404 -0.0350  0.1714
   35BDD     C9 4457  -2.201   2.140   4.691 -0.1559  0.0019  0.1851
   35BDD     S2 4458  -2.262   2.275   4.590 -0.0556 -0.0369  0.0707
   35BDD    C10 4459  -2.116   2.372   4.629  0.0064 -0.1045  0.0058
   35BDD    C11 4460  -2.109   2.512   4.572 -0.0525 -0.7169  0.1559
   35BDD    C12 4461  -2.095   2.532   4.417  0.2827 -0.5294  0.1848
   35BDD    C13 4462  -2.104   2.686   4.377 -0.2577  0.1714  0.2593
   35BDD    C14 4463  -2.107   2.715   4.228  0.1904 -0.5458 -0.1472
   35BDD    C15 4464  -2.141   2.865   4.213 -0.2076 -0.7354 -0.1172
   35BDD    C16 4465  -2.126   2.920   4.077  0.2086  0.7610  0.5194
   35BDD    C17 4466  -1.985   2.455   4.339 -0.2431 -0.2499 -0.1380
   35BDD    C18 4467  -1.842   2.476   4.389 -0.1834 -0.3398  0.0881
   35BDD    C19 4468  -2.282   2.012   4.692  0.0664 -0.3775  0.2905
   35BDD    C20 4469  -2.409   2.010   4.780  0.3664  0.0947  0.0645
   35BDD    C21 4470  -2.498   1.888   4.742 -0.0729 -0.3984 -0.0509
   35BDD    C22 4471  -2.533   1.869   4.590 -0.4682  0.4706 -0.8832
   35BDD    C23 4472  -2.618   1.974   4.532  0.2368 -0.2050  0.3397
   35BDD    C24 4473  -2.759   1.981   4.592 -0.2750  0.0360 -0.5477
   35BDD    C25 4474  -2.379   2.022   4.927  0.4723 -0.2822 -0.5556
   35BDD    C26 4475  -2.319   1.909   5.010 -0.1472  0.0975  0.5337
   36TPM     C1 4476  -1.780   1.925   5.027  0.2501  0.1843 -0.1856
   36TPM     C2 4477  -1.659   1.873   5.062  0.3437  0.1149 -0.5975
   36TPM     C3 4478  -1.667   1.744   5.125  0.4892  0.0869 -0.6353
   36TPM     C4 4479  -1.795   1.697   5.137  0.5063  0.1349 -0.2520
   36TPM     S1 4480  -1.915   1.813   5.070  0.3388  0.2199  0.1894
   37BDTP    C1 4481  -2.009   1.163   5.390 -0.0795 -0.0097 -0.0557
   37BDTP    C2 4482  -1.868   1.153   5.409 -0.0784  0.0323 -0.0414
   37BDTP    C3 4483  -1.780   1.252   5.368 -0.1024  0.0502 -0.0494
   37BDTP    C4 4484  -1.833   1.367   5.306 -0.1285  0.0256 -0.0726
   37BDTP    C5 4485  -1.974   1.377   5.288 -0.1297 -0.0165 -0.0867
   37BDTP    C6 4486  -2.062   1.277   5.329 -0.1056 -0.0344 -0.0786
   37BDTP    C7 4487  -1.762   1.483   5.256 -0.1562  0.0373 -0.0845
   37BDTP    C8 4488  -1.842   1.578   5.201 -0.1776  0.0065 -0.1068
   37BDTP    S1 4489  -2.018   1.534   5.206 -0.1659 -0.0417 -0.1156
   37BDTP    C9 4490  -2.080   1.047   5.441 -0.0520 -0.0215 -0.0435
   37BDTP   C10 4491  -2.000   0.952   5.495 -0.0305  0.0093 -0.0212
   37BDTP    S2 4492  -1.824   0.996   5.491 -0.0422  0.0575 -0.0125
   38FTM     S1 4493  -1.530   1.130   5.301 -0.0337  0.0648  0.0422
   38FTM     C1 4494  -1.392   1.165   5.410 -0.0994  0.2905  0.0543
   38FTM     C2 4495  -1.432   1.246   5.512 -0.3107 -0.0022  0.2087
   38FTM     C3 4496  -1.570   1.286   5.510 -0.4318 -0.4100  0.3244
   38FTM     C4 4497  -1.637   1.233   5.404 -0.3087 -0.4302  0.2561
   38FTM     F1 4498  -1.347   1.290   5.612 -0.4072  0.0817  0.2545
   38FTM     C5 4499  -1.255   1.103   5.383  0.4952 -0.2773 -0.6414
   38FTM     C6 4500  -1.227   0.963   5.443  0.0998  1.0977  0.4966
   38FTM     C7 4501  -1.074   0.931   5.448  0.1511  0.0968 -0.1107
   38FTM     C8 4502  -0.975   1.014   5.538 -0.5895 -0.2185  0.1416
   38FTM     C9 4503  -0.835   0.962   5.554 -0.7370  0.7507 -0.1472
   38FTM    C10 4504  -0.750   1.045   5.654 -0.0502 -0.1761  0.3684
   38FTM    C11 4505  -1.320   0.841   5.405 -0.0213  0.7840 -0.4202
   38FTM    C12 4506  -1.295   0.705   5.470 -0.1109  0.3602 -0.3132
   39FTM     S1 4507  -2.320   1.189   5.224 -0.1333 -0.0281  0.0533
   39FTM     C1 4508  -2.461   1.281   5.290 -0.0828  0.0530  0.0485
   39FTM     C2 4509  -2.417   1.382   5.370 -0.0237  0.0990 -0.0416
   39FTM     C3 4510  -2.275   1.394   5.385 -0.0144  0.0745 -0.1103
   39FTM     C4 4511  -2.208   1.299   5.314 -0.0682  0.0076 -0.0720
   39FTM     F1 4512  -2.503   1.469   5.435  0.0253  0.1660 -0.0666
   39FTM     C5 4513  -2.601   1.239   5.268  0.0891  0.5545  0.1314
   39FTM     C6 4514  -2.649   1.094   5.289  0.6823  0.2362  0.1491
   39FTM     C7 4515  -2.622   1.054   5.434 -0.2262 -0.3580  0.6950
   39FTM     C8 4516  -2.707   0.936   5.479  0.8798 -0.5448  0.1336
   39FTM     C9 4517  -2.687   0.910   5.629 -0.2042  0.4905 -0.5319
   39FTM    C10 4518  -2.763   0.784   5.682  0.1258  0.2962 -0.3647
   39FTM    C11 4519  -2.621   0.993   5.171 -0.1774  0.0117  0.1077
   39FTM    C12 4520  -2.655   1.038   5.026  0.0843  0.4550 -0.4655
   40TPM     C1 4521  -2.055   0.822   5.549 -0.0470 -0.2414  0.1106
   40TPM     C2 4522  -1.984   0.712   5.586 -0.2544 -0.3897  0.0693
   40TPM     C3 4523  -2.066   0.600   5.625 -0.4652 -0.2580  0.0043
   40TPM     C4 4524  -2.200   0.626   5.617 -0.4185 -0.0093 -0.0039
   40TPM     S1 4525  -2.232   0.794   5.560 -0.1023  0.0786  0.0702
   41BDD     C1 4526  -2.526   0.433   5.520 -0.0684 -0.0330 -0.1960
   41BDD     C2 4527  -2.455   0.342   5.592 -0.0513 -0.0282 -0.2072
   41BDD     C3 4528  -2.329   0.394   5.643 -0.1014  0.0158 -0.1276
   41BDD     C4 4529  -2.307   0.525   5.609 -0.1563  0.0440 -0.0572
   41BDD     S1 4530  -2.441   0.591   5.510 -0.1487  0.0173 -0.0857
   41BDD     C5 4531  -2.500   0.203   5.617  0.0119 -0.0639 -0.2909
   41BDD     C6 4532  -2.236   0.313   5.724 -0.0935  0.0284 -0.1241
   41BDD     O1 4533  -2.128   0.358   5.768 -0.1367  0.0663 -0.0556
   41BDD     O2 4534  -2.608   0.158   5.573  0.0553 -0.1018 -0.3594
   41BDD     C7 4535  -2.281   0.174   5.749 -0.0300 -0.0073 -0.2080
   41BDD     C8 4536  -2.406   0.122   5.698  0.0204 -0.0513 -0.2875
   41BDD     C9 4537  -2.429  -0.009   5.732  0.0751 -0.0794 -0.3576
   41BDD     S2 4538  -2.295  -0.075   5.831  0.0675 -0.0529 -0.3292
   41BDD    C10 4539  -2.210   0.083   5.821 -0.0128 -0.0025 -0.2186
   41BDD    C11 4540  -2.071   0.075   5.881 -0.6249  0.3514  0.0879
   41BDD    C12 4541  -1.953  -0.017   5.827  0.5120 -0.0104 -0.5312
   41BDD    C13 4542  -1.935  -0.003   5.675  0.1909  0.2059  0.1341
   41BDD    C14 4543  -1.910   0.127   5.601 -0.4663  0.3670 -0.5161
   41BDD    C15 4544  -1.932   0.138   5.450 -0.3183  0.0196 -0.2643
   41BDD    C16 4545  -2.064   0.099   5.386  0.4726  0.1763 -0.3253
   41BDD    C17 4546  -1.985  -0.159   5.877 -0.4662  0.6631  0.2235
   41BDD    C18 4547  -1.874  -0.269   5.849  0.3455  0.4323 -0.3977
   41BDD    C19 4548  -2.534  -0.111   5.702  0.6721 -0.1651  0.6097
   41BDD    C20 4549  -2.490  -0.223   5.602  0.4372  0.8545  0.1877
   41BDD    C21 4550  -2.413  -0.166   5.475  0.2591  1.1866 -0.1794
   41BDD    C22 4551  -2.464  -0.056   5.382  0.6165  0.0752 -0.4004
   41BDD    C23 4552  -2.377  -0.034   5.270 -0.4178 -0.1545  0.1170
   41BDD    C24 4553  -2.421   0.085   5.188 -0.4384 -0.1478  0.0263
   41BDD    C25 4554  -2.432  -0.356   5.659  0.4289 -0.1575 -0.1772
   41BDD    C26 4555  -2.511  -0.414   5.778 -0.1286  0.0130  0.0045
   42TPM     C1 4556  -2.643   0.439   5.439 -0.1227 -0.0335 -0.2165
   42TPM     C2 4557  -2.765   0.387   5.473 -0.1318 -0.2414 -0.5603
   42TPM     C3 4558  -2.873   0.436   5.391 -0.0434 -0.1014 -0.5953
   42TPM     C4 4559  -2.834   0.524   5.295  0.0334  0.2134 -0.2782
   42TPM     S1 4560  -2.656   0.554   5.300 -0.0002  0.3584  0.0921
   43BDTP    C1 4561  -3.125   0.904   4.893  0.0982 -0.0082 -0.1488
   43BDTP    C2 4562  -3.149   0.775   4.835 -0.0088 -0.0219 -0.0738
   43BDTP    C3 4563  -3.105   0.658   4.894 -0.1086 -0.0246 -0.0039
   43BDTP    C4 4564  -3.034   0.666   5.015 -0.1026 -0.0132 -0.0081
   43BDTP    C5 4565  -3.010   0.795   5.073  0.0043  0.0005 -0.0831
   43BDTP    C6 4566  -3.054   0.912   5.014  0.1041  0.0032 -0.1531
   43BDTP    C7 4567  -2.979   0.558   5.094 -0.1943 -0.0134  0.0562
   43BDTP    C8 4568  -2.915   0.599   5.207 -0.1619 -0.0006  0.0331
   43BDTP    S1 4569  -2.916   0.779   5.228 -0.0105  0.0134 -0.0730
   43BDTP    C9 4570  -3.180   1.012   4.814  0.1899 -0.0080 -0.2130
   43BDTP   C10 4571  -3.244   0.971   4.701  0.1575 -0.0208 -0.1900
   43BDTP    S2 4572  -3.243   0.791   4.679  0.0060 -0.0348 -0.0839
   44FTM     S1 4573  -2.998   0.416   4.766 -0.0115 -0.5594  0.1918
   44FTM     C1 4574  -3.116   0.283   4.742 -0.4342 -0.1367 -0.0937
   44FTM     C2 4575  -3.239   0.322   4.785 -0.4036  0.3038 -0.3898
   44FTM     C3 4576  -3.248   0.454   4.838 -0.0582  0.3387 -0.4119
   44FTM     C4 4577  -3.129   0.519   4.836  0.1838 -0.0891 -0.1236
   44FTM     F1 4578  -3.351   0.240   4.778 -0.6870  0.7016 -0.6582
   44FTM     C5 4579  -3.080   0.144   4.703  0.0000  0.2890 -0.7415
   44FTM     C6 4580  -2.966   0.099   4.617 -0.6034 -0.0516  0.4381
   44FTM     C7 4581  -2.988   0.169   4.478  0.1322 -0.0536  0.1493
   44FTM     C8 4582  -2.919   0.123   4.348  0.9726 -0.5172 -0.5973
   44FTM     C9 4583  -2.982   0.211   4.231 -0.1112 -0.1590  0.2904
   44FTM    C10 4584  -2.916   0.184   4.091 -0.3391  0.3632 -0.6155
   44FTM    C11 4585  -2.823   0.108   4.678 -0.0124 -0.0368  0.1142
   44FTM    C12 4586  -2.788   0.070   4.823  0.3524  0.0792 -0.4214
   45FTM     S1 4587  -2.960   1.182   4.990 -0.1418 -0.1557  0.0406
   45FTM     C1 4588  -3.015   1.297   5.117  0.2781  0.1067 -0.0133
   45FTM     C2 4589  -3.084   1.230   5.213  0.2825  0.3601  0.1680
   45FTM     C3 4590  -3.099   1.089   5.194 -0.0330  0.3655  0.3552
   45FTM     C4 4591  -3.039   1.046   5.079 -0.2870  0.1079  0.3161
   45FTM     F1 4592  -3.138   1.293   5.324  0.5720  0.6021  0.1751
   45FTM     C5 4593  -2.987   1.442   5.095 -0.0988 -0.7299  0.1317
   45FTM     C6 4594  -3.062   1.524   4.990  0.3110 -0.4325  0.0624
   45FTM     C7 4595  -3.027   1.490   4.846 -0.6170 -0.9243 -0.0029
   45FTM     C8 4596  -3.096   1.566   4.730  0.2383  0.2486  0.5261
   45FTM     C9 4597  -3.054   1.490   4.602  0.0128 -0.4644  0.1750
   45FTM    C10 4598  -3.096   1.574   4.484  0.8905 -0.0715 -0.3787
   45FTM    C11 4599  -3.214   1.516   5.001 -0.3858 -0.0202 -0.2451
   45FTM    C12 4600  -3.284   1.589   5.116  0.4818  0.4285  0.0220
   46TPM     C1 4601  -3.295   1.055   4.597 -0.3699  0.0757  0.3421
   46TPM     C2 4602  -3.226   1.135   4.510 -0.0967 -0.0229  0.4658
   46TPM     C3 4603  -3.308   1.193   4.407  0.1457  0.2152  0.4044
   46TPM     C4 4604  -3.440   1.157   4.415  0.0572  0.4955  0.2339
   46TPM     S1 4605  -3.470   1.046   4.554 -0.3421  0.4803  0.1368
   47BDD     C1 4606  -3.709   1.110   4.137 -0.1069  0.0117  0.1203
   47BDD     C2 4607  -3.663   1.237   4.119 -0.1000  0.0027  0.0716
   47BDD     C3 4608  -3.559   1.274   4.213 -0.0094 -0.0101 -0.0236
   47BDD     C4 4609  -3.527   1.174   4.301  0.0515 -0.0106 -0.0463
   47BDD     S1 4610  -3.625   1.027   4.272 -0.0004  0.0048  0.0498
   47BDD     C5 4611  -3.714   1.330   4.016 -0.1767  0.0055  0.1112
   47BDD     C6 4612  -3.495   1.407   4.213  0.0136 -0.0213 -0.0886
   47BDD     O1 4613  -3.405   1.439   4.294  0.0917 -0.0323 -0.1707
   47BDD     O2 4614  -3.804   1.298   3.935 -0.2549  0.0165  0.1933
   47BDD     C7 4615  -3.545   1.500   4.109 -0.0632 -0.0185 -0.0491
   47BDD     C8 4616  -3.649   1.463   4.015 -0.1539 -0.0058  0.0461
   47BDD     C9 4617  -3.681   1.563   3.928 -0.2149 -0.0052  0.0689
   47BDD     S2 4618  -3.583   1.710   3.957 -0.1630 -0.0206 -0.0273
   47BDD    C10 4619  -3.499   1.627   4.092 -0.0564 -0.0275 -0.0976
   47BDD    C11 4620  -3.397   1.709   4.166  0.1965 -0.3492 -0.3100
   47BDD    C12 4621  -3.432   1.833   4.252 -0.4491  0.3337  0.7545
   47BDD    C13 4622  -3.498   1.802   4.390  0.2293  0.1234  1.1359
   47BDD    C14 4623  -3.553   1.918   4.470 -0.2082  0.1525 -0.7937
   47BDD    C15 4624  -3.692   1.979   4.427 -0.6151 -0.2601 -0.2385
   47BDD    C16 4625  -3.752   2.072   4.537 -0.3293  0.0168 -0.1110
   47BDD    C17 4626  -3.319   1.937   4.262 -0.2411 -0.3507  0.5522
   47BDD    C18 4627  -3.227   1.962   4.138  0.2985 -0.3053  0.0891
   47BDD    C19 4628  -3.790   1.588   3.823 -0.1996  0.1761 -0.0098
   47BDD    C20 4629  -3.762   1.544   3.678 -0.2916  0.7180  0.8048
   47BDD    C21 4630  -3.892   1.539   3.598 -0.2052  0.0092  1.1193
   47BDD    C22 4631  -3.889   1.483   3.456  0.2669  0.6224 -0.0249
   47BDD    C23 4632  -4.023   1.461   3.382 -0.4640 -0.0076 -0.1803
   47BDD    C24 4633  -4.124   1.572   3.382  0.4554 -0.2145 -0.1801
   47BDD    C25 4634  -3.644   1.592   3.602  0.0369  0.3375  0.1918
   47BDD    C26 4635  -3.623   1.733   3.567 -0.5325 -0.3757 -0.3104
   48TPM     C1 4636  -3.802   1.013   4.071 -0.0463  0.2530 -0.2926
   48TPM     C2 4637  -3.926   1.046   4.025 -0.3440  0.2225  0.4647
   48TPM     C3 4638  -4.004   0.932   3.984 -0.5548  0.2077  0.8941
   48TPM     C4 4639  -3.940   0.813   3.998 -0.4177  0.2268  0.4642
   48TPM     S1 4640  -3.774   0.835   4.065 -0.0086  0.2654 -0.5239
   49BDTP    C1 4641  -4.188   0.240   3.915  0.0204 -0.1819 -0.1416
   49BDTP    C2 4642  -4.091   0.220   4.018 -0.0638 -0.1197 -0.0495
   49BDTP    C3 4643  -4.010   0.322   4.065 -0.1522 -0.0745  0.0060
   49BDTP    C4 4644  -4.024   0.450   4.009 -0.1578 -0.0913 -0.0308
   49BDTP    C5 4645  -4.120   0.470   3.906 -0.0734 -0.1535 -0.1229
   49BDTP    C6 4646  -4.202   0.368   3.859  0.0150 -0.1987 -0.1784
   49BDTP    C7 4647  -3.950   0.570   4.042 -0.2412 -0.0526  0.0135
   49BDTP    C8 4648  -3.987   0.679   3.970 -0.2236 -0.0823 -0.0402
   49BDTP    S1 4649  -4.119   0.644   3.850 -0.0992 -0.1636 -0.1544
   49BDTP    C9 4650  -4.261   0.119   3.882  0.1038 -0.2206 -0.1858
   49BDTP   C10 4651  -4.225   0.011   3.955  0.0864 -0.1909 -0.1322
   49BDTP    S2 4652  -4.092   0.046   4.074 -0.0382 -0.1096 -0.0180
   50FTM     S1 4653  -3.730   0.354   4.162 -0.0540 -0.2605  0.0102
   50FTM     C1 4654  -3.707   0.299   4.332 -0.1597 -0.0734  0.0856
   50FTM     C2 4655  -3.824   0.247   4.379 -0.2224  0.0901  0.1118
   50FTM     C3 4656  -3.935   0.247   4.288 -0.1929  0.0801  0.0758
   50FTM     C4 4657  -3.902   0.301   4.168 -0.1047 -0.0968  0.0202
   50FTM     F1 4658  -3.837   0.196   4.508 -0.3102  0.2586  0.1702
   50FTM     C5 4659  -3.579   0.310   4.405 -0.0634 -0.0080 -0.5328
   50FTM     C6 4660  -3.500   0.438   4.381 -0.7873 -0.3656 -0.1992
   50FTM     C7 4661  -3.547   0.563   4.453 -0.5742  0.1347 -1.1886
   50FTM     C8 4662  -3.572   0.546   4.615  0.3166 -0.1662 -0.3880
   50FTM     C9 4663  -3.600   0.694   4.658 -0.0964 -0.1348  0.0749
   50FTM    C10 4664  -3.613   0.713   4.810  0.0035 -0.4191 -0.2383
   50FTM    C11 4665  -3.356   0.392   4.408  0.2311  0.7641 -0.1315
   50FTM    C12 4666  -3.248   0.494   4.395  0.1257 -0.3514 -0.4133
   51FTM     S1 4667  -4.288   0.285   3.591  0.0554  0.3399  0.3151
   51FTM     C1 4668  -4.420   0.385   3.520 -0.1153 -0.0015  0.1474
   51FTM     C2 4669  -4.455   0.484   3.607 -0.2531  0.1115 -0.0351
   51FTM     C3 4670  -4.383   0.488   3.731 -0.2346  0.4621 -0.0551
   51FTM     C4 4671  -4.289   0.389   3.739 -0.0777  0.6227  0.1177
   51FTM     F1 4672  -4.555   0.577   3.580 -0.4039 -0.0957 -0.1948
   51FTM     C5 4673  -4.485   0.327   3.405  0.3573 -0.0379  1.1756
   51FTM     C6 4674  -4.618   0.248   3.417 -0.3474 -0.0296  0.0951
   51FTM     C7 4675  -4.748   0.324   3.431  0.0268  0.3526  0.0122
   51FTM     C8 4676  -4.775   0.436   3.328 -0.6290 -0.3537 -0.2183
   51FTM     C9 4677  -4.908   0.510   3.354  0.4140  0.1980 -0.1096
   51FTM    C10 4678  -4.905   0.642   3.290 -0.0733  0.0872  0.4265
   51FTM    C11 4679  -4.617   0.119   3.500 -0.4350 -0.8003  0.0755
   51FTM    C12 4680  -4.511   0.009   3.474  0.2389  0.1092  0.3305
   52TPM     C1 4681  -4.259  -0.125   3.931 -0.0634  0.4011 -0.0901
   52TPM     C2 4682  -4.221  -0.239   3.995 -0.4671  0.5727  0.4631
   52TPM     C3 4683  -4.260  -0.360   3.927 -0.6995  0.3769  0.9345
   52TPM     C4 4684  -4.327  -0.338   3.811 -0.4733  0.0564  0.7409
   52TPM     S1 4685  -4.347  -0.162   3.778  0.0551 -0.0241 -0.0583
   53BDD     C1 4686  -4.346  -0.675   3.603 -0.0752  0.0129 -0.4773
   53BDD     C2 4687  -4.458  -0.605   3.569 -0.0919  0.0260 -0.3937
   53BDD     C3 4688  -4.465  -0.474   3.632 -0.2146 -0.1249 -0.0899
   53BDD     C4 4689  -4.358  -0.447   3.713 -0.2898 -0.2511  0.0535
   53BDD     S1 4690  -4.241  -0.583   3.715 -0.2121 -0.1898 -0.1816
   53BDD     C5 4691  -4.563  -0.655   3.478  0.0043  0.1781 -0.5900
   53BDD     C6 4692  -4.577  -0.381   3.610 -0.2528 -0.1383  0.0468
   53BDD     O1 4693  -4.583  -0.268   3.664 -0.3587 -0.2682  0.3086
   53BDD     O2 4694  -4.557  -0.767   3.424  0.1101  0.3083 -0.8519
   53BDD     C7 4695  -4.682  -0.431   3.519 -0.1566  0.0136 -0.1494
   53BDD     C8 4696  -4.675  -0.561   3.456 -0.0339  0.1643 -0.4532
   53BDD     C9 4697  -4.782  -0.589   3.375  0.0412  0.2909 -0.5967
   53BDD     S2 4698  -4.899  -0.453   3.373 -0.0364  0.2295 -0.3616
   53BDD    C10 4699  -4.795  -0.360   3.486 -0.1732  0.0272 -0.0658
   53BDD    C11 4700  -4.844  -0.217   3.516 -0.4047 -0.8963 -0.4625
   53BDD    C12 4701  -4.963  -0.186   3.600 -0.6595 -0.2796  0.1453
   53BDD    C13 4702  -4.999  -0.039   3.628  0.0250 -0.1998  0.2819
   53BDD    C14 4703  -5.019   0.068   3.518  0.2431  0.1913  0.0916
   53BDD    C15 4704  -5.141   0.049   3.431  0.6472  0.2802  0.2965
   53BDD    C16 4705  -5.166   0.160   3.326  1.3828  0.5924 -0.6743
   53BDD    C17 4706  -4.990  -0.267   3.725  0.3614  0.5310  0.1401
   53BDD    C18 4707  -4.877  -0.282   3.832  0.0469 -0.7016 -0.0321
   53BDD    C19 4708  -4.818  -0.703   3.282  0.0260  0.0485  0.1252
   53BDD    C20 4709  -4.925  -0.803   3.316  0.7396  0.6238  0.5886
   53BDD    C21 4710  -4.919  -0.862   3.454  0.0518  0.6323  0.3652
   53BDD    C22 4711  -5.034  -0.941   3.507 -0.2988  0.0021 -0.4509
   53BDD    C23 4712  -5.002  -0.956   3.658  0.1046 -0.2311 -0.6520
   53BDD    C24 4713  -5.110  -1.020   3.741  0.2010 -0.2348  0.2351
   53BDD    C25 4714  -4.939  -0.907   3.194  0.0239 -0.7378  0.1581
   53BDD    C26 4715  -4.979  -0.852   3.056  0.0716 -0.2882 -0.7162
   54TPM     C1 4716  -4.294  -0.809   3.578  0.2062 -0.0471 -0.5527
   54TPM     C2 4717  -4.313  -0.885   3.467  0.5888  0.1655 -0.7676
   54TPM     C3 4718  -4.243  -1.011   3.470  0.5411  0.1397 -0.7506
   54TPM     C4 4719  -4.172  -1.031   3.585  0.1224 -0.0926 -0.5227
   54TPM     S1 4720  -4.186  -0.891   3.697 -0.2474 -0.2986 -0.3102
   55BDTP    C1 4721  -3.738  -1.453   3.754 -0.0559 -0.0854 -0.3223
   55BDTP    C2 4722  -3.745  -1.470   3.613 -0.0865 -0.1094 -0.3179
   55BDTP    C3 4723  -3.833  -1.397   3.533 -0.1057 -0.1254 -0.3113
   55BDTP    C4 4724  -3.917  -1.303   3.595 -0.0941 -0.1161 -0.3089
   55BDTP    C5 4725  -3.909  -1.287   3.737 -0.0634 -0.0918 -0.3132
   55BDTP    C6 4726  -3.822  -1.359   3.816 -0.0443 -0.0765 -0.3200
   55BDTP    C7 4727  -4.015  -1.217   3.534 -0.1094 -0.1290 -0.3022
   55BDTP    C8 4728  -4.081  -1.137   3.621 -0.0923 -0.1156 -0.3015
   55BDTP    S1 4729  -4.028  -1.160   3.793 -0.0538 -0.0849 -0.3091
   55BDTP    C9 4730  -3.640  -1.540   3.816 -0.0404 -0.0727 -0.3290
   55BDTP   C10 4731  -3.574  -1.620   3.728 -0.0577 -0.0861 -0.3298
   55BDTP    S2 4732  -3.627  -1.597   3.556 -0.0963 -0.1167 -0.3221
   56FTM     S1 4733  -3.859  -1.308   3.253  0.4029 -0.1580 -0.3241
   56FTM     C1 4734  -3.853  -1.437   3.128  0.1164 -0.2945 -0.1963
   56FTM     C2 4735  -3.841  -1.559   3.188 -0.0838 -0.2582 -0.0793
   56FTM     C3 4736  -3.835  -1.558   3.331 -0.0281 -0.1259 -0.0818
   56FTM     C4 4737  -3.843  -1.432   3.383  0.2230 -0.0580 -0.2048
   56FTM     F1 4738  -3.834  -1.678   3.117 -0.3296 -0.3430  0.0372
   56FTM     C5 4739  -3.878  -1.410   2.977  0.0792 -0.4431  0.3918
   56FTM     C6 4740  -3.746  -1.382   2.892  0.6226 -0.4823 -0.1354
   56FTM     C7 4741  -3.693  -1.239   2.912 -0.1910 -0.8468  0.1426
   56FTM     C8 4742  -3.794  -1.125   2.882 -0.2210  0.3027  0.8772
   56FTM     C9 4743  -3.739  -0.998   2.938 -0.7885 -0.4190 -0.1487
   56FTM    C10 4744  -3.847  -0.891   2.944 -0.6411 -0.1398  0.2335
   56FTM    C11 4745  -3.637  -1.480   2.890 -0.4049 -0.1103 -0.1786
   56FTM    C12 4746  -3.691  -1.620   2.852  0.1405  0.7552 -0.0213
   57FTM     S1 4747  -3.674  -1.288   4.054 -0.1491  0.1726 -0.1470
   57FTM     C1 4748  -3.769  -1.242   4.201 -0.0439  0.0792 -0.0497
   57FTM     C2 4749  -3.901  -1.261   4.179 -0.0790  0.3080 -0.0478
   57FTM     C3 4750  -3.937  -1.312   4.049 -0.1873  0.5636 -0.1203
   57FTM     C4 4751  -3.828  -1.332   3.970 -0.2366  0.5292 -0.1795
   57FTM     F1 4752  -3.999  -1.234   4.274 -0.0155  0.3002  0.0197
   57FTM     C5 4753  -3.704  -1.214   4.329 -0.5745 -0.2094 -0.2146
   57FTM     C6 4754  -3.678  -1.068   4.374 -0.2664 -0.2412  0.3988
   57FTM     C7 4755  -3.550  -1.016   4.295  0.2570  0.6030 -0.3334
   57FTM     C8 4756  -3.415  -1.087   4.323  0.3067 -0.3620  0.6231
   57FTM     C9 4757  -3.302  -1.062   4.216 -0.1994 -0.0263  0.0174
   57FTM    C10 4758  -3.337  -1.079   4.064  0.5131  0.5654 -0.5742
   57FTM    C11 4759  -3.792  -0.973   4.384 -0.7622 -0.3602 -0.2757
   57FTM    C12 4760  -3.910  -1.005   4.467  0.0233 -0.6238 -0.2069
   58TPM     C1 4761  -3.476  -1.723   3.750  0.7791  0.5602  0.8315
   58TPM     C2 4762  -3.463  -1.813   3.852  1.2234  0.6737  0.8789
   58TPM     C3 4763  -3.352  -1.903   3.836  0.9431  0.4208  0.3112
   58TPM     C4 4764  -3.280  -1.883   3.722  0.2849  0.1144 -0.1693
   58TPM     S1 4765  -3.348  -1.746   3.625 -0.0341  0.1216  0.0599
   59BDD     C1 4766  -2.949  -2.080   3.683 -0.1354 -0.1371  0.0057
   59BDD     C2 4767  -3.020  -2.101   3.568 -0.0542 -0.1147 -0.0481
   59BDD     C3 4768  -3.151  -2.039   3.568 -0.0538 -0.1130 -0.1295
   59BDD     C4 4769  -3.179  -1.972   3.683 -0.1345 -0.1341 -0.1364
   59BDD     S1 4770  -3.043  -1.981   3.800 -0.2168 -0.1578 -0.0416
   59BDD     C5 4771  -2.969  -2.179   3.453  0.0257 -0.0939 -0.0268
   59BDD     C6 4772  -3.244  -2.050   3.454  0.0268 -0.0904 -0.1973
   59BDD     O1 4773  -3.357  -1.997   3.454  0.0271 -0.0888 -0.2673
   59BDD     O2 4774  -2.855  -2.232   3.453  0.0254 -0.0954  0.0433
   59BDD     C7 4775  -3.193  -2.128   3.339  0.1067 -0.0695 -0.1760
   59BDD     C8 4776  -3.062  -2.190   3.339  0.1063 -0.0712 -0.0947
   59BDD     C9 4777  -3.034  -2.257   3.223  0.1869 -0.0499 -0.0876
   59BDD     S2 4778  -3.170  -2.248   3.107  0.2691 -0.0263 -0.1824
   59BDD    C10 4779  -3.263  -2.149   3.224  0.1878 -0.0470 -0.2297
   59BDD    C11 4780  -3.399  -2.110   3.171 -0.0498  1.0904  0.1477
   59BDD    C12 4781  -3.430  -1.972   3.129 -0.4122 -0.7015 -0.3500
   59BDD    C13 4782  -3.580  -1.935   3.102 -0.2802  0.4885  0.7127
   59BDD    C14 4783  -3.686  -1.969   3.207  0.3681 -0.7304 -0.1197
   59BDD    C15 4784  -3.665  -1.882   3.333  0.0988  0.1946 -0.1571
   59BDD    C16 4785  -3.773  -1.925   3.432 -0.2761 -0.2938 -0.1840
   59BDD    C17 4786  -3.326  -1.926   3.029  0.3334  0.0282  0.9469
   59BDD    C18 4787  -3.334  -1.782   2.983  0.1711 -0.0830 -0.1171
   59BDD    C19 4788  -2.918  -2.329   3.173  0.3095  0.7042 -0.3161
   59BDD    C20 4789  -2.932  -2.486   3.156  0.3559  0.5341  0.2969
   59BDD    C21 4790  -3.026  -2.543   3.045  0.1571  0.1793 -0.2608
   59BDD    C22 4791  -3.022  -2.506   2.900 -0.0608  0.2584  0.6430
   59BDD    C23 4792  -2.897  -2.562   2.832 -0.6025 -0.6977  0.2748
   59BDD    C24 4793  -2.900  -2.545   2.675 -0.2545 -0.0290 -0.3208
   59BDD    C25 4794  -2.942  -2.576   3.284  0.0766  0.5049  0.2780
   59BDD    C26 4795  -2.818  -2.554   3.368 -0.2327  0.0415  0.8897
   60TPM     C1 4796  -2.821  -2.116   3.734 -0.2244 -0.7389 -0.1192
   60TPM     C2 4797  -2.803  -2.152   3.864 -0.3006 -1.2457 -0.2477
   60TPM     C3 4798  -2.668  -2.191   3.895 -0.1922 -0.8347 -0.1950
   60TPM     C4 4799  -2.583  -2.184   3.789 -0.0330 -0.0147 -0.0267
   60TPM     S1 4800  -2.668  -2.127   3.640 -0.0079  0.3046  0.0795
    1BDTP    C1 4801   0.005   2.989   7.305 -0.1117 -0.2636  0.3011
    1BDTP    C2 4802  -0.126   2.982   7.359 -0.1898 -0.1770  0.1227
    1BDTP    C3 4803  -0.205   3.094   7.380 -0.1490 -0.1264  0.0058
    1BDTP    C4 4804  -0.151   3.220   7.347 -0.0253 -0.1627  0.0678
    1BDTP    C5 4805  -0.019   3.227   7.293  0.0525 -0.2493  0.2463
    1BDTP    C6 4806   0.059   3.114   7.272  0.0118 -0.3000  0.3631
    1BDTP    C7 4807  -0.213   3.350   7.360  0.0375 -0.1228 -0.0286
    1BDTP    C8 4808  -0.135   3.453   7.319  0.1576 -0.1747  0.0677
    1BDTP    S1 4809   0.028   3.400   7.258  0.2077 -0.2813  0.2941
    1BDTP    C9 4810   0.068   2.859   7.292 -0.1747 -0.3034  0.3976
    1BDTP   C10 4811  -0.010   2.755   7.333 -0.2947 -0.2516  0.3012
    1BDTP    S2 4812  -0.173   2.809   7.394 -0.3450 -0.1450  0.0748
    2FTM     S1 4813  -0.443   3.204   7.513  0.2322 -0.3881  0.3015
    2FTM     C1 4814  -0.595   3.119   7.468  0.3258 -0.2967 -0.2086
    2FTM     C2 4815  -0.567   3.012   7.389  0.4649  0.0700 -0.6604
    2FTM     C3 4816  -0.429   2.990   7.358  0.5064  0.2967 -0.6384
    2FTM     C4 4817  -0.349   3.084   7.416  0.3951  0.0971 -0.1534
    2FTM     F1 4818  -0.666   2.928   7.339  0.5636  0.2221 -1.1213
    2FTM     C5 4819  -0.730   3.154   7.519  0.0520 -0.4143 -0.1254
    2FTM     C6 4820  -0.816   3.070   7.609 -0.1157  0.1276 -0.4623
    2FTM     C7 4821  -0.965   3.112   7.605 -0.1693  0.1191  0.3341
    2FTM     C8 4822  -1.035   3.134   7.467  0.2059 -0.0146  1.2618
    2FTM     C9 4823  -1.186   3.163   7.467  0.0877 -0.3313 -0.5463
    2FTM    C10 4824  -1.274   3.052   7.520 -0.3586 -0.2712 -0.0975
    2FTM    C11 4825  -0.763   3.050   7.748 -0.7603  0.1413  0.5169
    2FTM    C12 4826  -0.739   3.175   7.842  0.7403  0.7205 -0.1172
    3FTM     S1 4827   0.281   3.038   7.096 -0.2669 -0.0015 -0.0089
    3FTM     C1 4828   0.435   3.127   7.123 -0.1565 -0.2072  0.0375
    3FTM     C2 4829   0.421   3.215   7.225  0.0012 -0.3566  0.1898
    3FTM     C3 4830   0.292   3.219   7.288  0.0448 -0.3213  0.2775
    3FTM     C4 4831   0.205   3.131   7.231 -0.0837 -0.1387  0.1898
    3FTM     F1 4832   0.524   3.298   7.268  0.1155 -0.5343  0.2588
    3FTM     C5 4833   0.550   3.112   7.024  0.2658 -0.0771 -0.1973
    3FTM     C6 4834   0.538   3.188   6.888 -0.2034  0.7556  0.4324
    3FTM     C7 4835   0.541   3.340   6.885 -0.3564  0.3465 -0.0670
    3FTM     C8 4836   0.670   3.421   6.907  0.3144 -0.2165 -0.8717
    3FTM     C9 4837   0.770   3.431   6.792  0.0748  0.0912 -0.2780
    3FTM    C10 4838   0.862   3.312   6.770 -0.0927  0.7266 -0.9757
    3FTM    C11 4839   0.435   3.131   6.797  0.2319 -0.2272 -0.1728
    3FTM    C12 4840   0.449   2.986   6.757  0.0960  0.3879 -0.3065
    4TPM     C1 4841   0.027   2.615   7.340  0.2425  0.3959  0.1420
    4TPM     C2 4842  -0.042   2.521   7.410  0.0336  0.5495  0.1477
    4TPM     C3 4843   0.018   2.390   7.404 -0.2248  0.4289  0.1992
    4TPM     C4 4844   0.131   2.384   7.328 -0.2130  0.1833  0.2326
    4TPM     S1 4845   0.172   2.546   7.259  0.1282  0.0846  0.2015
    5BDD     C1 4846   0.439   2.157   7.417  0.2762 -0.0122 -0.2338
    5BDD     C2 4847   0.333   2.072   7.407  0.2533  0.0116 -0.1929
    5BDD     C3 4848   0.209   2.139   7.370  0.2222  0.0617  0.0007
    5BDD     C4 4849   0.223   2.274   7.353  0.2219  0.0753  0.1048
    5BDD     S1 4850   0.392   2.327   7.381  0.2605  0.0263 -0.0325
    5BDD     C5 4851   0.341   1.926   7.430  0.2591 -0.0108 -0.3302
    5BDD     C6 4852   0.081   2.066   7.354  0.1939  0.0942  0.0753
    5BDD     O1 4853  -0.026   2.123   7.322  0.1671  0.1374  0.2424
    5BDD     O2 4854   0.447   1.869   7.462  0.2859 -0.0540 -0.4972
    5BDD     C7 4855   0.089   1.920   7.377  0.1997  0.0718 -0.0620
    5BDD     C8 4856   0.213   1.854   7.414  0.2308  0.0218 -0.2556
    5BDD     C9 4857   0.199   1.719   7.431  0.2311  0.0081 -0.3594
    5BDD     S2 4858   0.030   1.666   7.403  0.1925  0.0571 -0.2221
    5BDD    C10 4859  -0.017   1.835   7.367  0.1769  0.0957 -0.0211
    5BDD    C11 4860  -0.159   1.863   7.321 -0.2062 -0.1938  0.5093
    5BDD    C12 4861  -0.251   1.916   7.436  0.3353 -0.5096  0.3928
    5BDD    C13 4862  -0.262   1.832   7.559  0.3992 -0.6213 -0.3454
    5BDD    C14 4863  -0.344   1.700   7.542 -0.2157  0.2934 -0.3617
    5BDD    C15 4864  -0.332   1.601   7.655  0.4785 -0.2815  0.0235
    5BDD    C16 4865  -0.189   1.560   7.686 -0.3149 -0.2239 -0.3335
    5BDD    C17 4866  -0.383   2.001   7.407  0.2608  0.2944 -0.4270
    5BDD    C18 4867  -0.371   2.122   7.309  0.1979  0.5859  0.2044
    5BDD    C19 4868   0.284   1.606   7.486  0.5905  0.9353  0.6971
    5BDD    C20 4869   0.303   1.597   7.640  0.0551 -0.2406 -0.1766
    5BDD    C21 4870   0.406   1.503   7.704 -0.1992 -0.3045 -0.0659
    5BDD    C22 4871   0.557   1.535   7.682  0.8090 -0.4069  0.1220
    5BDD    C23 4872   0.602   1.677   7.725  0.3899 -0.0303  0.1429
    5BDD    C24 4873   0.583   1.717   7.869 -0.6325  0.1217 -0.0616
    5BDD    C25 4874   0.170   1.591   7.717  0.4382  0.1931 -0.5639
    5BDD    C26 4875   0.172   1.617   7.871  0.0591  0.5068  0.7777
    6TPM     C1 4876   0.575   2.141   7.452  0.0829  0.0874 -0.3284
    6TPM     C2 4877   0.676   2.205   7.386  0.2059  0.1117 -0.1185
    6TPM     C3 4878   0.806   2.183   7.444  0.1477 -0.2154 -0.1048
    6TPM     C4 4879   0.804   2.103   7.554 -0.0197 -0.4891 -0.3042
    6TPM     S1 4880   0.637   2.048   7.593 -0.1175 -0.3540 -0.5264
    7BDTP    C1 4881   1.295   1.989   7.926  0.1421  0.2405 -0.1751
    7BDTP    C2 4882   1.215   1.872   7.943  0.1386  0.2511 -0.1189
    7BDTP    C3 4883   1.092   1.856   7.881  0.0966  0.2635 -0.0399
    7BDTP    C4 4884   1.046   1.960   7.798  0.0563  0.2656 -0.0149
    7BDTP    C5 4885   1.126   2.076   7.781  0.0598  0.2549 -0.0713
    7BDTP    C6 4886   1.249   2.092   7.843  0.1017  0.2426 -0.1503
    7BDTP    C7 4887   0.922   1.966   7.723  0.0091  0.2774  0.0637
    7BDTP    C8 4888   0.906   2.080   7.651 -0.0226  0.2764  0.0691
    7BDTP    S1 4889   1.045   2.195   7.668  0.0029  0.2601 -0.0247
    7BDTP    C9 4890   1.419   1.983   8.001  0.1892  0.2286 -0.2539
    7BDTP   C10 4891   1.435   1.869   8.073  0.2210  0.2297 -0.2592
    7BDTP    S2 4892   1.296   1.753   8.055  0.1954  0.2460 -0.1653
    8FTM     S1 4893   0.991   1.639   8.051  0.1654 -0.0442 -0.1508
    8FTM     C1 4894   0.915   1.502   7.962 -0.0869 -0.0895  0.1330
    8FTM     C2 4895   0.905   1.533   7.830 -0.1238 -0.3041  0.0852
    8FTM     C3 4896   0.955   1.661   7.791  0.0379 -0.4429 -0.1683
    8FTM     C4 4897   1.005   1.731   7.896  0.2041 -0.3311 -0.3199
    8FTM     F1 4898   0.850   1.446   7.736 -0.3063 -0.3874  0.2685
    8FTM     C5 4899   0.881   1.370   8.026  0.0940 -0.1412  0.2059
    8FTM     C6 4900   0.779   1.381   8.137 -0.0941  0.3618 -0.6215
    8FTM     C7 4901   0.626   1.371   8.111  0.5040  0.2661  0.2022
    8FTM     C8 4902   0.567   1.247   8.033 -0.1614  0.4456 -0.2743
    8FTM     C9 4903   0.420   1.239   8.032  0.1055  0.0879 -0.2694
    8FTM    C10 4904   0.358   1.131   7.948  0.1112 -0.1154  0.0962
    8FTM    C11 4905   0.837   1.280   8.240 -0.3030  0.3356  0.4368
    8FTM    C12 4906   0.780   1.292   8.379 -0.0784  0.2420  0.0607
    9FTM     S1 4907   1.249   2.376   7.843  0.0116 -0.2832 -0.1983
    9FTM     C1 4908   1.409   2.458   7.833 -0.1285  0.0203  0.0122
    9FTM     C2 4909   1.508   2.366   7.818  0.0717  0.2026  0.1938
    9FTM     C3 4910   1.466   2.229   7.814  0.3398  0.1195  0.1802
    9FTM     C4 4911   1.331   2.216   7.826  0.3450 -0.1348 -0.0179
    9FTM     F1 4912   1.642   2.399   7.808  0.0241  0.4556  0.3827
    9FTM     C5 4913   1.416   2.609   7.836  0.8173  0.7831  0.6612
    9FTM     C6 4914   1.454   2.688   7.961 -0.1286  0.2746 -0.3998
    9FTM     C7 4915   1.426   2.629   8.101 -0.0158 -0.4056  0.2379
    9FTM     C8 4916   1.513   2.519   8.157 -0.6254 -0.0066  0.1764
    9FTM     C9 4917   1.659   2.565   8.184  0.0972 -0.1282 -0.0512
    9FTM    C10 4918   1.741   2.474   8.267  0.1060 -0.3519 -0.3890
    9FTM    C11 4919   1.428   2.839   7.950  1.0247 -1.2420  0.0925
    9FTM    C12 4920   1.506   2.924   7.855  0.1058  0.5258 -0.2003
   10TPM     C1 4921   1.541   1.836   8.168 -0.1574 -0.2256 -0.0010
   10TPM     C2 4922   1.563   1.727   8.247 -0.1080 -0.2602 -0.0627
   10TPM     C3 4923   1.682   1.737   8.328  0.0061 -0.3453 -0.2174
   10TPM     C4 4924   1.750   1.854   8.311  0.0438 -0.3754 -0.2743
   10TPM     S1 4925   1.669   1.961   8.190 -0.0627 -0.2983 -0.1350
   11BDD     C1 4926   2.011   2.059   8.520  0.1408 -0.0611 -0.1681
   11BDD     C2 4927   2.043   1.928   8.543  0.1327 -0.0494 -0.0882
   11BDD     C3 4928   1.958   1.835   8.472  0.1056 -0.0884 -0.0050
   11BDD     C4 4929   1.862   1.896   8.396  0.0933 -0.1293 -0.0225
   11BDD     S1 4930   1.872   2.074   8.408  0.1149 -0.1218 -0.1445
   11BDD     C5 4931   2.153   1.884   8.631  0.1497 -0.0019 -0.0856
   11BDD     C6 4932   1.975   1.688   8.482  0.0928 -0.0836  0.0892
   11BDD     O1 4933   1.901   1.608   8.420  0.0694 -0.1172  0.1609
   11BDD     O2 4934   2.227   1.964   8.692  0.1732  0.0317 -0.1574
   11BDD     C7 4935   2.085   1.644   8.570  0.1098 -0.0361  0.0916
   11BDD     C8 4936   2.170   1.737   8.641  0.1370  0.0029  0.0083
   11BDD     C9 4937   2.266   1.676   8.717  0.1493  0.0437  0.0257
   11BDD     S2 4938   2.256   1.498   8.704  0.1278  0.0363  0.1477
   11BDD    C10 4939   2.117   1.513   8.592  0.1018 -0.0243  0.1714
   11BDD    C11 4940   2.071   1.382   8.541 -0.5831 -0.4821 -0.0617
   11BDD    C12 4941   1.953   1.310   8.611 -0.2408  0.4666  0.0391
   11BDD    C13 4942   1.939   1.302   8.764 -0.0206 -0.4279 -0.4814
   11BDD    C14 4943   1.811   1.260   8.831 -0.1129 -0.6894 -0.1496
   11BDD    C15 4944   1.852   1.257   8.981 -0.2745  0.3880  0.1274
   11BDD    C16 4945   1.737   1.244   9.080  0.3597 -0.1435 -0.2751
   11BDD    C17 4946   1.900   1.178   8.536 -0.7171 -0.4329  0.1416
   11BDD    C18 4947   1.889   1.190   8.384  0.4890  0.2612  0.2616
   11BDD    C19 4948   2.378   1.725   8.817  0.8653 -0.4856  0.5127
   11BDD    C20 4949   2.326   1.792   8.952 -0.0788  0.2600 -0.2534
   11BDD    C21 4950   2.425   1.873   9.032 -0.5541  0.2163 -0.1976
   11BDD    C22 4951   2.508   1.972   8.953  0.0721  0.2175 -0.0612
   11BDD    C23 4952   2.428   2.100   8.907 -0.6292 -0.1609  0.0525
   11BDD    C24 4953   2.402   2.216   9.007 -0.3816  0.1959  0.6830
   11BDD    C25 4954   2.251   1.684   9.038  0.1800 -0.1666  0.7104
   11BDD    C26 4955   2.328   1.562   9.097  0.1395 -0.4199  0.5429
   12TPM     C1 4956   2.063   2.186   8.559 -0.0275 -0.0790 -0.2566
   12TPM     C2 4957   2.102   2.215   8.686  0.2109 -0.2034 -0.3006
   12TPM     C3 4958   2.115   2.356   8.712  0.4224 -0.2339 -0.2339
   12TPM     C4 4959   2.085   2.435   8.604  0.3450 -0.1325 -0.1392
   12TPM     S1 4960   2.039   2.336   8.461 -0.0035  0.0101 -0.1266
   13BDTP    C1 4961   2.038   3.062   8.584 -0.0709 -0.0209 -0.2067
   13BDTP    C2 4962   2.089   3.038   8.715  0.0631  0.0491 -0.2449
   13BDTP    C3 4963   2.116   2.911   8.763  0.1670  0.0784 -0.2246
   13BDTP    C4 4964   2.091   2.802   8.678  0.1378  0.0367 -0.1633
   13BDTP    C5 4965   2.041   2.826   8.547  0.0038 -0.0333 -0.1247
   13BDTP    C6 4966   2.014   2.953   8.499 -0.1002 -0.0625 -0.1454
   13BDTP    C7 4967   2.111   2.661   8.705  0.2287  0.0556 -0.1315
   13BDTP    C8 4968   2.079   2.579   8.602  0.1704  0.0038 -0.0722
   13BDTP    S1 4969   2.018   2.669   8.456 -0.0081 -0.0762 -0.0479
   13BDTP    C9 4970   2.018   3.203   8.557 -0.1619 -0.0398 -0.2382
   13BDTP   C10 4971   2.051   3.285   8.660 -0.1035  0.0120 -0.2975
   13BDTP    S2 4972   2.112   3.195   8.806  0.0749  0.0920 -0.3218
   14FTM     S1 4973   2.069   2.780   9.019  0.0823 -0.1364 -0.1689
   14FTM     C1 4974   2.201   2.804   9.139 -0.0039  0.0182 -0.1050
   14FTM     C2 4975   2.292   2.893   9.091 -0.1011  0.1498 -0.0477
   14FTM     C3 4976   2.265   2.946   8.961 -0.1141  0.1387 -0.0496
   14FTM     C4 4977   2.150   2.897   8.907 -0.0239 -0.0062 -0.1109
   14FTM     F1 4978   2.405   2.931   9.162 -0.1842  0.2882  0.0105
   14FTM     C5 4979   2.196   2.711   9.261  0.7593 -0.2942  0.4212
   14FTM     C6 4980   2.301   2.701   9.375  0.0779  0.0587  0.6515
   14FTM     C7 4981   2.445   2.674   9.321  0.9690  0.3387  0.3074
   14FTM     C8 4982   2.483   2.531   9.287 -0.2509  0.2581 -0.1841
   14FTM     C9 4983   2.462   2.431   9.403 -0.5226  0.0557 -0.3697
   14FTM    C10 4984   2.566   2.443   9.519  0.1692 -0.2911  0.0081
   14FTM    C11 4985   2.299   2.806   9.485  0.0456 -0.5670 -0.1341
   14FTM    C12 4986   2.172   2.857   9.555 -0.3000 -0.8621  0.3584
   15FTM     S1 4987   1.981   3.108   8.256  0.0229  0.1771 -0.0798
   15FTM     C1 4988   1.853   3.052   8.142  0.1136 -0.1031 -0.0463
   15FTM     C2 4989   1.789   2.943   8.193  0.4227 -0.2967 -0.0689
   15FTM     C3 4990   1.835   2.898   8.321  0.6035 -0.2405 -0.1128
   15FTM     C4 4991   1.937   2.974   8.369  0.4271  0.0043 -0.1239
   15FTM     F1 4992   1.686   2.878   8.127  0.5602 -0.5365 -0.0513
   15FTM     C5 4993   1.800   3.122   8.017  0.7371 -0.3412 -0.6714
   15FTM     C6 4994   1.826   3.266   7.975  0.6573  0.2279  0.1793
   15FTM     C7 4995   1.811   3.297   7.819  0.0555  0.5441 -0.3810
   15FTM     C8 4996   1.692   3.243   7.745  0.5584  0.2463 -0.4674
   15FTM     C9 4997   1.661   3.319   7.619  0.1853  0.5117  0.0283
   15FTM    C10 4998   1.536   3.251   7.561  0.3372 -0.6664  0.0911
   15FTM    C11 4999   1.817   3.373   8.086 -0.1568  0.4635  0.3304
   15FTM    C12 5000   1.926   3.479   8.104 -0.5958  0.3465 -0.1599
   16TPM     C1 5001   2.047   3.431   8.666  0.1365  0.3201  0.2670
   16TPM     C2 5002   2.097   3.506   8.768  0.5482  0.6648 -0.1800
   16TPM     C3 5003   2.094   3.648   8.743  0.5202  0.5825 -0.6692
   16TPM     C4 5004   2.040   3.681   8.622  0.0871  0.1751 -0.5953
   16TPM     S1 5005   1.990   3.535   8.529 -0.3222 -0.1387  0.1034
   17BDD     C1 5006   2.054   4.076   8.610 -0.1742 -0.0786  0.0812
   17BDD     C2 5007   2.088   4.032   8.485 -0.1286 -0.0962  0.1001
   17BDD     C3 5008   2.080   3.888   8.471  0.0290 -0.1118  0.1640
   17BDD     C4 5009   2.040   3.824   8.585  0.1013 -0.1059  0.1934
   17BDD     S1 5010   2.009   3.940   8.718 -0.0230 -0.0805  0.1426
   17BDD     C5 5011   2.130   4.121   8.375 -0.2282 -0.0993  0.0598
   17BDD     C6 5012   2.113   3.819   8.344  0.1022 -0.1319  0.1943
   17BDD     O1 5013   2.106   3.694   8.332  0.2381 -0.1453  0.2496
   17BDD     O2 5014   2.137   4.246   8.387 -0.3640 -0.0858  0.0045
   17BDD     C7 5015   2.155   3.908   8.234  0.0026 -0.1351  0.1540
   17BDD     C8 5016   2.163   4.052   8.248 -0.1550 -0.1193  0.0899
   17BDD     C9 5017   2.203   4.116   8.135 -0.2273 -0.1253  0.0608
   17BDD     S2 5018   2.234   4.000   8.001 -0.1031 -0.1508  0.1116
   17BDD    C10 5019   2.189   3.864   8.109  0.0481 -0.1526  0.1729
   17BDD    C11 5020   2.202   3.737   8.041  0.3493 -0.0433  0.5168
   17BDD    C12 5021   2.338   3.699   7.988  0.4978  0.0905 -0.6982
   17BDD    C13 5022   2.320   3.588   7.885 -0.5694  0.7937  0.1868
   17BDD    C14 5023   2.439   3.559   7.784 -0.4052  0.5112 -0.1404
   17BDD    C15 5024   2.468   3.674   7.694  0.0868 -0.2099  0.2286
   17BDD    C16 5025   2.566   3.649   7.576  0.0022 -0.0956 -0.5942
   17BDD    C17 5026   2.457   3.699   8.089 -0.6465 -0.0855  0.4589
   17BDD    C18 5027   2.463   3.610   8.216  0.6045  0.2099  0.0986
   17BDD    C19 5028   2.207   4.260   8.087  0.1083  0.3906  0.3156
   17BDD    C20 5029   2.327   4.351   8.138  0.3560  0.4661 -0.2809
   17BDD    C21 5030   2.307   4.498   8.106 -0.0849  0.0533  0.7760
   17BDD    C22 5031   2.401   4.607   8.170  0.3752  0.5960  0.6158
   17BDD    C23 5032   2.389   4.748   8.126 -0.2698 -0.2597  0.5441
   17BDD    C24 5033   2.490   4.830   8.202  0.2430 -0.7471 -0.5514
   17BDD    C25 5034   2.475   4.303   8.121 -1.2724 -0.3547  0.1716
   17BDD    C26 5035   2.531   4.277   7.976  0.0582  0.1114 -0.3467
   18TPM     C1 5036   2.035   4.207   8.674 -0.0951 -0.2038 -0.0706
   18TPM     C2 5037   2.143   4.289   8.690 -0.1348 -0.1130 -0.2637
   18TPM     C3 5038   2.129   4.385   8.796 -0.0494 -0.0868 -0.2759
   18TPM     C4 5039   2.010   4.377   8.861  0.0555 -0.1575 -0.0919
   18TPM     S1 5040   1.905   4.246   8.793  0.0546 -0.2634  0.1124
   19BDTP    C1 5041   1.677   4.647   9.327 -0.0784  0.0222  0.2239
   19BDTP    C2 5042   1.750   4.758   9.277 -0.1334  0.0172  0.1326
   19BDTP    C3 5043   1.841   4.747   9.172 -0.1345 -0.0221  0.1361
   19BDTP    C4 5044   1.860   4.620   9.115 -0.0788 -0.0576  0.2337
   19BDTP    C5 5045   1.787   4.508   9.166 -0.0239 -0.0523  0.3247
   19BDTP    C6 5046   1.696   4.520   9.270 -0.0228 -0.0132  0.3219
   19BDTP    C7 5047   1.949   4.583   9.006 -0.0686 -0.1010  0.2564
   19BDTP    C8 5048   1.946   4.452   8.973 -0.0094 -0.1285  0.3593
   19BDTP    S1 5049   1.830   4.356   9.075  0.0417 -0.1030  0.4413
   19BDTP    C9 5050   1.588   4.683   9.436 -0.0887  0.0659  0.2012
   19BDTP   C10 5051   1.591   4.814   9.469 -0.1479  0.0933  0.0987
   19BDTP    S2 5052   1.707   4.911   9.367 -0.1991  0.0678  0.0162
   20FTM     S1 5053   1.933   4.915   8.958 -0.0229 -0.0708 -0.1310
   20FTM     C1 5054   2.057   5.037   9.003 -0.1596  0.0333 -0.0371
   20FTM     C2 5055   2.080   5.033   9.137 -0.1629 -0.0365 -0.0386
   20FTM     C3 5056   2.004   4.936   9.211 -0.0618 -0.1721 -0.1109
   20FTM     C4 5057   1.920   4.864   9.131  0.0217 -0.2070 -0.1670
   20FTM     F1 5058   2.170   5.116   9.201 -0.2577  0.0179  0.0260
   20FTM     C5 5059   2.123   5.129   8.900  0.3475  0.5796  1.0493
   20FTM     C6 5060   2.280   5.145   8.896  0.4067  0.1440 -0.4044
   20FTM     C7 5061   2.313   5.245   8.787  0.4246 -0.2045  0.1972
   20FTM     C8 5062   2.291   5.391   8.804  0.6503 -0.5737  0.1633
   20FTM     C9 5063   2.360   5.481   8.696 -0.1408  1.0175  0.3426
   20FTM    C10 5064   2.323   5.630   8.701 -0.2168  0.2111 -0.2562
   20FTM    C11 5065   2.365   5.015   8.883  0.2555  0.1402  0.2171
   20FTM    C12 5066   2.350   4.920   8.762 -0.2722 -0.9781  0.2484
   21FTM     S1 5067   1.537   4.305   9.181 -0.1225  0.1730  0.0864
   21FTM     C1 5068   1.485   4.179   9.299  0.0510  0.1271  0.1140
   21FTM     C2 5069   1.524   4.215   9.424  0.1794  0.1094  0.0799
   21FTM     C3 5070   1.595   4.339   9.436  0.1513  0.1299  0.0308
   21FTM     C4 5071   1.610   4.400   9.315 -0.0036  0.1645  0.0276
   21FTM     F1 5072   1.498   4.137   9.536  0.3299  0.0737  0.0906
   21FTM     C5 5073   1.428   4.049   9.257 -0.3759  0.2949  0.1656
   21FTM     C6 5074   1.283   4.046   9.212  0.7330 -0.6227 -0.0385
   21FTM     C7 5075   1.249   4.149   9.102  0.5906  0.2081  0.3257
   21FTM     C8 5076   1.107   4.211   9.092 -0.1236  0.1299  0.4424
   21FTM     C9 5077   1.090   4.316   8.992 -0.2149 -0.6238  0.4788
   21FTM    C10 5078   0.980   4.407   9.016  0.0126 -0.3305 -0.0312
   21FTM    C11 5079   1.235   3.908   9.169 -0.4408 -0.0219  0.5220
   21FTM    C12 5080   1.230   3.801   9.280 -0.4388  0.0191 -0.3994
   22TPM     C1 5081   1.514   4.878   9.577  0.0480 -0.1749  0.3621
   22TPM     C2 5082   1.437   4.816   9.672  0.3612 -0.3526  0.5026
   22TPM     C3 5083   1.377   4.907   9.766  0.1791 -0.4740  0.5050
   22TPM     C4 5084   1.408   5.038   9.743 -0.2729 -0.3889  0.3661
   22TPM     S1 5085   1.516   5.057   9.600 -0.5055 -0.1470  0.2203
   23BDD     C1 5086   1.499   5.324   9.992  0.0866 -0.0617 -0.0830
   23BDD     C2 5087   1.366   5.300  10.014  0.0826 -0.0474 -0.0916
   23BDD     C3 5088   1.313   5.191   9.934  0.1054 -0.1215 -0.0056
   23BDD     C4 5089   1.406   5.133   9.853  0.1264 -0.1910  0.0673
   23BDD     S1 5090   1.567   5.212   9.870  0.1191 -0.1687  0.0333
   23BDD     C5 5091   1.283   5.377  10.109  0.0578  0.0346 -0.1791
   23BDD     C6 5092   1.172   5.148   9.942  0.1054 -0.1204  0.0011
   23BDD     O1 5093   1.126   5.054   9.873  0.1251 -0.1842  0.0752
   23BDD     O2 5094   1.329   5.471  10.178  0.0381  0.0982 -0.2532
   23BDD     C7 5095   1.089   5.225  10.037  0.0806 -0.0385 -0.0864
   23BDD     C8 5096   1.142   5.334  10.117  0.0578  0.0354 -0.1724
   23BDD     C9 5097   1.049   5.392  10.199  0.0368  0.1049 -0.2452
   23BDD     S2 5098   0.888   5.314  10.182  0.0441  0.0825 -0.2112
   23BDD    C10 5099   0.956   5.201  10.059  0.0766 -0.0243 -0.0950
   23BDD    C11 5100   0.865   5.092  10.009 -0.0246 -0.3475 -0.0664
   23BDD    C12 5101   0.827   4.977  10.103 -0.2725  0.4219  0.0485
   23BDD    C13 5102   0.941   4.879  10.122 -0.4253 -0.1187  0.1090
   23BDD    C14 5103   0.923   4.734  10.172  0.0380 -0.8306 -0.6128
   23BDD    C15 5104   1.054   4.658  10.184  0.1801  0.6737  0.4119
   23BDD    C16 5105   1.119   4.681  10.321  0.4585 -0.6232  0.3243
   23BDD    C17 5106   0.734   5.010  10.219  0.1467 -0.3677 -0.6729
   23BDD    C18 5107   0.589   5.063  10.169  0.3490  0.1656 -0.5478
   23BDD    C19 5108   1.060   5.498  10.310 -0.7232 -0.8255 -0.3790
   23BDD    C20 5109   1.062   5.443  10.454  0.1875 -0.4014  0.1215
   23BDD    C21 5110   1.172   5.342  10.483 -0.2151 -0.4808 -0.2218
   23BDD    C22 5111   1.163   5.236  10.594  0.1006  0.2817  0.1179
   23BDD    C23 5112   1.040   5.148  10.599  0.5263 -0.4328 -0.1201
   23BDD    C24 5113   1.046   5.035  10.496  0.3349 -0.4463  0.0087
   23BDD    C25 5114   1.044   5.545  10.572  0.1024  0.1319 -0.2836
   23BDD    C26 5115   0.922   5.638  10.565 -0.3664  0.0584 -0.0522
   24TPM     C1 5116   1.597   5.409  10.051 -1.0344  0.2298  0.8001
   24TPM     C2 5117   1.658   5.370  10.167 -0.9874  0.3407  0.8123
   24TPM     C3 5118   1.730   5.477  10.233 -0.3544  0.2407  0.3076
   24TPM     C4 5119   1.723   5.596  10.168  0.0812  0.0533 -0.0894
   24TPM     S1 5120   1.625   5.583  10.016 -0.2770 -0.0117  0.1451
   25BDTP    C1 5121   2.012   6.144  10.302 -0.0777  0.0812  0.1261
   25BDTP    C2 5122   1.995   6.148  10.161  0.1100  0.0522  0.1025
   25BDTP    C3 5123   1.932   6.047  10.089  0.1683  0.0569  0.0448
   25BDTP    C4 5124   1.884   5.936  10.160  0.0353  0.0914  0.0086
   25BDTP    C5 5125   1.900   5.931  10.302 -0.1523  0.1204  0.0322
   25BDTP    C6 5126   1.963   6.033  10.373 -0.2106  0.1158  0.0899
   25BDTP    C7 5127   1.815   5.820  10.108  0.0628  0.1028 -0.0525
   25BDTP    C8 5128   1.780   5.729  10.202 -0.0932  0.1383 -0.0756
   25BDTP    S1 5129   1.829   5.778  10.370 -0.2968  0.1626 -0.0232
   25BDTP    C9 5130   2.080   6.260  10.355 -0.1051  0.0700  0.1872
   25BDTP   C10 5131   2.115   6.351  10.261  0.0508  0.0343  0.2102
   25BDTP    S2 5132   2.066   6.302  10.092  0.2545  0.0102  0.1579
   26FTM     S1 5133   1.879   6.221   9.860  0.0306  0.1394 -0.1070
   26FTM     C1 5134   1.871   6.139   9.700  0.0395  0.1008 -0.0877
   26FTM     C2 5135   1.887   6.005   9.716 -0.0521  0.0950 -0.0447
   26FTM     C3 5136   1.906   5.959   9.851 -0.1329  0.1194 -0.0247
   26FTM     C4 5137   1.905   6.061   9.941 -0.1021  0.1449 -0.0532
   26FTM     F1 5138   1.885   5.915   9.610 -0.0683  0.0670 -0.0210
   26FTM     C5 5139   1.848   6.230   9.580  0.3069  0.5764  0.1004
   26FTM     C6 5140   1.703   6.259   9.521  0.3904  0.5835 -0.1393
   26FTM     C7 5141   1.607   6.338   9.614 -0.3978 -0.5815  0.4333
   26FTM     C8 5142   1.659   6.476   9.660 -0.5602 -0.0559 -0.0783
   26FTM     C9 5143   1.719   6.566   9.554  0.3984  0.0855 -0.1616
   26FTM    C10 5144   1.771   6.695   9.623 -0.2055  0.4397  0.4259
   26FTM    C11 5145   1.628   6.144   9.463 -0.1133 -0.3472  0.2707
   26FTM    C12 5146   1.707   6.060   9.359 -0.0911 -0.0990 -0.3870
   27FTM     S1 5147   2.135   6.060  10.589  0.1330 -0.2323 -0.1359
   27FTM     C1 5148   2.067   6.056  10.756  0.2318  0.2659 -0.0790
   27FTM     C2 5149   1.934   6.032  10.751  0.1414  0.7203  0.0548
   27FTM     C3 5150   1.877   6.016  10.620 -0.0064  0.7086  0.1197
   27FTM     C4 5151   1.971   6.028  10.522 -0.0302  0.2301  0.0327
   27FTM     F1 5152   1.854   6.023  10.864  0.1874  1.1733  0.1265
   27FTM     C5 5153   2.144   6.073  10.883 -0.7884 -0.1185  0.1714
   27FTM     C6 5154   2.281   6.002  10.904 -0.2011  0.8418  0.2921
   27FTM     C7 5155   2.353   6.028  11.034 -0.4922 -0.0805 -0.1906
   27FTM     C8 5156   2.370   6.169  11.097 -0.0660 -0.4054  0.2414
   27FTM     C9 5157   2.424   6.283  11.009  0.1008  0.0165  0.4986
   27FTM    C10 5158   2.434   6.415  11.080 -0.4360  0.3749  0.0789
   27FTM    C11 5159   2.278   5.854  10.860 -0.6759 -0.3444  0.0790
   27FTM    C12 5160   2.420   5.787  10.833  0.7117 -0.0257 -0.3193
   28TPM     C1 5161   2.177   6.475  10.281 -0.0287 -0.0713 -0.1954
   28TPM     C2 5162   2.227   6.513  10.402  0.6816 -0.6429 -0.2977
   28TPM     C3 5163   2.290   6.642  10.400  0.9452 -0.7668 -0.1206
   28TPM     C4 5164   2.288   6.703  10.278  0.4358 -0.2894  0.1168
   28TPM     S1 5165   2.205   6.600  10.155 -0.4228  0.3584  0.1353
   29BDD     C1 5166   2.443   7.058  10.349 -0.1235  0.0829  0.1087
   29BDD     C2 5167   2.374   7.073  10.232 -0.1147  0.0952  0.1050
   29BDD     C3 5168   2.306   6.951  10.190 -0.1083  0.0986  0.0852
   29BDD     C4 5169   2.325   6.846  10.275 -0.1124  0.0889  0.0741
   29BDD     S1 5170   2.429   6.891  10.414 -0.1245  0.0747  0.0877
   29BDD     C5 5171   2.367   7.199  10.156 -0.1118  0.1042  0.1196
   29BDD     C6 5172   2.225   6.945  10.066 -0.0983  0.1113  0.0780
   29BDD     O1 5173   2.167   6.840  10.030 -0.0929  0.1143  0.0609
   29BDD     O2 5174   2.425   7.303  10.192 -0.1172  0.1012  0.1366
   29BDD     C7 5175   2.219   7.071   9.989 -0.0955  0.1204  0.0925
   29BDD     C8 5176   2.286   7.192  10.032 -0.1019  0.1171  0.1123
   29BDD     C9 5177   2.267   7.297   9.947 -0.0978  0.1266  0.1234
   29BDD     S2 5178   2.164   7.252   9.808 -0.0857  0.1408  0.1098
   29BDD    C10 5179   2.149   7.085   9.873 -0.0866  0.1326  0.0888
   29BDD    C11 5180   2.069   6.983   9.795 -0.0576  0.0900  0.0340
   29BDD    C12 5181   2.117   6.931   9.663  0.1299  0.1100  0.1844
   29BDD    C13 5182   2.137   7.043   9.555 -0.4257  0.2640 -0.3773
   29BDD    C14 5183   2.018   7.130   9.518 -0.3541  0.1215  0.1517
   29BDD    C15 5184   2.052   7.232   9.411  0.1418 -0.1679  0.1460
   29BDD    C16 5185   1.931   7.313   9.361 -0.4553  0.7056 -0.0973
   29BDD    C17 5186   2.241   6.830   9.670  1.1014 -0.0662  0.1956
   29BDD    C18 5187   2.236   6.701   9.752  0.2074  0.1660  0.0601
   29BDD    C19 5188   2.316   7.441   9.946  0.0850  0.6500  0.3913
   29BDD    C20 5189   2.244   7.555  10.024 -0.8443  0.4139  0.4317
   29BDD    C21 5190   2.310   7.685   9.984 -0.1141  0.4919 -0.1868
   29BDD    C22 5191   2.457   7.710  10.010  0.2176 -0.1289  0.2874
   29BDD    C23 5192   2.481   7.857   9.965 -0.4813 -0.0793 -0.5581
   29BDD    C24 5193   2.625   7.908   9.988 -0.2446 -0.0520  0.1139
   29BDD    C25 5194   2.092   7.577  10.012 -0.0132  0.3296 -0.0282
   29BDD    C26 5195   2.006   7.474  10.069 -0.1600  0.1545 -0.5866
   30TPM     C1 5196   2.526   7.140  10.438 -0.0708  0.0980  0.1224
   30TPM     C2 5197   2.517   7.275  10.453  0.1671  0.0774  0.4840
   30TPM     C3 5198   2.602   7.328  10.556  0.3138 -0.3390  0.5801
   30TPM     C4 5199   2.676   7.233  10.620  0.1877 -0.6360  0.2916
   30TPM     S1 5200   2.643   7.068  10.554 -0.1288 -0.4108 -0.1269
   31BDTP    C1 5201   3.038   7.235  11.135  0.2479  0.0939  0.0971
   31BDTP    C2 5202   3.058   7.367  11.084  0.2455  0.0435 -0.0343
   31BDTP    C3 5203   2.998   7.412  10.967  0.2211 -0.0646 -0.0634
   31BDTP    C4 5204   2.914   7.323  10.897  0.1980 -0.1260  0.0417
   31BDTP    C5 5205   2.894   7.191  10.948  0.2005 -0.0755  0.1731
   31BDTP    C6 5206   2.954   7.147  11.065  0.2248  0.0326  0.2023
   31BDTP    C7 5207   2.842   7.347  10.774  0.1706 -0.2389  0.0358
   31BDTP    C8 5208   2.769   7.241  10.731  0.1526 -0.2754  0.1548
   31BDTP    S1 5209   2.782   7.096  10.840  0.1678 -0.1715  0.2912
   31BDTP    C9 5210   3.110   7.211  11.258  0.2754  0.2072  0.1031
   31BDTP   C10 5211   3.183   7.317  11.301  0.2933  0.2435 -0.0159
   31BDTP    S2 5212   3.170   7.462  11.192  0.2783  0.1396 -0.1523
   32FTM     S1 5213   2.924   7.690  10.987  0.1258 -0.3489 -0.2484
   32FTM     C1 5214   3.022   7.803  10.888  0.0935 -0.2351 -0.1518
   32FTM     C2 5215   3.116   7.733  10.817  0.2896 -0.1199 -0.0058
   32FTM     C3 5216   3.117   7.591  10.837  0.4725 -0.1132  0.0386
   32FTM     C4 5217   3.021   7.551  10.924  0.4146 -0.2269 -0.0770
   32FTM     F1 5218   3.206   7.794  10.732  0.3151 -0.0135  0.0961
   32FTM     C5 5219   3.006   7.946  10.907 -0.2347  0.0423  0.4839
   32FTM     C6 5220   3.098   8.025  11.002  0.6452  1.0024 -0.3717
   32FTM     C7 5221   3.094   7.980  11.150 -0.1885  0.8631 -0.0012
   32FTM     C8 5222   3.229   7.973  11.226  0.3818  0.1107  0.6909
   32FTM     C9 5223   3.215   7.933  11.376  0.3409 -0.0190 -0.4932
   32FTM    C10 5224   3.353   7.930  11.444 -0.1755  0.6496  0.2250
   32FTM    C11 5225   3.086   8.175  10.995  0.1826  0.4900 -0.3636
   32FTM    C12 5226   3.077   8.254  10.869  0.0052 -0.0582  0.1503
   33FTM     S1 5227   3.071   6.897  11.161 -0.1085 -0.0158 -0.2408
   33FTM     C1 5228   2.954   6.763  11.189 -0.3101  0.3442  0.7436
   33FTM     C2 5229   2.828   6.805  11.157 -0.3896  0.5788  1.3337
   33FTM     C3 5230   2.816   6.940  11.110 -0.3006  0.4947  1.0629
   33FTM     C4 5231   2.936   7.004  11.106 -0.1480  0.1859  0.2385
   33FTM     F1 5232   2.717   6.723  11.167 -0.5476  0.8831  2.1543
   33FTM     C5 5233   3.003   6.629  11.219 -0.2962 -0.5099 -0.0155
   33FTM     C6 5234   2.992   6.577  11.358  0.5116  0.1814 -0.2001
   33FTM     C7 5235   3.055   6.437  11.365  0.2570 -0.5965 -0.2448
   33FTM     C8 5236   3.209   6.427  11.354  0.5526  0.2248 -0.4302
   33FTM     C9 5237   3.270   6.291  11.381  0.2566 -0.1376  0.0019
   33FTM    C10 5238   3.420   6.290  11.372 -0.2901  0.2256 -0.0668
   33FTM    C11 5239   2.866   6.593  11.451 -0.1321  0.7473  0.0968
   33FTM    C12 5240   2.885   6.570  11.605 -0.2575  0.1306  0.3180
   34TPM     C1 5241   3.262   7.332  11.420 -0.3820  0.2357  0.1649
   34TPM     C2 5242   3.265   7.244  11.524 -0.4901  0.3953  0.3044
   34TPM     C3 5243   3.360   7.279  11.626 -0.1015  0.1903  0.0213
   34TPM     C4 5244   3.429   7.393  11.601  0.3027 -0.1259 -0.3340
   34TPM     S1 5245   3.380   7.467  11.443  0.2235 -0.1894 -0.3388
   35BDD     C1 5246   3.616   7.672  11.804 -0.1721 -0.0334  0.0725
   35BDD     C2 5247   3.649   7.555  11.868 -0.1702 -0.0539  0.0342
   35BDD     C3 5248   3.586   7.438  11.810 -0.2337 -0.0262  0.0463
   35BDD     C4 5249   3.507   7.466  11.703 -0.2831  0.0151  0.0938
   35BDD     S1 5250   3.504   7.642  11.667 -0.2535  0.0222  0.1265
   35BDD     C5 5251   3.739   7.548  11.985 -0.1100 -0.0997 -0.0150
   35BDD     C6 5252   3.608   7.302  11.864 -0.2431 -0.0418  0.0105
   35BDD     O1 5253   3.554   7.200  11.814 -0.2979 -0.0179  0.0210
   35BDD     O2 5254   3.793   7.650  12.035 -0.0551 -0.1235 -0.0255
   35BDD     C7 5255   3.698   7.295  11.981 -0.1829 -0.0879 -0.0387
   35BDD     C8 5256   3.761   7.412  12.039 -0.1193 -0.1155 -0.0508
   35BDD     C9 5257   3.841   7.384  12.146 -0.0700 -0.1566 -0.0982
   35BDD     S2 5258   3.843   7.208  12.182 -0.0996 -0.1638 -0.1310
   35BDD    C10 5259   3.731   7.178  12.045 -0.1810 -0.1084 -0.0769
   35BDD    C11 5260   3.687   7.037  12.038  0.7520  0.4218  0.0344
   35BDD    C12 5261   3.774   6.941  11.968 -0.5806 -0.1510  0.2468
   35BDD    C13 5262   3.763   6.952  11.816  0.0982  0.1345  0.9491
   35BDD    C14 5263   3.870   6.877  11.733  0.4169 -0.9167  0.8246
   35BDD    C15 5264   3.863   6.892  11.587 -0.0891 -0.2278  0.5004
   35BDD    C16 5265   3.918   7.028  11.539 -0.4885 -0.9639  0.3713
   35BDD    C17 5266   3.769   6.800  12.026  0.0987  0.1141  0.8515
   35BDD    C18 5267   3.801   6.778  12.179  0.6473  0.2013  0.9433
   35BDD    C19 5268   3.932   7.464  12.248 -0.4527  0.6600  0.1451
   35BDD    C20 5269   3.879   7.594  12.300  0.0417 -0.7972  0.5116
   35BDD    C21 5270   3.741   7.586  12.369  0.7203  0.3288  0.0104
   35BDD    C22 5271   3.668   7.712  12.419 -0.2925  0.1318  0.3325
   35BDD    C23 5272   3.635   7.811  12.313  0.3556 -0.3128  0.2193
   35BDD    C24 5273   3.608   7.943  12.382  0.0231 -0.2444  0.1252
   35BDD    C25 5274   3.992   7.671  12.372  0.0602 -0.4708  0.3092
   35BDD    C26 5275   4.025   7.632  12.515  0.1944 -0.7680 -0.6433
   36TPM     C1 5276   3.655   7.817  11.810 -0.3650  0.1062 -0.4215
   36TPM     C2 5277   3.636   7.886  11.926 -0.0896 -0.0892 -0.2575
   36TPM     C3 5278   3.630   8.029  11.909  0.0123 -0.0522  0.0163
   36TPM     C4 5279   3.646   8.069  11.780 -0.1853  0.1721  0.0610
   36TPM     S1 5280   3.669   7.929  11.669 -0.5181  0.3543 -0.2415
   37BDTP    C1 5281   3.547   8.615  11.485  0.2803  0.1993 -0.1458
   37BDTP    C2 5282   3.475   8.632  11.607  0.0757  0.1755 -0.2623
   37BDTP    C3 5283   3.473   8.536  11.707 -0.2061  0.0958 -0.3417
   37BDTP    C4 5284   3.546   8.417  11.686 -0.2905  0.0377 -0.3045
   37BDTP    C5 5285   3.617   8.400  11.564 -0.0858  0.0622 -0.1880
   37BDTP    C6 5286   3.619   8.496  11.464  0.1960  0.1411 -0.1086
   37BDTP    C7 5287   3.558   8.304  11.775 -0.5701 -0.0473 -0.3709
   37BDTP    C8 5288   3.635   8.203  11.727 -0.5850 -0.0877 -0.3105
   37BDTP    S1 5289   3.703   8.239  11.562 -0.2471 -0.0241 -0.1612
   37BDTP    C9 5290   3.534   8.728  11.396  0.5600  0.2842 -0.0794
   37BDTP   C10 5291   3.457   8.829  11.444  0.5749  0.3252 -0.1397
   37BDTP    S2 5292   3.390   8.794  11.609  0.2369  0.2610 -0.2890
   38FTM     S1 5293   3.510   8.596  11.983  0.3125 -0.1181 -0.0641
   38FTM     C1 5294   3.363   8.616  12.085  0.2618 -0.0647 -0.1471
   38FTM     C2 5295   3.252   8.598  12.010  0.2959  0.0682 -0.2307
   38FTM     C3 5296   3.273   8.568  11.871  0.3619  0.1349 -0.2352
   38FTM     C4 5297   3.405   8.563  11.840  0.3790  0.0501 -0.1523
   38FTM     F1 5298   3.123   8.607  12.062  0.2693  0.1373 -0.3082
   38FTM     C5 5299   3.374   8.639  12.232  0.0812  0.1028 -0.0405
   38FTM     C6 5300   3.467   8.541  12.305  0.3131  0.4105 -0.9411
   38FTM     C7 5301   3.621   8.562  12.290  0.2614  0.6713 -0.7799
   38FTM     C8 5302   3.652   8.700  12.352  0.0688 -0.0512  0.2241
   38FTM     C9 5303   3.800   8.738  12.375 -0.4561 -0.3139  1.1889
   38FTM    C10 5304   3.803   8.884  12.412  0.2141 -0.1795  0.5396
   38FTM    C11 5305   3.430   8.391  12.314  0.5704  0.2479 -0.3264
   38FTM    C12 5306   3.281   8.354  12.348 -0.9707 -0.3338  0.6963
   39FTM     S1 5307   3.877   8.403  11.357  0.0422  0.0532  0.2430
   39FTM     C1 5308   3.892   8.406  11.177  0.4862  0.3280  0.2818
   39FTM     C2 5309   3.780   8.462  11.123  0.6500  0.4749  0.0932
   39FTM     C3 5310   3.679   8.504  11.215  0.4452  0.3843 -0.0885
   39FTM     C4 5311   3.714   8.480  11.344  0.1137  0.1612 -0.0373
   39FTM     F1 5312   3.763   8.478  10.986  0.9950  0.6998  0.0739
   39FTM     C5 5313   4.002   8.328  11.119 -0.5970  0.8710  0.2398
   39FTM     C6 5314   4.063   8.359  10.982 -0.8627 -0.0768  0.7492
   39FTM     C7 5315   3.993   8.307  10.855  0.0551 -0.5429  0.0909
   39FTM     C8 5316   3.937   8.171  10.846 -0.4702  0.3122 -0.1021
   39FTM     C9 5317   3.930   8.122  10.709 -0.2757 -0.3949 -0.3421
   39FTM    C10 5318   3.890   7.980  10.719  0.4331 -0.7202  0.3992
   39FTM    C11 5319   4.126   8.496  10.973  0.2003  0.2220 -0.0096
   39FTM    C12 5320   4.227   8.535  10.864  0.3906  0.0898  0.3142
   40TPM     C1 5321   3.409   8.930  11.358 -0.2716 -0.0532  0.3987
   40TPM     C2 5322   3.284   8.987  11.355 -0.3893 -0.3195  0.1011
   40TPM     C3 5323   3.267   9.086  11.252 -0.4953 -0.6645 -0.2178
   40TPM     C4 5324   3.379   9.105  11.176 -0.4583 -0.6615 -0.1635
   40TPM     S1 5325   3.515   8.999  11.229 -0.2857 -0.2191  0.2983
   41BDD     C1 5326   3.331   9.370  10.891 -0.0158  0.0725 -0.0516
   41BDD     C2 5327   3.446   9.408  10.956 -0.0063  0.0324 -0.0443
   41BDD     C3 5328   3.483   9.320  11.065  0.0194 -0.0458 -0.1164
   41BDD     C4 5329   3.396   9.215  11.082  0.0292 -0.0638 -0.1775
   41BDD     S1 5330   3.263   9.220  10.962  0.0068  0.0157 -0.1492
   41BDD     C5 5331   3.525   9.528  10.920 -0.0205  0.0639  0.0291
   41BDD     C6 5332   3.603   9.342  11.148  0.0334 -0.0997 -0.1219
   41BDD     O1 5333   3.635   9.266  11.242  0.0556 -0.1669 -0.1840
   41BDD     O2 5334   3.493   9.604  10.826 -0.0426  0.1311  0.0912
   41BDD     C7 5335   3.682   9.462  11.112  0.0193 -0.0679 -0.0485
   41BDD     C8 5336   3.645   9.550  11.003 -0.0065  0.0103  0.0235
   41BDD     C9 5337   3.731   9.655  10.986 -0.0162  0.0279  0.0847
   41BDD     S2 5338   3.865   9.650  11.106  0.0062 -0.0516  0.0563
   41BDD    C10 5339   3.796   9.500  11.177  0.0287 -0.1085 -0.0412
   41BDD    C11 5340   3.864   9.439  11.296  0.1435  0.3642 -0.0554
   41BDD    C12 5341   3.860   9.503  11.438  0.6644 -0.2514  0.1803
   41BDD    C13 5342   3.721   9.504  11.506 -0.2309  0.2556 -0.4069
   41BDD    C14 5343   3.599   9.578  11.448  0.0059 -0.5112 -0.0489
   41BDD    C15 5344   3.454   9.554  11.495  0.1363 -1.3359 -0.3290
   41BDD    C16 5345   3.401   9.418  11.484  0.5807 -0.2086  0.3922
   41BDD    C17 5346   3.939   9.637  11.458  0.4147 -0.1982 -0.4081
   41BDD    C18 5347   3.974   9.696  11.596  0.0407  0.5343  0.1078
   41BDD    C19 5348   3.735   9.780  10.897 -0.4719 -0.1823 -0.5766
   41BDD    C20 5349   3.623   9.879  10.920  0.6358 -0.3009 -0.1761
   41BDD    C21 5350   3.636   9.997  10.828  0.1223  0.3593 -0.4889
   41BDD    C22 5351   3.516  10.096  10.808 -0.5273  0.0330  0.5290
   41BDD    C23 5352   3.371  10.047  10.788  0.4253  0.6950  0.3882
   41BDD    C24 5353   3.345   9.935  10.679  0.6060  0.3311 -0.6437
   41BDD    C25 5354   3.579   9.917  11.069  0.2655  0.1709  0.5313
   41BDD    C26 5355   3.671   9.998  11.166 -0.4700  0.5246  0.4483
   42TPM     C1 5356   3.245   9.432  10.789 -0.2374 -0.2031  0.3259
   42TPM     C2 5357   3.189   9.362  10.687 -0.0225 -0.0067  0.0696
   42TPM     C3 5358   3.100   9.439  10.605  0.3062  0.2031 -0.0962
   42TPM     C4 5359   3.087   9.569  10.645  0.3421  0.1668  0.0336
   42TPM     S1 5360   3.189   9.604  10.790 -0.0394 -0.1376  0.3782
   43BDTP    C1 5361   2.650   9.991  10.487  0.1559 -0.1422 -0.1950
   43BDTP    C2 5362   2.731  10.060  10.582  0.1385 -0.0320 -0.2598
   43BDTP    C3 5363   2.844  10.004  10.640  0.1215  0.0303 -0.1653
   43BDTP    C4 5364   2.879   9.873  10.602  0.1216 -0.0183  0.0011
   43BDTP    C5 5365   2.799   9.804  10.507  0.1391 -0.1285  0.0660
   43BDTP    C6 5366   2.686   9.861  10.449  0.1560 -0.1908 -0.0286
   43BDTP    C7 5367   2.992   9.794  10.648  0.1057  0.0299  0.1228
   43BDTP    C8 5368   2.999   9.671  10.593  0.1104 -0.0379  0.2739
   43BDTP    S1 5369   2.865   9.637  10.475  0.1355 -0.1724  0.2834
   43BDTP    C9 5370   2.538  10.070  10.441  0.1717 -0.1904 -0.3166
   43BDTP   C10 5371   2.530  10.194  10.496  0.1671 -0.1226 -0.4677
   43BDTP    S2 5372   2.664  10.227  10.614  0.1420  0.0119 -0.4772
   44FTM     S1 5373   2.928  10.018  10.918 -0.5124 -0.0630  0.0744
   44FTM     C1 5374   2.994  10.177  10.972  0.0504 -0.4003  0.3971
   44FTM     C2 5375   3.000  10.263  10.866  0.5692 -0.2752  0.5222
   44FTM     C3 5376   2.954  10.212  10.740  0.5608  0.0820  0.3781
   44FTM     C4 5377   2.912  10.082  10.749  0.0180  0.2353  0.1349
   44FTM     F1 5378   3.046  10.393  10.878  1.0824 -0.4767  0.7745
   44FTM     C5 5379   3.029  10.183  11.111  0.2159 -0.7173  0.0097
   44FTM     C6 5380   3.172  10.156  11.157  0.0738  0.1605 -0.3516
   44FTM     C7 5381   3.233  10.009  11.113  0.3893 -0.0914  0.5151
   44FTM     C8 5382   3.153   9.884  11.164  0.3708  0.0159  0.7003
   44FTM     C9 5383   3.229   9.751  11.169  0.5621 -0.2379  0.3589
   44FTM    C10 5384   3.150   9.627  11.207 -0.1051 -0.0068  0.1213
   44FTM    C11 5385   3.199  10.180  11.313 -0.1656 -0.6737  0.3832
   44FTM    C12 5386   3.094  10.120  11.402  0.1803 -0.3594 -0.0448
   45FTM     S1 5387   2.610   9.772  10.184 -0.0525 -0.3437  0.0257
   45FTM     C1 5388   2.496   9.633  10.181 -0.2314 -0.2095  0.5255
   45FTM     C2 5389   2.458   9.601  10.308 -0.1442  0.1878  0.6525
   45FTM     C3 5390   2.515   9.681  10.412  0.0620  0.4068  0.3756
   45FTM     C4 5391   2.598   9.777  10.364  0.1352  0.1694  0.0251
   45FTM     F1 5392   2.370   9.498  10.337 -0.2461  0.3767  1.0271
   45FTM     C5 5393   2.458   9.582  10.035  0.3453 -0.2017 -0.1651
   45FTM     C6 5394   2.320   9.590   9.979  0.3237 -0.1088  0.4706
   45FTM     C7 5395   2.245   9.721   9.964  0.1771  0.0544 -0.6442
   45FTM     C8 5396   2.205   9.776  10.097  0.1637 -0.3836  0.0324
   45FTM     C9 5397   2.159   9.920  10.102 -0.3867  0.2727  0.4560
   45FTM    C10 5398   2.148   9.995  10.227  0.0699 -0.7401  0.1353
   45FTM    C11 5399   2.302   9.522   9.844 -0.1614  0.0586  0.0685
   45FTM    C12 5400   2.335   9.370   9.820 -0.1605 -0.6232  0.3350
   46TPM     C1 5401   2.431  10.297  10.473 -0.0353 -0.0674 -0.6323
   46TPM     C2 5402   2.433  10.426  10.516  0.1765  0.0709 -1.0478
   46TPM     C3 5403   2.312  10.499  10.486  0.1026  0.0288 -0.8537
   46TPM     C4 5404   2.218  10.425  10.420 -0.1656 -0.1417 -0.2902
   46TPM     S1 5405   2.275  10.256  10.391 -0.3470 -0.2632  0.0417
   47BDD     C1 5406   1.936  10.665  10.290  0.1952  0.0306 -0.0334
   47BDD     C2 5407   1.870  10.553  10.333  0.1998  0.0411  0.0010
   47BDD     C3 5408   1.959  10.449  10.382  0.2153 -0.0128 -0.1400
   47BDD     C4 5409   2.092  10.483  10.376  0.2224 -0.0635 -0.2797
   47BDD     S1 5410   2.114  10.648  10.308  0.2100 -0.0473 -0.2445
   47BDD     C5 5411   1.724  10.537  10.330  0.1901  0.1009  0.1646
   47BDD     C6 5412   1.910  10.319  10.433  0.2227 -0.0120 -0.1308
   47BDD     O1 5413   1.987  10.230  10.475  0.2360 -0.0584 -0.2524
   47BDD     O2 5414   1.647  10.626  10.288  0.1768  0.1473  0.2861
   47BDD     C7 5415   1.763  10.304  10.430  0.2130  0.0479  0.0328
   47BDD     C8 5416   1.674  10.407  10.381  0.1974  0.1017  0.1737
   47BDD     C9 5417   1.542  10.373  10.388  0.1904  0.1524  0.3135
   47BDD     S2 5418   1.520  10.208  10.455  0.2028  0.1362  0.2783
   47BDD    C10 5419   1.697  10.192  10.473  0.2175  0.0583  0.0672
   47BDD    C11 5420   1.744  10.059  10.518 -0.4085  0.3146 -0.2937
   47BDD    C12 5421   1.677   9.979  10.636 -0.6706 -0.2486  0.8133
   47BDD    C13 5422   1.728   9.835  10.630 -0.1061  0.0107 -0.2493
   47BDD    C14 5423   1.653   9.721  10.700  0.4681 -0.1996 -0.2099
   47BDD    C15 5424   1.504   9.694  10.654 -0.1777  0.0909  0.4208
   47BDD    C16 5425   1.441   9.577  10.720 -0.4020  0.0839 -0.0601
   47BDD    C17 5426   1.670  10.046  10.776 -0.3745 -0.5108  0.3895
   47BDD    C18 5427   1.799  10.076  10.846 -0.0556 -0.4384  0.0262
   47BDD    C19 5428   1.411  10.440  10.360 -0.5959 -0.2722  0.0859
   47BDD    C20 5429   1.302  10.353  10.286 -0.4957  0.3626  0.1631
   47BDD    C21 5430   1.163  10.411  10.298 -0.7595  0.0190 -0.5403
   47BDD    C22 5431   1.120  10.550  10.237 -0.2401 -0.1597  0.1896
   47BDD    C23 5432   1.110  10.556  10.083 -0.2513 -0.5243 -0.0789
   47BDD    C24 5433   1.093  10.695  10.018 -0.8516  0.3619  0.2027
   47BDD    C25 5434   1.354  10.293  10.152 -0.3118 -0.1283  0.5162
   47BDD    C26 5435   1.265  10.205  10.070  0.0455 -0.0209  0.6593
   48TPM     C1 5436   1.903  10.799  10.233  0.0256  0.1171 -0.9413
   48TPM     C2 5437   2.001  10.880  10.183 -0.1752  0.2902 -1.0586
   48TPM     C3 5438   1.954  11.010  10.141 -0.3846  0.3520 -0.6346
   48TPM     C4 5439   1.820  11.028  10.160 -0.3435  0.2261 -0.1941
   48TPM     S1 5440   1.743  10.881  10.232 -0.0347  0.0181 -0.2812
   49BDTP    C1 5441   1.541  11.556   9.965 -0.0396 -0.1381 -0.0850
   49BDTP    C2 5442   1.437  11.490  10.036  0.0260 -0.1037  0.0445
   49BDTP    C3 5443   1.454  11.366  10.096  0.0781 -0.0805  0.0772
   49BDTP    C4 5444   1.580  11.304  10.087  0.0650 -0.0918 -0.0222
   49BDTP    C5 5445   1.685  11.371  10.016 -0.0006 -0.1262 -0.1518
   49BDTP    C6 5446   1.668  11.495   9.955 -0.0527 -0.1494 -0.1845
   49BDTP    C7 5447   1.622  11.177  10.141  0.1109 -0.0725 -0.0118
   49BDTP    C8 5448   1.751  11.144  10.115  0.0833 -0.0905 -0.1258
   49BDTP    S1 5449   1.838  11.271  10.017 -0.0047 -0.1344 -0.2623
   49BDTP    C9 5450   1.500  11.684   9.911 -0.0856 -0.1575 -0.0955
   49BDTP   C10 5451   1.371  11.716   9.937 -0.0580 -0.1394  0.0185
   49BDTP    S2 5452   1.284  11.589  10.035  0.0300 -0.0954  0.1551
   50FTM     S1 5453   1.254  11.389  10.289  0.3626  0.1870 -0.1563
   50FTM     C1 5454   1.136  11.253  10.299  0.2986  0.2700  0.2398
   50FTM     C2 5455   1.171  11.156  10.211  0.1290  0.0926  0.3686
   50FTM     C3 5456   1.288  11.180  10.132  0.0408 -0.1136  0.1720
   50FTM     C4 5457   1.345  11.300  10.161  0.1461 -0.0935 -0.1169
   50FTM     F1 5458   1.098  11.038  10.197  0.0437  0.1064  0.6723
   50FTM     C5 5459   1.005  11.262  10.385 -0.7823  0.0530 -0.0130
   50FTM     C6 5460   0.913  11.380  10.379  0.0318 -0.2109 -0.5617
   50FTM     C7 5461   0.795  11.368  10.479  0.3459 -0.3902  0.0044
   50FTM     C8 5462   0.825  11.381  10.625  0.5431  0.0925 -0.0219
   50FTM     C9 5463   0.869  11.518  10.686 -0.1545  0.2711 -0.3629
   50FTM    C10 5464   0.785  11.645  10.666  0.1635 -0.0138 -0.3282
   50FTM    C11 5465   0.878  11.433  10.235  0.3209  0.5326 -0.3065
   50FTM    C12 5466   0.802  11.563  10.232 -0.2344 -0.2379  0.3174
   51FTM     S1 5467   1.955  11.559   9.946 -0.1049 -0.2068 -0.0909
   51FTM     C1 5468   2.008  11.629   9.789 -0.0010 -0.6431 -0.2521
   51FTM     C2 5469   1.901  11.646   9.707  0.0066 -0.5582 -0.2447
   51FTM     C3 5470   1.774  11.606   9.761 -0.0663 -0.1584 -0.1162
   51FTM     C4 5471   1.784  11.558   9.887 -0.1317  0.0704 -0.0222
   51FTM     F1 5472   1.912  11.698   9.579  0.0798 -0.8374 -0.3538
   51FTM     C5 5473   2.153  11.658   9.776  0.4659  0.4423 -0.4229
   51FTM     C6 5474   2.221  11.710   9.651 -0.2307 -0.8137  0.6304
   51FTM     C7 5475   2.216  11.853   9.612  0.2685 -0.0592  0.1507
   51FTM     C8 5476   2.213  11.949   9.727 -0.3181  0.3607  0.4550
   51FTM     C9 5477   2.199  12.094   9.692  0.0740  0.1177 -0.1732
   51FTM    C10 5478   2.210  12.192   9.807  0.1489 -0.1398 -0.4982
   51FTM    C11 5479   2.236  11.616   9.527 -0.5491  0.3369  0.0321
   51FTM    C12 5480   2.359  11.637   9.437 -0.3466 -0.4444 -0.1288
   52TPM     C1 5481   1.297  11.836   9.897 -0.3688  0.1960 -0.0224
   52TPM     C2 5482   1.163  11.855   9.915 -0.4523  0.0572 -0.4555
   52TPM     C3 5483   1.112  11.972   9.847 -0.3502  0.0141 -0.6073
   52TPM     C4 5484   1.206  12.040   9.777 -0.1891  0.1202 -0.2899
   52TPM     S1 5485   1.369  11.963   9.792 -0.1533  0.2840  0.2294
   53BDD     C1 5486   1.013  12.361   9.646 -0.1065  0.2650  0.0904
   53BDD     C2 5487   1.146  12.391   9.632 -0.0920  0.1812  0.0455
   53BDD     C3 5488   1.234  12.284   9.673 -0.1503 -0.0110 -0.3184
   53BDD     C4 5489   1.168  12.174   9.719 -0.2083 -0.0710 -0.5456
   53BDD     S1 5490   0.990  12.196   9.713 -0.1940  0.1090 -0.3197
   53BDD     C5 5491   1.196  12.520   9.579 -0.0241  0.2747  0.3355
   53BDD     C6 5492   1.382  12.295   9.666 -0.1463 -0.1283 -0.4274
   53BDD     O1 5493   1.458  12.203   9.702 -0.1965 -0.2940 -0.7412
   53BDD     O2 5494   1.119  12.613   9.543  0.0261  0.4405  0.6492
   53BDD     C7 5495   1.432  12.424   9.613 -0.0784 -0.0347 -0.1375
   53BDD     C8 5496   1.343  12.531   9.572 -0.0201  0.1575  0.2265
   53BDD     C9 5497   1.409  12.642   9.526  0.0379  0.2175  0.4537
   53BDD     S2 5498   1.587  12.620   9.532  0.0236  0.0375  0.2278
   53BDD    C10 5499   1.564  12.455   9.599 -0.0639 -0.1185 -0.1824
   53BDD    C11 5500   1.694  12.383   9.611 -0.1483 -0.2160  0.1574
   53BDD    C12 5501   1.716  12.258   9.530  0.1113 -0.4304 -0.3845
   53BDD    C13 5502   1.831  12.195   9.598 -0.0628  0.4057 -1.0112
   53BDD    C14 5503   1.836  12.044   9.595  0.0572 -0.2903 -0.2024
   53BDD    C15 5504   1.723  11.966   9.661  0.3159  0.8311 -0.5495
   53BDD    C16 5505   1.730  11.953   9.816  0.0258  0.4041  0.5922
   53BDD    C17 5506   1.700  12.252   9.373  0.3324  0.0262 -0.3456
   53BDD    C18 5507   1.785  12.333   9.272  0.1644  0.6535 -0.0824
   53BDD    C19 5508   1.369  12.780   9.476 -0.0656  0.2480 -0.6293
   53BDD    C20 5509   1.439  12.900   9.549 -0.4783  0.5943 -0.3694
   53BDD    C21 5510   1.446  13.034   9.476  0.0879  0.2924  0.2753
   53BDD    C22 5511   1.512  13.029   9.330 -0.2123  0.4955 -0.4624
   53BDD    C23 5512   1.520  13.155   9.254 -1.1146  0.1798  0.7100
   53BDD    C24 5513   1.614  13.258   9.310  0.0005  0.0705 -0.2680
   53BDD    C25 5514   1.389  12.907   9.691  0.2204 -0.0246  0.2239
   53BDD    C26 5515   1.246  12.946   9.724  0.3504 -1.1228  0.3502
   54TPM     C1 5516   0.886  12.431   9.629  0.2117  0.0796 -0.1903
   54TPM     C2 5517   0.788  12.419   9.723  0.6341  0.4501  0.3100
   54TPM     C3 5518   0.661  12.471   9.680  0.4320  0.2592  0.6690
   54TPM     C4 5519   0.662  12.523   9.554 -0.1446 -0.2568  0.4427
   54TPM     S1 5520   0.825  12.509   9.479 -0.4795 -0.5441 -0.2472
   55BDTP    C1 5521   0.189  12.781   9.218  0.1732  0.0723 -0.2568
   55BDTP    C2 5522   0.126  12.671   9.282  0.1136  0.1408 -0.1976
   55BDTP    C3 5523   0.193  12.586   9.369  0.0345  0.2303 -0.0470
   55BDTP    C4 5524   0.329  12.610   9.393  0.0129  0.2536  0.0503
   55BDTP    C5 5525   0.393  12.720   9.329  0.0725  0.1852 -0.0086
   55BDTP    C6 5526   0.326  12.805   9.243  0.1516  0.0956 -0.1593
   55BDTP    C7 5527   0.419  12.535   9.479 -0.0652  0.3417  0.2105
   55BDTP    C8 5528   0.546  12.583   9.482 -0.0671  0.3428  0.2737
   55BDTP    S1 5529   0.569  12.730   9.377  0.0297  0.2322  0.1395
   55BDTP    C9 5530   0.100  12.856   9.132  0.2513 -0.0158 -0.4165
   55BDTP   C10 5531  -0.027  12.808   9.129  0.2532 -0.0168 -0.4797
   55BDTP    S2 5532  -0.050  12.661   9.234  0.1564  0.0937 -0.3458
   56FTM     S1 5533   0.170  12.301   9.427  0.1220  0.0401  0.0891
   56FTM     C1 5534   0.043  12.261   9.547 -0.3637  0.1612 -0.3759
   56FTM     C2 5535  -0.029  12.372   9.578 -0.2861  0.2573 -0.5410
   56FTM     C3 5536   0.010  12.493   9.511  0.1453  0.2429 -0.3214
   56FTM     C4 5537   0.115  12.473   9.427  0.4066  0.1322  0.0233
   56FTM     F1 5538  -0.134  12.372   9.669 -0.6011  0.3641 -0.9010
   56FTM     C5 5539   0.010  12.118   9.581  0.4048  0.0673  0.0392
   56FTM     C6 5540   0.117  12.010   9.623  0.3630  0.6576  0.1762
   56FTM     C7 5541   0.230  12.035   9.723  0.1328  0.2850  0.4062
   56FTM     C8 5542   0.217  12.134   9.843 -0.1179  0.0987  0.1478
   56FTM     C9 5543   0.345  12.141   9.927  0.8994 -0.2385 -0.4679
   56FTM    C10 5544   0.319  12.207  10.055  0.1632  0.0166 -0.4614
   56FTM    C11 5545   0.081  11.855   9.633 -0.2114  0.2187 -0.2787
   56FTM    C12 5546  -0.005  11.803   9.516  0.0190  0.2829 -0.0078
   57FTM     S1 5547   0.458  13.051   9.298  0.0563  0.0785 -0.1512
   57FTM     C1 5548   0.531  13.136   9.157  0.2084 -0.1923 -0.2385
   57FTM     C2 5549   0.504  13.067   9.042  0.0017 -0.2114 -0.1802
   57FTM     C3 5550   0.428  12.947   9.057 -0.2809 -0.0213 -0.0668
   57FTM     C4 5551   0.395  12.923   9.187 -0.2908  0.1490 -0.0372
   57FTM     F1 5552   0.548  13.109   8.917  0.0560 -0.4023 -0.2260
   57FTM     C5 5553   0.621  13.261   9.174 -0.4656 -0.4767  0.0709
   57FTM     C6 5554   0.766  13.245   9.225  0.2736 -0.0242  0.2017
   57FTM     C7 5555   0.849  13.367   9.258 -0.4442  0.0904  0.2434
   57FTM     C8 5556   0.795  13.442   9.379  0.0696 -0.0685 -0.0982
   57FTM     C9 5557   0.860  13.560   9.434  0.5594 -0.1295  0.0371
   57FTM    C10 5558   0.835  13.693   9.363 -0.2674 -0.5375  0.4452
   57FTM    C11 5559   0.849  13.120   9.170 -0.2899 -0.4779  0.0251
   57FTM    C12 5560   0.912  13.136   9.031  0.0564 -0.1110 -0.2590
   58TPM     C1 5561  -0.145  12.859   9.057  0.0977  0.2602  0.2818
   58TPM     C2 5562  -0.254  12.780   9.036  0.2706  0.0573  0.1433
   58TPM     C3 5563  -0.352  12.839   8.949  0.2916 -0.1456 -0.0203
   58TPM     C4 5564  -0.319  12.963   8.904  0.1342 -0.0974 -0.0060
   58TPM     S1 5565  -0.158  13.016   8.969 -0.0536  0.2103  0.2165
   59BDD     C1 5566  -0.400  13.216   8.621  0.0222 -0.0004  0.0644
   59BDD     C2 5567  -0.517  13.148   8.641  0.0198  0.0075  0.0763
   59BDD     C3 5568  -0.507  13.046   8.744  0.0098  0.0407  0.1099
   59BDD     C4 5569  -0.384  13.038   8.801  0.0046  0.0576  0.1230
   59BDD     S1 5570  -0.270  13.157   8.730  0.0122  0.0332  0.0942
   59BDD     C5 5571  -0.641  13.174   8.566  0.0265 -0.0153  0.0575
   59BDD     C6 5572  -0.622  12.961   8.782  0.0057  0.0544  0.1278
   59BDD     O1 5573  -0.614  12.873   8.871 -0.0031  0.0830  0.1564
   59BDD     O2 5574  -0.649  13.261   8.476  0.0350 -0.0439  0.0284
   59BDD     C7 5575  -0.746  12.987   8.707  0.0122  0.0315  0.1090
   59BDD     C8 5576  -0.756  13.088   8.604  0.0222 -0.0017  0.0753
   59BDD     C9 5577  -0.880  13.096   8.547  0.0272 -0.0185  0.0620
   59BDD     S2 5578  -0.993  12.977   8.618  0.0197  0.0059  0.0910
   59BDD    C10 5579  -0.863  12.919   8.727  0.0098  0.0395  0.1206
   59BDD    C11 5580  -0.898  12.803   8.822  0.0963 -0.1732 -0.2615
   59BDD    C12 5581  -0.917  12.835   8.973  0.4476 -0.5606 -0.4170
   59BDD    C13 5582  -0.927  12.719   9.073 -0.2304  0.7874  0.6222
   59BDD    C14 5583  -0.822  12.612   9.069 -0.2272  0.5083  0.0093
   59BDD    C15 5584  -0.691  12.668   9.134 -0.2744 -0.0651  0.9536
   59BDD    C16 5585  -0.576  12.563   9.150 -0.0609 -0.3667  0.3351
   59BDD    C17 5586  -1.042  12.932   8.991  0.2006  1.0527 -0.3594
   59BDD    C18 5587  -1.060  12.991   9.129 -0.1127  0.1129  0.1173
   59BDD    C19 5588  -0.943  13.200   8.463 -0.6289  0.1636  1.5750
   59BDD    C20 5589  -0.975  13.159   8.317 -0.4469 -0.3643  0.7263
   59BDD    C21 5590  -1.080  13.242   8.240  0.2183  0.3306 -0.6174
   59BDD    C22 5591  -1.224  13.256   8.294 -0.2769 -0.2718  0.3244
   59BDD    C23 5592  -1.291  13.352   8.193 -0.4096  0.7972 -0.2511
   59BDD    C24 5593  -1.440  13.363   8.219  0.4876  0.0430 -0.1921
   59BDD    C25 5594  -0.854  13.109   8.227 -0.1723  0.3030 -0.0189
   59BDD    C26 5595  -0.745  13.210   8.190 -0.0231 -0.1012 -0.1799
   60TPM     C1 5596  -0.357  13.331   8.535 -0.0504 -0.2941 -0.0357
   60TPM     C2 5597  -0.354  13.321   8.399  0.1974 -0.2729 -0.0322
   60TPM     C3 5598  -0.286  13.431   8.334  0.2825 -0.2447  0.1054
   60TPM     C4 5599  -0.239  13.525   8.422  0.1002 -0.2443  0.2064
   60TPM     S1 5600  -0.275  13.481   8.593 -0.1961 -0.2798  0.1355
    1BDTP    C1 5601   2.636   5.673   5.956  0.0561  0.0689  0.1174
    1BDTP    C2 5602   2.533   5.587   6.003  0.1283 -0.0527  0.0548
    1BDTP    C3 5603   2.464   5.501   5.919  0.2515 -0.1032  0.0051
    1BDTP    C4 5604   2.499   5.499   5.783  0.3062 -0.0308  0.0180
    1BDTP    C5 5605   2.602   5.585   5.736  0.2341  0.0908  0.0808
    1BDTP    C6 5606   2.671   5.671   5.820  0.1108  0.1414  0.1304
    1BDTP    C7 5607   2.441   5.418   5.677  0.4322 -0.0632 -0.0255
    1BDTP    C8 5608   2.496   5.439   5.555  0.4576  0.0268  0.0012
    1BDTP    S1 5609   2.629   5.564   5.557  0.3259  0.1655  0.0851
    1BDTP    C9 5610   2.694   5.754   6.062 -0.0697  0.1014  0.1609
    1BDTP   C10 5611   2.639   5.733   6.184 -0.0952  0.0114  0.1343
    1BDTP    S2 5612   2.507   5.608   6.182  0.0366 -0.1273  0.0503
    2FTM     S1 5613   2.205   5.509   6.049 -0.3050 -0.0665 -0.3027
    2FTM     C1 5614   2.125   5.349   6.074  0.1786 -0.2212  0.2970
    2FTM     C2 5615   2.205   5.250   6.029  0.5804 -0.1749  0.8795
    2FTM     C3 5616   2.331   5.290   5.972  0.5377 -0.0199  0.8945
    2FTM     C4 5617   2.347   5.425   5.975  0.0885  0.0548  0.3043
    2FTM     F1 5618   2.170   5.116   6.035  1.0108 -0.2699  1.4336
    2FTM     C5 5619   1.984   5.342   6.119  0.2389 -0.1779 -0.4113
    2FTM     C6 5620   1.929   5.405   6.255 -0.3963  0.0908 -0.2033
    2FTM     C7 5621   1.781   5.404   6.260 -0.0847 -1.0186 -0.6285
    2FTM     C8 5622   1.717   5.500   6.164 -0.4399 -0.5612  0.2564
    2FTM     C9 5623   1.728   5.647   6.198 -0.5021  0.5931  0.5989
    2FTM    C10 5624   1.636   5.704   6.307 -0.6014  0.0493  0.0575
    2FTM    C11 5625   1.997   5.393   6.394  0.4544  0.2415  0.5810
    2FTM    C12 5626   2.150   5.375   6.403  0.0932 -0.0708  0.9073
    3FTM     S1 5627   2.932   5.801   5.824  0.2034 -0.3131 -0.0694
    3FTM     C1 5628   2.945   5.944   5.715  0.0194 -0.1332  0.1424
    3FTM     C2 5629   2.831   5.957   5.642 -0.2575  0.2104  0.6238
    3FTM     C3 5630   2.729   5.860   5.666 -0.3414  0.3514  0.8521
    3FTM     C4 5631   2.766   5.768   5.760 -0.1216  0.1078  0.5350
    3FTM     F1 5632   2.813   6.059   5.549 -0.4513  0.4178  0.8867
    3FTM     C5 5633   3.067   6.037   5.724  0.4688 -0.0612 -0.3845
    3FTM     C6 5634   3.091   6.132   5.852 -0.5915 -0.1527  0.8952
    3FTM     C7 5635   3.113   6.063   5.993 -0.4633 -0.5952  0.7854
    3FTM     C8 5636   3.233   5.975   6.009  0.0591 -0.5077 -1.0552
    3FTM     C9 5637   3.264   5.933   6.154 -0.3011  0.1607  0.2464
    3FTM    C10 5638   3.399   5.866   6.168 -0.5713 -0.3834 -0.0251
    3FTM    C11 5639   2.996   6.249   5.869 -0.7275 -0.1036 -0.3538
    3FTM    C12 5640   2.980   6.354   5.753 -0.5381  0.0925  0.1207
    4TPM     C1 5641   2.672   5.811   6.299 -0.0403  0.0286 -0.3565
    4TPM     C2 5642   2.629   5.793   6.427  0.1437 -0.0981 -0.3103
    4TPM     C3 5643   2.685   5.886   6.522  0.2891 -0.1996 -0.2977
    4TPM     C4 5644   2.773   5.974   6.466  0.2159 -0.1504 -0.3343
    4TPM     S1 5645   2.790   5.947   6.288 -0.0444  0.0294 -0.3883
    5BDD     C1 5646   3.093   6.142   6.614 -0.1100 -0.1004 -0.0005
    5BDD     C2 5647   2.994   6.178   6.701 -0.1073 -0.0650 -0.0123
    5BDD     C3 5648   2.864   6.125   6.666 -0.1075 -0.0827  0.0155
    5BDD     C4 5649   2.865   6.049   6.552 -0.1104 -0.1313  0.0480
    5BDD     S1 5650   3.030   6.039   6.481 -0.1130 -0.1583  0.0461
    5BDD     C5 5651   3.016   6.263   6.820 -0.1044 -0.0136 -0.0494
    5BDD     C6 5652   2.743   6.152   6.746 -0.1048 -0.0509  0.0089
    5BDD     O1 5653   2.630   6.106   6.716 -0.1051 -0.0663  0.0328
    5BDD     O2 5654   3.129   6.309   6.850 -0.1041  0.0018 -0.0732
    5BDD     C7 5655   2.765   6.237   6.865 -0.1020  0.0005 -0.0281
    5BDD     C8 5656   2.895   6.290   6.900 -0.1018  0.0182 -0.0560
    5BDD     C9 5657   2.894   6.366   7.014 -0.0988  0.0669 -0.0885
    5BDD     S2 5658   2.729   6.376   7.085 -0.0963  0.0939 -0.0866
    5BDD    C10 5659   2.666   6.273   6.952 -0.0992  0.0358 -0.0399
    5BDD    C11 5660   2.519   6.254   6.956  0.0179  0.5060 -0.2636
    5BDD    C12 5661   2.447   6.199   7.083 -0.5904  0.0567  0.1168
    5BDD    C13 5662   2.356   6.308   7.135  0.5469 -0.0747 -0.3116
    5BDD    C14 5663   2.316   6.290   7.283 -0.8186 -0.0378 -0.0332
    5BDD    C15 5664   2.233   6.404   7.326  0.2473 -0.6505  0.1789
    5BDD    C16 5665   2.178   6.380   7.468  0.0295  0.6471  0.8152
    5BDD    C17 5666   2.391   6.052   7.086  0.4711 -0.3868  0.5959
    5BDD    C18 5667   2.273   6.005   6.998 -0.6688 -0.0747  0.3438
    5BDD    C19 5668   2.990   6.449   7.096 -0.2163 -0.4563  0.4163
    5BDD    C20 5669   3.069   6.564   7.021 -0.3420 -0.1992 -0.0410
    5BDD    C21 5670   3.207   6.584   7.092  0.4002  0.5688  0.7394
    5BDD    C22 5671   3.218   6.602   7.242  0.0065 -0.7004  0.1781
    5BDD    C23 5672   3.359   6.570   7.299  0.5865  0.1786  0.0689
    5BDD    C24 5673   3.367   6.570   7.449  0.4823 -0.1884 -0.3588
    5BDD    C25 5674   2.984   6.694   7.006  0.1557  1.1173  0.1116
    5BDD    C26 5675   3.046   6.812   6.946  0.8699  0.1076 -0.1995
    6TPM     C1 5676   3.238   6.170   6.597 -0.4288  0.4655 -0.4688
    6TPM     C2 5677   3.287   6.294   6.624 -0.2521  0.4181 -0.5623
    6TPM     C3 5678   3.410   6.325   6.556 -0.0452  0.0764 -0.3473
    6TPM     C4 5679   3.455   6.224   6.477 -0.0639 -0.1365 -0.0899
    6TPM     S1 5680   3.345   6.081   6.482 -0.3466  0.0795 -0.0990
    7BDTP    C1 5681   3.937   6.179   6.074  0.1624  0.3055 -0.0348
    7BDTP    C2 5682   3.910   6.319   6.074  0.1541  0.3041 -0.0451
    7BDTP    C3 5683   3.811   6.377   6.152  0.0657  0.2879 -0.1440
    7BDTP    C4 5684   3.735   6.292   6.235 -0.0188  0.2725 -0.2376
    7BDTP    C5 5685   3.761   6.152   6.235 -0.0106  0.2741 -0.2273
    7BDTP    C6 5686   3.860   6.095   6.156  0.0779  0.2901 -0.1283
    7BDTP    C7 5687   3.627   6.329   6.325 -0.1183  0.2544 -0.3485
    7BDTP    C8 5688   3.572   6.225   6.391 -0.1843  0.2422 -0.4214
    7BDTP    S1 5689   3.649   6.065   6.350 -0.1298  0.2525 -0.3594
    7BDTP    C9 5690   4.044   6.142   5.984  0.2619  0.3239  0.0763
    7BDTP   C10 5691   4.099   6.247   5.917  0.3279  0.3358  0.1490
    7BDTP    S2 5692   4.022   6.406   5.959  0.2733  0.3258  0.0872
    8FTM     S1 5693   3.618   6.576   6.101 -0.1248 -0.1399  0.1786
    8FTM     C1 5694   3.671   6.748   6.115 -0.0877 -0.1513  0.1781
    8FTM     C2 5695   3.805   6.753   6.137 -0.0874 -0.1802  0.1831
    8FTM     C3 5696   3.873   6.627   6.145 -0.1153 -0.1950  0.1876
    8FTM     C4 5697   3.788   6.522   6.127 -0.1377 -0.1768  0.1858
    8FTM     F1 5698   3.875   6.872   6.152 -0.0620 -0.1953  0.1841
    8FTM     C5 5699   3.562   6.856   6.132  0.0818  0.0001 -0.9148
    8FTM     C6 5700   3.466   6.837   6.257 -0.0054  0.9976 -0.3351
    8FTM     C7 5701   3.361   6.949   6.257  0.2047  0.4335 -0.1071
    8FTM     C8 5702   3.408   7.090   6.272 -0.1240  0.4245  0.2925
    8FTM     C9 5703   3.334   7.164   6.388 -0.2096  0.9721  0.0124
    8FTM    C10 5704   3.311   7.097   6.520 -0.0238  0.0081 -0.4740
    8FTM    C11 5705   3.545   6.803   6.392  0.1424 -0.2730  0.5927
    8FTM    C12 5706   3.460   6.727   6.493  0.1319  0.4303  0.0835
    9FTM     S1 5707   3.812   5.840   6.028 -0.2393 -0.0027 -0.0392
    9FTM     C1 5708   3.871   5.696   6.118 -0.6487 -0.1048  0.0737
    9FTM     C2 5709   3.929   5.735   6.235 -0.5706 -0.1802  0.0603
    9FTM     C3 5710   3.931   5.876   6.261 -0.1966 -0.1639 -0.0360
    9FTM     C4 5711   3.872   5.947   6.161  0.0186 -0.0728 -0.0987
    9FTM     F1 5712   3.985   5.645   6.325 -0.8330 -0.2688  0.1349
    9FTM     C5 5713   3.853   5.553   6.071  0.0889  0.2717 -0.4383
    9FTM     C6 5714   3.854   5.511   5.924 -0.4219  0.7807 -0.1745
    9FTM     C7 5715   3.824   5.361   5.911  0.1198  0.0047 -0.1986
    9FTM     C8 5716   3.897   5.254   6.000  0.2814  0.1200 -0.0358
    9FTM     C9 5717   3.835   5.122   5.961 -0.0179  0.9982  0.4309
    9FTM    C10 5718   3.906   5.006   6.024  0.2252  0.3020  0.0445
    9FTM    C11 5719   3.970   5.579   5.847 -0.0137  0.0798 -0.4992
    9FTM    C12 5720   3.984   5.568   5.700  0.3355 -0.6718  0.7292
   10TPM     C1 5721   4.204   6.250   5.817 -0.5671 -0.0024 -0.4253
   10TPM     C2 5722   4.278   6.355   5.774 -0.8039  0.0703 -0.6586
   10TPM     C3 5723   4.396   6.317   5.700 -0.3923  0.1504 -0.0511
   10TPM     C4 5724   4.412   6.182   5.688  0.1583  0.1390  0.6454
   10TPM     S1 5725   4.278   6.092   5.768  0.1999  0.0250  0.5878
   11BDD     C1 5726   4.680   5.921   5.573  0.0200 -0.1845 -0.0633
   11BDD     C2 5727   4.685   6.019   5.478 -0.0343 -0.1454 -0.0257
   11BDD     C3 5728   4.598   6.132   5.507  0.0148 -0.1384  0.0917
   11BDD     C4 5729   4.529   6.118   5.624  0.1060 -0.1720  0.1420
   11BDD     S1 5730   4.567   5.962   5.705  0.1367 -0.2149  0.0457
   11BDD     C5 5731   4.769   6.013   5.356 -0.1338 -0.1134 -0.0963
   11BDD     C6 5732   4.587   6.249   5.419 -0.0305 -0.0986  0.1498
   11BDD     O1 5733   4.512   6.346   5.444  0.0119 -0.0924  0.2511
   11BDD     O2 5734   4.844   5.916   5.331 -0.1762 -0.1194 -0.1976
   11BDD     C7 5735   4.671   6.243   5.297 -0.1298 -0.0665  0.0793
   11BDD     C8 5736   4.758   6.131   5.268 -0.1792 -0.0736 -0.0381
   11BDD     C9 5737   4.827   6.145   5.151 -0.2704 -0.0399 -0.0885
   11BDD     S2 5738   4.789   6.300   5.069 -0.3010  0.0029  0.0079
   11BDD    C10 5739   4.676   6.342   5.202 -0.1843 -0.0275  0.1168
   11BDD    C11 5740   4.621   6.483   5.195  0.2089  0.5181 -0.4192
   11BDD    C12 5741   4.722   6.604   5.181  0.4530  0.6687 -0.1569
   11BDD    C13 5742   4.643   6.736   5.197  0.1721 -0.0343  0.2211
   11BDD    C14 5743   4.729   6.852   5.132  0.0505  0.5998 -1.0154
   11BDD    C15 5744   4.695   6.994   5.173 -0.8061  0.0458 -0.9513
   11BDD    C16 5745   4.757   7.101   5.102 -0.1304 -0.4591 -0.0744
   11BDD    C17 5746   4.856   6.587   5.249 -0.0123  0.3216 -0.1695
   11BDD    C18 5747   4.863   6.586   5.404 -0.5048  0.0196  0.6551
   11BDD    C19 5748   4.917   6.055   5.069  0.1926 -1.1873 -0.2312
   11BDD    C20 5749   4.882   6.043   4.918  0.0418 -0.3372  0.1780
   11BDD    C21 5750   4.988   5.956   4.848 -0.1184 -0.0666 -0.0594
   11BDD    C22 5751   4.994   5.953   4.693 -0.6379  0.1089 -0.1276
   11BDD    C23 5752   5.060   6.083   4.631  0.2522 -0.2724  0.8745
   11BDD    C24 5753   5.208   6.081   4.620 -0.1439  0.6292  0.1862
   11BDD    C25 5754   4.731   6.006   4.894  0.7393 -0.2060  0.7105
   11BDD    C26 5755   4.687   5.865   4.925 -0.5611  0.4511 -0.0123
   12TPM     C1 5756   4.746   5.791   5.598 -0.2915 -0.3908 -0.0272
   12TPM     C2 5757   4.783   5.706   5.498 -0.0186 -0.3958  0.0757
   12TPM     C3 5758   4.819   5.574   5.545  0.3005 -0.2571  0.2240
   12TPM     C4 5759   4.810   5.560   5.680  0.2711 -0.1463  0.2342
   12TPM     S1 5760   4.755   5.712   5.760 -0.1656 -0.2091  0.0561
   13BDTP    C1 5761   4.767   5.034   6.016 -0.2354 -0.0743  0.0955
   13BDTP    C2 5762   4.660   5.112   6.067 -0.2451 -0.0811  0.0857
   13BDTP    C3 5763   4.634   5.241   6.022 -0.2658 -0.0930  0.0637
   13BDTP    C4 5764   4.716   5.295   5.922 -0.2778 -0.0986  0.0509
   13BDTP    C5 5765   4.824   5.216   5.871 -0.2682 -0.0918  0.0608
   13BDTP    C6 5766   4.850   5.087   5.916 -0.2472 -0.0798  0.0828
   13BDTP    C7 5767   4.708   5.425   5.860 -0.2998 -0.1106  0.0278
   13BDTP    C8 5768   4.803   5.448   5.766 -0.3068 -0.1134  0.0201
   13BDTP    S1 5769   4.916   5.307   5.742 -0.2867 -0.1009  0.0408
   13BDTP    C9 5770   4.775   4.903   6.078 -0.2134 -0.0620  0.1186
   13BDTP   C10 5771   4.681   4.880   6.172 -0.2064 -0.0591  0.1265
   13BDTP    S2 5772   4.568   5.021   6.195 -0.2265 -0.0718  0.1056
   14FTM     S1 5773   4.585   5.454   6.210 -0.1250  0.1869 -0.2409
   14FTM     C1 5774   4.411   5.488   6.243 -0.1719 -0.5437  0.3144
   14FTM     C2 5775   4.333   5.404   6.170 -0.0594 -1.0439  0.7553
   14FTM     C3 5776   4.401   5.310   6.086  0.0672 -0.8931  0.6899
   14FTM     C4 5777   4.537   5.323   6.095  0.0510 -0.2568  0.1821
   14FTM     F1 5778   4.194   5.407   6.175 -0.0644 -1.6680  1.2445
   14FTM     C5 5779   4.361   5.600   6.329  0.2931 -1.0057  0.2493
   14FTM     C6 5780   4.399   5.747   6.297  0.4976  0.1855  0.0080
   14FTM     C7 5781   4.320   5.816   6.178  0.4176 -0.0429 -0.3198
   14FTM     C8 5782   4.286   5.751   6.037  0.0275 -0.5006  0.3075
   14FTM     C9 5783   4.397   5.699   5.942  0.5363  0.6311 -0.1097
   14FTM    C10 5784   4.352   5.607   5.830  0.1419  0.6969  0.1434
   14FTM    C11 5785   4.539   5.789   6.326 -0.3076  0.5552 -0.3542
   14FTM    C12 5786   4.587   5.936   6.321 -0.0237  0.2567 -0.3164
   15FTM     S1 5787   5.069   4.907   5.955 -0.1139 -0.1089 -0.1411
   15FTM     C1 5788   5.157   4.860   5.805  0.0525  0.0222 -0.0854
   15FTM     C2 5789   5.103   4.922   5.698  0.1523  0.0925 -0.0952
   15FTM     C3 5790   4.992   5.009   5.724  0.1067  0.0497 -0.1454
   15FTM     C4 5791   4.961   5.013   5.857 -0.0326 -0.0568 -0.1752
   15FTM     F1 5792   5.151   4.905   5.569  0.2911  0.1996 -0.0592
   15FTM     C5 5793   5.285   4.784   5.805 -0.4553  0.0286 -0.2009
   15FTM     C6 5794   5.424   4.850   5.831 -0.4270  0.8822 -0.4788
   15FTM     C7 5795   5.449   4.950   5.932 -0.1733  0.2418 -0.7693
   15FTM     C8 5796   5.383   5.083   5.917 -0.8188 -0.5809  0.6128
   15FTM     C9 5797   5.407   5.171   5.795 -0.1779  0.6273  0.0804
   15FTM    C10 5798   5.317   5.286   5.788  0.0317 -1.0788 -0.0502
   15FTM    C11 5799   5.561   4.785   5.793  0.0733 -0.0217  0.3188
   15FTM    C12 5800   5.582   4.707   5.663  0.2309 -0.4816 -0.1796
   16TPM     C1 5801   4.652   4.755   6.246  0.2080 -0.2095  0.0890
   16TPM     C2 5802   4.529   4.718   6.291  0.1117 -0.3595 -0.2877
   16TPM     C3 5803   4.530   4.594   6.364  0.0221 -0.4090 -0.3706
   16TPM     C4 5804   4.653   4.537   6.375  0.0499 -0.2968 -0.0572
   16TPM     S1 5805   4.779   4.636   6.292  0.1928 -0.1183  0.3702
   17BDD     C1 5806   4.813   4.188   6.449  0.0331 -0.2091 -0.0972
   17BDD     C2 5807   4.705   4.194   6.533  0.0454 -0.2227 -0.0803
   17BDD     C3 5808   4.629   4.317   6.520 -0.0288 -0.2750 -0.1377
   17BDD     C4 5809   4.679   4.402   6.426 -0.0969 -0.3005 -0.1975
   17BDD     S1 5810   4.826   4.335   6.347 -0.0726 -0.2607 -0.1861
   17BDD     C5 5811   4.669   4.087   6.629  0.1260 -0.1882 -0.0107
   17BDD     C6 5812   4.509   4.345   6.601 -0.0299 -0.2978 -0.1311
   17BDD     O1 5813   4.443   4.451   6.590 -0.0939 -0.3427 -0.1806
   17BDD     O2 5814   4.734   3.982   6.640  0.1901 -0.1431  0.0387
   17BDD     C7 5815   4.472   4.238   6.697  0.0509 -0.2633 -0.0616
   17BDD     C8 5816   4.548   4.116   6.710  0.1252 -0.2110 -0.0043
   17BDD     C9 5817   4.498   4.030   6.804  0.1932 -0.1854  0.0556
   17BDD     S2 5818   4.352   4.098   6.883  0.1689 -0.2251  0.0440
   17BDD    C10 5819   4.365   4.245   6.781  0.0633 -0.2767 -0.0448
   17BDD    C11 5820   4.246   4.339   6.804  0.3582  0.7510 -0.1274
   17BDD    C12 5821   4.247   4.427   6.937 -1.5060 -0.1986 -0.6385
   17BDD    C13 5822   4.123   4.492   6.988  0.0808  0.2767 -0.2100
   17BDD    C14 5823   3.995   4.418   7.008 -0.5958  0.4491 -0.1770
   17BDD    C15 5824   3.903   4.506   7.089  0.7669  0.2114  0.3359
   17BDD    C16 5825   3.780   4.421   7.109 -0.7099 -0.0447  0.0207
   17BDD    C17 5826   4.378   4.515   6.956 -0.3200 -0.0754  0.3645
   17BDD    C18 5827   4.396   4.628   6.853  0.1517  0.2074  0.2699
   17BDD    C19 5828   4.539   3.893   6.849  0.4377 -0.1949  0.3158
   17BDD    C20 5829   4.427   3.785   6.843 -0.1920 -0.6236 -0.4216
   17BDD    C21 5830   4.489   3.669   6.929  0.0861 -0.3747  0.6477
   17BDD    C22 5831   4.418   3.544   6.962  0.2224 -0.1296 -0.3073
   17BDD    C23 5832   4.298   3.575   7.046  0.0744  0.2558  0.1064
   17BDD    C24 5833   4.200   3.454   7.055  0.1225  0.9600 -0.3764
   17BDD    C25 5834   4.367   3.748   6.707 -0.2311  0.7785  0.0104
   17BDD    C26 5835   4.456   3.692   6.593 -0.3467 -0.3422 -0.8623
   18TPM     C1 5836   4.924   4.091   6.419  0.3524  0.4050  0.6765
   18TPM     C2 5837   5.036   4.132   6.353  0.5255  0.6509  1.1159
   18TPM     C3 5838   5.134   4.028   6.335  0.3631  0.5865  0.5672
   18TPM     C4 5839   5.097   3.908   6.387  0.0661  0.2915 -0.2906
   18TPM     S1 5840   4.934   3.916   6.464 -0.0322  0.0706 -0.4735
   19BDTP    C1 5841   5.403   3.355   6.392 -0.1347 -0.1060 -0.0430
   19BDTP    C2 5842   5.266   3.315   6.392 -0.1364 -0.1014 -0.0008
   19BDTP    C3 5843   5.161   3.407   6.390 -0.1336 -0.0980  0.0249
   19BDTP    C4 5844   5.193   3.544   6.388 -0.1296 -0.0992  0.0086
   19BDTP    C5 5845   5.330   3.583   6.388 -0.1281 -0.1037 -0.0334
   19BDTP    C6 5846   5.434   3.492   6.390 -0.1306 -0.1071 -0.0594
   19BDTP    C7 5847   5.102   3.656   6.386 -0.1264 -0.0963  0.0295
   19BDTP    C8 5848   5.163   3.777   6.384 -0.1227 -0.0984  0.0052
   19BDTP    S1 5849   5.345   3.765   6.386 -0.1227 -0.1044 -0.0472
   19BDTP    C9 5850   5.494   3.242   6.394 -0.1379 -0.1089 -0.0638
   19BDTP   C10 5851   5.433   3.121   6.395 -0.1416 -0.1068 -0.0396
   19BDTP    S2 5852   5.251   3.133   6.394 -0.1417 -0.1008  0.0129
   20FTM     S1 5853   4.903   3.453   6.503  0.0875  0.1374 -0.0514
   20FTM     C1 5854   4.774   3.331   6.469  0.0088  0.2257 -0.0699
   20FTM     C2 5855   4.824   3.233   6.388 -0.0334  0.1668 -0.0244
   20FTM     C3 5856   4.961   3.247   6.349 -0.0075  0.0523  0.0266
   20FTM     C4 5857   5.019   3.358   6.402  0.0565  0.0225  0.0196
   20FTM     F1 5858   4.747   3.126   6.345 -0.0978  0.2131 -0.0262
   20FTM     C5 5859   4.637   3.333   6.540 -0.4997  0.3773  1.0513
   20FTM     C6 5860   4.596   3.227   6.640  0.6068 -0.1547  0.8838
   20FTM     C7 5861   4.442   3.240   6.665 -0.2465 -0.5163  0.2763
   20FTM     C8 5862   4.349   3.207   6.547  0.3212 -0.1107  0.2476
   20FTM     C9 5863   4.351   3.072   6.468 -0.3732  0.1764 -0.5849
   20FTM    C10 5864   4.278   3.058   6.337  0.3809  0.0795  0.2052
   20FTM    C11 5865   4.692   3.182   6.753  0.4524 -0.5995 -0.4788
   20FTM    C12 5866   4.721   3.291   6.858  0.4379 -0.4449  0.1043
   21FTM     S1 5867   5.650   3.568   6.211  0.2042  0.1535 -0.3615
   21FTM     C1 5868   5.810   3.608   6.284  0.1441  0.3127 -0.3158
   21FTM     C2 5869   5.804   3.593   6.419  0.1130  0.3328 -0.3151
   21FTM     C3 5870   5.678   3.551   6.473  0.1336  0.2283 -0.3487
   21FTM     C4 5871   5.584   3.533   6.375  0.1820  0.1248 -0.3766
   21FTM     F1 5872   5.912   3.616   6.503  0.0640  0.4472 -0.2834
   21FTM     C5 5873   5.923   3.662   6.200 -0.3779 -0.0331 -0.4050
   21FTM     C6 5874   5.924   3.796   6.128  0.0265 -0.2877  0.4733
   21FTM     C7 5875   5.868   3.921   6.208  0.1198 -0.1049  0.1831
   21FTM     C8 5876   5.714   3.934   6.230 -0.6426  0.1335 -0.1306
   21FTM     C9 5877   5.691   4.051   6.323 -0.2590  0.2693 -0.2506
   21FTM    C10 5878   5.572   4.031   6.411  0.2831 -0.0185 -0.8582
   21FTM    C11 5879   6.061   3.825   6.062  0.5257  0.2073  0.0967
   21FTM    C12 5880   6.071   3.941   5.968 -0.2532 -0.3288 -0.2277
   22TPM     C1 5881   5.492   2.993   6.371  0.2673  0.0777 -0.1811
   22TPM     C2 5882   5.460   2.895   6.283  0.2009  0.0760 -0.1551
   22TPM     C3 5883   5.543   2.778   6.294  0.1451  0.0371 -0.1484
   22TPM     C4 5884   5.638   2.787   6.391  0.1690  0.0092 -0.1692
   22TPM     S1 5885   5.631   2.945   6.476  0.2647  0.0301 -0.1993
   23BDD     C1 5886   5.803   2.427   6.393  0.0573 -0.1229  0.0515
   23BDD     C2 5887   5.878   2.499   6.482  0.0242 -0.0263  0.0008
   23BDD     C3 5888   5.833   2.636   6.497  0.0044 -0.0154 -0.1483
   23BDD     C4 5889   5.724   2.666   6.421  0.0222 -0.1041 -0.2092
   23BDD     S1 5890   5.670   2.525   6.324  0.0656 -0.2071 -0.0840
   23BDD     C5 5891   5.995   2.445   6.555  0.0099  0.0597  0.0877
   23BDD     C6 5892   5.900   2.732   6.588 -0.0318  0.0824 -0.2249
   23BDD     O1 5893   5.861   2.850   6.601 -0.0490  0.0917 -0.3536
   23BDD     O2 5894   6.034   2.327   6.541  0.0272  0.0503  0.2164
   23BDD     C7 5895   6.016   2.678   6.661 -0.0460  0.1683 -0.1382
   23BDD     C8 5896   6.061   2.541   6.645 -0.0261  0.1575  0.0110
   23BDD     C9 5897   6.171   2.511   6.722 -0.0441  0.2460  0.0719
   23BDD     S2 5898   6.224   2.652   6.819 -0.0871  0.3491 -0.0533
   23BDD    C10 5899   6.092   2.750   6.749 -0.0789  0.2649 -0.1888
   23BDD    C11 5900   6.093   2.900   6.788 -0.2542 -0.4769  0.2811
   23BDD    C12 5901   6.056   2.954   6.929  0.1767 -0.0019 -0.1493
   23BDD    C13 5902   5.911   2.916   6.982 -0.2508  0.2577 -0.0227
   23BDD    C14 5903   5.788   2.953   6.899 -0.7590  0.0672  0.2902
   23BDD    C15 5904   5.770   3.106   6.873  0.1929  0.2949 -0.1547
   23BDD    C16 5905   5.646   3.154   6.797 -0.3482 -0.0949  0.1535
   23BDD    C17 5906   6.151   2.915   7.045 -0.5345  0.1252 -0.2252
   23BDD    C18 5907   6.296   2.965   7.044 -0.2595 -0.1214  0.5271
   23BDD    C19 5908   6.260   2.388   6.745  0.1769  0.8598 -0.2166
   23BDD    C20 5909   6.223   2.299   6.868  0.0094  0.2734 -0.5933
   23BDD    C21 5910   6.073   2.266   6.892 -0.3457 -0.2488 -0.6010
   23BDD    C22 5911   6.002   2.154   6.812  0.2393  0.0941 -0.5833
   23BDD    C23 5912   5.856   2.152   6.854  0.5519  0.4428  0.4123
   23BDD    C24 5913   5.771   2.053   6.772 -0.0135  0.3770 -0.1569
   23BDD    C25 5914   6.298   2.171   6.876 -0.2937  0.2515 -0.0586
   23BDD    C26 5915   6.446   2.176   6.895  0.1219  0.3591 -0.1345
   24TPM     C1 5916   5.797   2.288   6.338 -0.3288  0.5388 -0.1303
   24TPM     C2 5917   5.797   2.183   6.424 -0.4425  0.7253  0.1005
   24TPM     C3 5918   5.756   2.059   6.364 -0.1334  0.5461  0.2519
   24TPM     C4 5919   5.723   2.070   6.232  0.2163  0.2230  0.1363
   24TPM     S1 5920   5.743   2.239   6.173  0.1818  0.1191 -0.1748
   25BDTP    C1 5921   5.571   1.628   5.812 -0.1260 -0.0664  0.1506
   25BDTP    C2 5922   5.469   1.726   5.792 -0.1163 -0.0793  0.0334
   25BDTP    C3 5923   5.463   1.843   5.866 -0.1410 -0.0190 -0.0639
   25BDTP    C4 5924   5.561   1.866   5.964 -0.1769  0.0575 -0.0449
   25BDTP    C5 5925   5.663   1.768   5.983 -0.1867  0.0704  0.0722
   25BDTP    C6 5926   5.669   1.650   5.909 -0.1622  0.0102  0.1696
   25BDTP    C7 5927   5.575   1.979   6.053 -0.2070  0.1291 -0.1317
   25BDTP    C8 5928   5.681   1.972   6.137 -0.2388  0.1942 -0.0859
   25BDTP    S1 5929   5.778   1.819   6.115 -0.2345  0.1742  0.0737
   25BDTP    C9 5930   5.557   1.515   5.723 -0.0958 -0.1379  0.2375
   25BDTP   C10 5931   5.451   1.522   5.639 -0.0644 -0.2031  0.1917
   25BDTP    S2 5932   5.354   1.674   5.661 -0.0687 -0.1830  0.0320
   26FTM     S1 5933   5.371   2.111   5.861  0.1806  0.2324 -0.0831
   26FTM     C1 5934   5.193   2.133   5.842  0.1679  0.5555  0.3902
   26FTM     C2 5935   5.131   2.012   5.836 -0.0678  0.6663  0.5349
   26FTM     C3 5936   5.217   1.897   5.845 -0.2483  0.5103  0.2923
   26FTM     C4 5937   5.348   1.932   5.859 -0.1477  0.2724 -0.0490
   26FTM     F1 5938   4.994   1.998   5.822 -0.1339  0.9154  0.8955
   26FTM     C5 5939   5.137   2.272   5.856  0.0544 -0.3184 -0.1553
   26FTM     C6 5940   5.228   2.396   5.913  0.1985  0.4549  0.2857
   26FTM     C7 5941   5.141   2.523   5.916  0.2910  0.9247 -0.4165
   26FTM     C8 5942   5.135   2.590   5.780  0.5918 -0.5887 -0.2410
   26FTM     C9 5943   5.241   2.686   5.736 -0.5063 -0.0875 -0.2503
   26FTM    C10 5944   5.271   2.802   5.826  0.1601 -0.1346 -0.5976
   26FTM    C11 5945   5.281   2.359   6.054 -0.4578 -0.0884 -0.1289
   26FTM    C12 5946   5.375   2.465   6.114  0.0153 -0.4450 -0.5665
   27FTM     S1 5947   5.797   1.381   5.923 -0.1082  0.1734 -0.1392
   27FTM     C1 5948   5.974   1.394   5.890 -0.0282 -0.0085  0.2115
   27FTM     C2 5949   6.009   1.525   5.879  0.2178 -0.0242  0.7478
   27FTM     C3 5950   5.904   1.621   5.894  0.3557  0.1011  0.9147
   27FTM     C4 5951   5.784   1.561   5.919  0.2108  0.2166  0.4922
   27FTM     F1 5952   6.139   1.565   5.854  0.3327 -0.1531  1.1196
   27FTM     C5 5953   6.069   1.272   5.883  0.1849 -0.6367 -0.4976
   27FTM     C6 5954   6.023   1.138   5.950 -0.5665 -0.4336 -0.5929
   27FTM     C7 5955   6.148   1.042   5.939 -0.2744  0.3825 -0.0002
   27FTM     C8 5956   6.197   1.006   5.793 -0.9358 -0.1745 -0.2397
   27FTM     C9 5957   6.318   0.918   5.785  0.2736 -0.2467  0.6394
   27FTM    C10 5958   6.375   0.924   5.638 -1.1792  0.5976  0.3946
   27FTM    C11 5959   5.977   1.150   6.096  0.1099  0.1320  0.5725
   27FTM    C12 5960   6.074   1.209   6.204 -0.4150  0.1875 -0.0846
   28TPM     C1 5961   5.424   1.428   5.530 -0.2155 -0.0393 -0.0158
   28TPM     C2 5962   5.459   1.296   5.521 -0.2924 -0.0795  0.2427
   28TPM     C3 5963   5.432   1.238   5.392 -0.2509 -0.2960  0.3303
   28TPM     C4 5964   5.376   1.326   5.303 -0.1423 -0.4208  0.1386
   28TPM     S1 5965   5.354   1.489   5.376 -0.0838 -0.2734 -0.1699
   29BDD     C1 5966   5.194   1.285   4.957  0.0328 -0.1634  0.3060
   29BDD     C2 5967   5.320   1.235   4.939  0.0652 -0.0541  0.2316
   29BDD     C3 5968   5.400   1.235   5.060  0.1515  0.0543  0.1748
   29BDD     C4 5969   5.334   1.285   5.169  0.1835  0.0262  0.2068
   29BDD     S1 5970   5.167   1.335   5.128  0.1081 -0.1381  0.3101
   29BDD     C5 5971   5.371   1.186   4.809  0.0182 -0.0454  0.2098
   29BDD     C6 5972   5.539   1.185   5.062  0.1991  0.1819  0.0908
   29BDD     O1 5973   5.608   1.185   5.167  0.2735  0.2754  0.0418
   29BDD     O2 5974   5.301   1.187   4.705 -0.0561 -0.1389  0.2587
   29BDD     C7 5975   5.590   1.136   4.933  0.1520  0.1907  0.0690
   29BDD     C8 5976   5.510   1.137   4.812  0.0657  0.0823  0.1256
   29BDD     C9 5977   5.576   1.087   4.703  0.0337  0.1104  0.0935
   29BDD     S2 5978   5.743   1.037   4.744  0.1093  0.2746 -0.0097
   29BDD    C10 5979   5.716   1.086   4.914  0.1845  0.2999 -0.0057
   29BDD    C11 5980   5.829   1.044   5.009  0.4704 -0.5774 -0.9885
   29BDD    C12 5981   5.946   1.138   5.033  0.1441  0.0944  0.8030
   29BDD    C13 5982   6.051   1.081   5.126  0.0190  0.0468 -0.7296
   29BDD    C14 5983   6.129   0.965   5.078 -0.2219 -0.1503  0.3316
   29BDD    C15 5984   6.187   0.908   5.207  0.1711  0.6383 -0.3672
   29BDD    C16 5985   6.244   0.772   5.159 -0.2016  0.6752  0.1059
   29BDD    C17 5986   6.001   1.210   4.912 -0.9094  0.2614 -0.0959
   29BDD    C18 5987   6.097   1.325   4.943 -0.2504 -0.1952  0.0596
   29BDD    C19 5988   5.545   1.065   4.551 -0.6112 -0.2894 -0.2499
   29BDD    C20 5989   5.544   1.182   4.457  0.2095 -0.4672  0.1620
   29BDD    C21 5990   5.675   1.272   4.457  0.7482  0.0028 -0.9395
   29BDD    C22 5991   5.648   1.415   4.405 -0.3426  0.1250  0.1050
   29BDD    C23 5992   5.773   1.514   4.387  0.9920  0.6346 -0.0896
   29BDD    C24 5993   5.715   1.635   4.318  0.1841 -0.1640  0.5376
   29BDD    C25 5994   5.485   1.151   4.310 -0.1489  0.0076 -1.0350
   29BDD    C26 5995   5.353   1.073   4.305 -0.3561  0.3727 -0.0315
   30TPM     C1 5996   5.082   1.328   4.874  0.1046  0.2790 -0.0958
   30TPM     C2 5997   5.029   1.245   4.780  0.0725  0.4072 -0.1926
   30TPM     C3 5998   4.905   1.292   4.723  0.0318  0.4660 -0.0561
   30TPM     C4 5999   4.864   1.412   4.773  0.0329  0.3825  0.1448
   30TPM     S1 6000   4.979   1.474   4.898  0.0856  0.2219  0.1776
   31BDTP    C1 6001   4.336   1.714   4.600 -0.1202  0.0545 -0.0821
   31BDTP    C2 6002   4.414   1.819   4.655 -0.1680 -0.0137  0.1184
   31BDTP    C3 6003   4.541   1.798   4.708 -0.2425 -0.0913  0.2681
   31BDTP    C4 6004   4.593   1.668   4.707 -0.2716 -0.1024  0.2183
   31BDTP    C5 6005   4.514   1.562   4.652 -0.2240 -0.0342  0.0178
   31BDTP    C6 6006   4.388   1.583   4.599 -0.1494  0.0434 -0.1320
   31BDTP    C7 6007   4.721   1.622   4.756 -0.3470 -0.1769  0.3476
   31BDTP    C8 6008   4.743   1.489   4.740 -0.3581 -0.1682  0.2552
   31BDTP    S1 6009   4.603   1.403   4.662 -0.2745 -0.0643 -0.0087
   31BDTP    C9 6010   4.207   1.759   4.551 -0.0448  0.1290 -0.2115
   31BDTP   C10 6011   4.186   1.892   4.567 -0.0337  0.1203 -0.1191
   31BDTP    S2 6012   4.325   1.978   4.645 -0.1173  0.0164  0.1448
   32FTM     S1 6013   4.699   1.904   4.921  0.0139 -0.0135 -0.1263
   32FTM     C1 6014   4.764   2.070   4.900 -0.0447  0.0308  0.0338
   32FTM     C2 6015   4.718   2.123   4.783 -0.1605  0.1734  0.1429
   32FTM     C3 6016   4.632   2.039   4.705 -0.2095  0.2549  0.1099
   32FTM     C4 6017   4.611   1.919   4.764 -0.1286  0.1721 -0.0295
   32FTM     F1 6018   4.752   2.250   4.740 -0.2289  0.2384  0.2795
   32FTM     C5 6019   4.866   2.134   4.985 -0.4418  0.5950 -0.8484
   32FTM     C6 6020   4.814   2.196   5.118 -0.1418 -0.0684 -0.2333
   32FTM     C7 6021   4.758   2.100   5.218 -0.2091  0.1603 -0.3237
   32FTM     C8 6022   4.866   2.013   5.298 -0.0777 -1.1184 -0.2307
   32FTM     C9 6023   4.829   1.876   5.352 -0.1684 -0.4276  0.6149
   32FTM    C10 6024   4.940   1.822   5.432 -0.4100 -0.3570 -0.1808
   32FTM    C11 6025   4.739   2.327   5.112  0.8619  0.3461 -0.0575
   32FTM    C12 6026   4.815   2.456   5.090 -0.3809  0.1902  0.0954
   33FTM     S1 6027   4.277   1.313   4.635 -0.0639  0.1433  0.4985
   33FTM     C1 6028   4.173   1.258   4.498 -0.1658  0.5966  0.3905
   33FTM     C2 6029   4.173   1.352   4.400  0.1134  0.7301  0.5151
   33FTM     C3 6030   4.251   1.470   4.424  0.4165  0.4938  0.6974
   33FTM     C4 6031   4.313   1.466   4.545  0.3676  0.1687  0.7133
   33FTM     F1 6032   4.102   1.337   4.281  0.1112  1.0743  0.4710
   33FTM     C5 6033   4.138   1.112   4.500  0.1550 -0.0736 -0.8225
   33FTM     C6 6034   4.222   1.010   4.420 -0.0769 -0.3339  0.1218
   33FTM     C7 6035   4.159   0.868   4.412 -0.0596  0.0388 -0.1924
   33FTM     C8 6036   4.022   0.874   4.343 -0.4106  0.6288  0.2911
   33FTM     C9 6037   4.007   0.928   4.198 -0.1729  0.3727 -0.7567
   33FTM    C10 6038   4.002   0.824   4.089  0.0154  0.1896  0.0973
   33FTM    C11 6039   4.377   1.019   4.419 -0.8188 -0.7091 -0.3925
   33FTM    C12 6040   4.452   0.967   4.541 -0.1712  0.6593 -0.3906
   34TPM     C1 6041   4.058   1.958   4.534 -0.1728 -0.2687 -0.1006
   34TPM     C2 6042   4.011   2.079   4.576 -0.1556 -0.1490 -0.4263
   34TPM     C3 6043   3.871   2.100   4.545 -0.1981 -0.2835 -0.3260
   34TPM     C4 6044   3.813   1.995   4.481 -0.2478 -0.5059  0.0760
   34TPM     S1 6045   3.929   1.860   4.454 -0.2446 -0.5631  0.3615
   35BDD     C1 6046   3.442   1.871   4.503  0.2050  0.1426 -0.1427
   35BDD     C2 6047   3.433   1.998   4.453  0.2162  0.1519 -0.1211
   35BDD     C3 6048   3.562   2.062   4.434  0.2184  0.1700 -0.0432
   35BDD     C4 6049   3.668   1.983   4.471  0.2088  0.1742 -0.0067
   35BDD     S1 6050   3.612   1.823   4.531  0.1965  0.1557 -0.0672
   35BDD     C5 6051   3.306   2.065   4.420  0.2251  0.1447 -0.1713
   35BDD     C6 6052   3.576   2.199   4.381  0.2298  0.1825 -0.0080
   35BDD     O1 6053   3.688   2.254   4.366  0.2317  0.1981  0.0591
   35BDD     O2 6054   3.194   2.010   4.435  0.2233  0.1291 -0.2384
   35BDD     C7 6055   3.449   2.266   4.348  0.2388  0.1752 -0.0582
   35BDD     C8 6056   3.320   2.202   4.367  0.2366  0.1571 -0.1360
   35BDD     C9 6057   3.214   2.281   4.330  0.2460  0.1530 -0.1725
   35BDD     S2 6058   3.269   2.441   4.270  0.2584  0.1714 -0.1120
   35BDD    C10 6059   3.440   2.393   4.298  0.2499  0.1846 -0.0364
   35BDD    C11 6060   3.540   2.491   4.248  0.3165  0.0193  0.3745
   35BDD    C12 6061   3.588   2.601   4.339 -0.3451 -0.3493 -0.4001
   35BDD    C13 6062   3.726   2.657   4.295 -0.3320  0.1276 -0.5647
   35BDD    C14 6063   3.803   2.739   4.403  0.6001  0.6642 -0.2639
   35BDD    C15 6064   3.951   2.752   4.370 -0.7001 -0.2232 -0.5264
   35BDD    C16 6065   4.021   2.858   4.457  0.1438  0.1727 -0.1059
   35BDD    C17 6066   3.477   2.695   4.398  0.4419  0.3437 -0.1384
   35BDD    C18 6067   3.419   2.807   4.319 -0.0002 -0.5977 -0.4981
   35BDD    C19 6068   3.066   2.266   4.319  0.3391  0.4681 -0.7275
   35BDD    C20 6069   2.973   2.283   4.451  0.4144  0.1277 -0.1443
   35BDD    C21 6070   2.967   2.433   4.492  0.5002  0.3602  0.0673
   35BDD    C22 6071   2.873   2.530   4.417 -0.8256 -0.0593  0.2158
   35BDD    C23 6072   2.732   2.556   4.468 -0.0477  0.3543 -0.4969
   35BDD    C24 6073   2.723   2.629   4.602  0.4705 -0.5873 -0.3702
   35BDD    C25 6074   2.836   2.206   4.459 -0.1863 -0.4260 -0.8804
   35BDD    C26 6075   2.838   2.054   4.416  0.5020 -0.5505  0.2414
   36TPM     C1 6076   3.346   1.765   4.534  0.1072  0.3960 -0.4548
   36TPM     C2 6077   3.385   1.668   4.622  0.4590  0.4930 -0.4983
   36TPM     C3 6078   3.281   1.573   4.652  0.6952  0.3045 -0.2719
   36TPM     C4 6079   3.164   1.597   4.586  0.5235  0.0638 -0.0557
   36TPM     S1 6080   3.175   1.743   4.481  0.0464  0.0566 -0.1219
   37BDTP    C1 6081   2.632   1.264   4.636  0.0925 -0.0841  0.1678
   37BDTP    C2 6082   2.593   1.373   4.553  0.0781 -0.1046  0.1476
   37BDTP    C3 6083   2.681   1.472   4.514  0.0623 -0.0941  0.1385
   37BDTP    C4 6084   2.815   1.464   4.558  0.0606 -0.0618  0.1501
   37BDTP    C5 6085   2.853   1.355   4.641  0.0750 -0.0413  0.1702
   37BDTP    C6 6086   2.765   1.256   4.681  0.0908 -0.0518  0.1792
   37BDTP    C7 6087   2.924   1.555   4.530  0.0455 -0.0456  0.1438
   37BDTP    C8 6088   3.042   1.519   4.587  0.0478 -0.0142  0.1583
   37BDTP    S1 6089   3.030   1.366   4.685  0.0694 -0.0008  0.1817
   37BDTP    C9 6090   2.522   1.173   4.664  0.1076 -0.1003  0.1739
   37BDTP   C10 6091   2.405   1.209   4.607  0.1052 -0.1318  0.1596
   37BDTP    S2 6092   2.416   1.362   4.509  0.0836 -0.1451  0.1362
   38FTM     S1 6093   2.610   1.518   4.245  0.2946  0.1832 -0.2214
   38FTM     C1 6094   2.527   1.673   4.205 -0.2952 -0.0987 -0.1164
   38FTM     C2 6095   2.525   1.754   4.314 -0.7138 -0.2267 -0.0265
   38FTM     C3 6096   2.586   1.701   4.433 -0.6040 -0.1161 -0.0335
   38FTM     C4 6097   2.636   1.576   4.414 -0.0845  0.1038 -0.1321
   38FTM     F1 6098   2.468   1.880   4.314 -1.2211 -0.4517  0.0677
   38FTM     C5 6099   2.466   1.699   4.067  0.3877 -1.1627  0.2672
   38FTM     C6 6100   2.365   1.600   4.001 -0.3199 -0.1151 -0.6280
   38FTM     C7 6101   2.233   1.583   4.076  0.0446  0.2269 -0.1277
   38FTM     C8 6102   2.226   1.546   4.220  0.1376  0.2367 -0.5837
   38FTM     C9 6103   2.097   1.582   4.301  0.0001  0.2786  0.0485
   38FTM    C10 6104   2.103   1.514   4.438  0.3752  0.6827  0.6412
   38FTM    C11 6105   2.356   1.636   3.849 -0.3147  0.0010 -0.5328
   38FTM    C12 6106   2.257   1.557   3.769 -0.7139 -0.1165 -0.5665
   39FTM     S1 6107   2.886   1.217   4.927  0.1536 -0.2774  0.0439
   39FTM     C1 6108   2.873   1.053   5.000  0.0618 -0.1506  0.3128
   39FTM     C2 6109   2.811   0.969   4.914  0.0483 -0.2669  0.4359
   39FTM     C3 6110   2.770   1.025   4.788  0.1072 -0.4571  0.3308
   39FTM     C4 6111   2.803   1.157   4.778  0.1677 -0.4874  0.1207
   39FTM     F1 6112   2.786   0.836   4.943 -0.0181 -0.2080  0.6508
   39FTM     C5 6113   2.938   1.030   5.133  0.3432 -0.0079  0.1625
   39FTM     C6 6114   3.080   1.085   5.167  0.1045  0.4030  0.2966
   39FTM     C7 6115   3.107   1.099   5.323 -0.6111 -0.0914  0.6649
   39FTM     C8 6116   3.036   1.204   5.404  0.3924 -0.1241  0.5871
   39FTM     C9 6117   3.058   1.346   5.342  0.3177  0.1754  0.4993
   39FTM    C10 6118   2.994   1.457   5.416  0.3118 -0.4736 -0.1895
   39FTM    C11 6119   3.183   1.033   5.058 -0.0992  0.3669 -0.0397
   39FTM    C12 6120   3.331   1.075   5.073  0.0120  0.1658  0.6487
   40TPM     C1 6121   2.280   1.146   4.610 -0.3790  0.3110  0.1870
   40TPM     C2 6122   2.210   1.100   4.718 -0.6430  0.3465  0.0314
   40TPM     C3 6123   2.072   1.072   4.689 -0.5192  0.1208 -0.3545
   40TPM     C4 6124   2.037   1.096   4.559 -0.1608 -0.0866 -0.4930
   40TPM     S1 6125   2.177   1.156   4.463  0.0498 -0.0126 -0.1441
   41BDD     C1 6126   1.700   1.210   4.398 -0.0647 -0.0347  0.0631
   41BDD     C2 6127   1.666   1.104   4.477 -0.0888 -0.0205  0.0716
   41BDD     C3 6128   1.779   1.044   4.546 -0.1056 -0.0268  0.0938
   41BDD     C4 6129   1.898   1.106   4.518 -0.0939 -0.0456  0.1018
   41BDD     S1 6130   1.876   1.243   4.404 -0.0612 -0.0567  0.0823
   41BDD     C5 6131   1.528   1.053   4.492 -0.0974 -0.0008  0.0597
   41BDD     C6 6132   1.766   0.929   4.637 -0.1325 -0.0139  0.1062
   41BDD     O1 6133   1.863   0.878   4.696 -0.1469 -0.0193  0.1252
   41BDD     O2 6134   1.431   1.104   4.433 -0.0830  0.0046  0.0405
   41BDD     C7 6135   1.628   0.878   4.652 -0.1411  0.0058  0.0944
   41BDD     C8 6136   1.515   0.937   4.583 -0.1244  0.0121  0.0722
   41BDD     C9 6137   1.396   0.875   4.611 -0.1360  0.0308  0.0643
   41BDD     S2 6138   1.418   0.739   4.725 -0.1687  0.0420  0.0837
   41BDD    C10 6139   1.594   0.772   4.731 -0.1653  0.0199  0.1030
   41BDD    C11 6140   1.670   0.674   4.815  0.2462  0.3078  0.2860
   41BDD    C12 6141   1.655   0.673   4.965  0.1260  0.2921 -0.0121
   41BDD    C13 6142   1.678   0.807   5.040  0.6746  0.4754 -0.2959
   41BDD    C14 6143   1.812   0.874   5.023 -0.3476 -0.4659 -0.2339
   41BDD    C15 6144   1.810   1.027   5.050  0.1425  0.2455  0.3589
   41BDD    C16 6145   1.944   1.092   5.048 -0.7957 -0.3117 -0.4798
   41BDD    C17 6146   1.747   0.559   5.009  0.6308  0.2967  0.6854
   41BDD    C18 6147   1.742   0.501   5.150  0.3952  0.1394  0.4021
   41BDD    C19 6148   1.250   0.894   4.570 -0.0924 -0.2001  0.5430
   41BDD    C20 6149   1.148   0.930   4.687 -0.9810  0.2306 -0.2620
   41BDD    C21 6150   1.155   1.074   4.735 -0.3157 -0.1320 -0.3285
   41BDD    C22 6151   1.272   1.108   4.835 -0.1021 -0.8059 -0.5093
   41BDD    C23 6152   1.293   1.026   4.962  0.8730  0.0584 -0.8677
   41BDD    C24 6153   1.382   1.085   5.069 -0.5600  0.2103 -0.8228
   41BDD    C25 6154   1.012   0.895   4.635  0.4355 -0.3571  0.3691
   41BDD    C26 6155   0.902   0.858   4.734  0.0446 -0.2373 -0.9248
   42TPM     C1 6156   1.637   1.303   4.303 -0.0195  0.2650 -0.0680
   42TPM     C2 6157   1.526   1.273   4.230  0.2370 -0.1660 -0.2860
   42TPM     C3 6158   1.498   1.367   4.124  0.1167 -0.3105 -0.3848
   42TPM     C4 6159   1.588   1.470   4.117 -0.2316  0.0103 -0.2418
   42TPM     S1 6160   1.716   1.455   4.244 -0.4362  0.5238  0.0306
   43BDTP    C1 6161   1.586   1.919   3.676  0.1330 -0.1935 -0.0339
   43BDTP    C2 6162   1.695   1.960   3.759 -0.0299 -0.0424  0.1085
   43BDTP    C3 6163   1.735   1.889   3.871 -0.1223  0.0508  0.2000
   43BDTP    C4 6164   1.664   1.773   3.905 -0.0509 -0.0075  0.1489
   43BDTP    C5 6165   1.555   1.732   3.822  0.1121 -0.1585  0.0066
   43BDTP    C6 6166   1.515   1.803   3.710  0.2045 -0.2517 -0.0851
   43BDTP    C7 6167   1.686   1.683   4.016 -0.1225  0.0675  0.2239
   43BDTP    C8 6168   1.601   1.578   4.022 -0.0225 -0.0188  0.1456
   43BDTP    S1 6169   1.479   1.578   3.886  0.1766 -0.2072 -0.0340
   43BDTP    C9 6170   1.564   2.009   3.565  0.2047 -0.2685 -0.1088
   43BDTP   C10 6171   1.650   2.114   3.559  0.1047 -0.1822 -0.0306
   43BDTP    S2 6172   1.771   2.114   3.695 -0.0944  0.0063  0.1491
   44FTM     S1 6173   1.900   1.927   4.108 -0.0683  0.0909  0.1732
   44FTM     C1 6174   2.077   1.948   4.082 -0.0657  0.3722  0.4021
   44FTM     C2 6175   2.105   1.942   3.949  0.1299  0.3031  0.4460
   44FTM     C3 6176   1.994   1.921   3.862  0.2858  0.0337  0.3077
   44FTM     C4 6177   1.876   1.911   3.930  0.2070 -0.1081  0.1528
   44FTM     F1 6178   2.234   1.954   3.899  0.1793  0.4797  0.6142
   44FTM     C5 6179   2.170   1.965   4.201  0.2461  0.2699 -0.0634
   44FTM     C6 6180   2.213   2.108   4.240  0.2792  0.3962 -0.2263
   44FTM     C7 6181   2.303   2.187   4.136  0.3213 -0.3884 -0.5222
   44FTM     C8 6182   2.423   2.114   4.077 -0.2300 -0.1151 -0.3826
   44FTM     C9 6183   2.472   2.162   3.947  0.1411 -0.0197 -0.2069
   44FTM    C10 6184   2.594   2.091   3.911  0.3386 -0.5717 -0.2469
   44FTM    C11 6185   2.108   2.207   4.294 -0.0476  0.9504 -0.2778
   44FTM    C12 6186   2.034   2.164   4.425  0.2248  0.1297 -0.1624
   45FTM     S1 6187   1.427   1.703   3.461 -0.2061 -0.2949  0.1572
   45FTM     C1 6188   1.251   1.676   3.439 -0.2631  0.2371 -0.0852
   45FTM     C2 6189   1.184   1.711   3.552 -0.3542  0.7712 -0.3006
   45FTM     C3 6190   1.264   1.761   3.660 -0.3845  0.7986 -0.2907
   45FTM     C4 6191   1.397   1.763   3.629 -0.3143  0.2681 -0.0600
   45FTM     F1 6192   1.046   1.701   3.565 -0.4156  1.2670 -0.5198
   45FTM     C5 6193   1.190   1.629   3.308  0.0743 -0.3017 -0.0838
   45FTM     C6 6194   1.159   1.478   3.296  0.2946  0.3170  0.0858
   45FTM     C7 6195   1.074   1.408   3.400  0.0413 -0.0623 -0.4243
   45FTM     C8 6196   0.928   1.441   3.395 -0.8183  0.1221 -0.2209
   45FTM     C9 6197   0.834   1.392   3.504 -0.6586 -0.3227 -0.5823
   45FTM    C10 6198   0.867   1.424   3.653  0.2715 -0.1005 -0.3831
   45FTM    C11 6199   1.285   1.394   3.273 -0.1220  0.9501  0.0666
   45FTM    C12 6200   1.381   1.406   3.156  0.5385  0.5591  0.4487
   46TPM     C1 6201   1.652   2.227   3.472 -0.5822  0.3346  0.6378
   46TPM     C2 6202   1.672   2.355   3.514 -0.8585  0.4278  0.4935
   46TPM     C3 6203   1.635   2.455   3.417 -0.5030  0.2233  0.1436
   46TPM     C4 6204   1.587   2.403   3.301  0.0443 -0.0257  0.0210
   46TPM     S1 6205   1.584   2.223   3.305  0.1541 -0.0214  0.3405
   47BDD     C1 6206   1.542   2.674   3.022 -0.0928  0.0058  0.0437
   47BDD     C2 6207   1.447   2.579   2.994 -0.0700 -0.0183  0.0487
   47BDD     C3 6208   1.444   2.471   3.092 -0.0620 -0.0004  0.0689
   47BDD     C4 6209   1.536   2.485   3.191 -0.0787  0.0372  0.0789
   47BDD     S1 6210   1.633   2.635   3.171 -0.1057  0.0525  0.0638
   47BDD     C5 6211   1.356   2.584   2.878 -0.0548 -0.0587  0.0350
   47BDD     C6 6212   1.350   2.358   3.082 -0.0380 -0.0210  0.0773
   47BDD     O1 6213   1.347   2.265   3.165 -0.0310 -0.0056  0.0947
   47BDD     O2 6214   1.359   2.677   2.794 -0.0618 -0.0741  0.0176
   47BDD     C7 6215   1.259   2.363   2.965 -0.0228 -0.0615  0.0638
   47BDD     C8 6216   1.262   2.470   2.868 -0.0309 -0.0795  0.0436
   47BDD     C9 6217   1.170   2.456   2.768 -0.0142 -0.1169  0.0335
   47BDD     S2 6218   1.073   2.307   2.789  0.0128 -0.1324  0.0486
   47BDD    C10 6219   1.164   2.268   2.938 -0.0001 -0.0856  0.0687
   47BDD    C11 6220   1.088   2.165   3.026  0.2474  0.7256  0.7845
   47BDD    C12 6221   1.107   2.012   3.006  0.3110 -0.2803 -0.0165
   47BDD    C13 6222   1.003   1.919   3.066  0.0317  0.9340  0.2280
   47BDD    C14 6223   0.855   1.947   3.028 -0.0275 -0.4499  0.1125
   47BDD    C15 6224   0.764   1.840   3.088  0.5473  0.2783 -0.7579
   47BDD    C16 6225   0.631   1.837   3.026  0.2797  0.2047  0.6100
   47BDD    C17 6226   1.251   1.985   3.044  0.3136  0.1105 -0.3738
   47BDD    C18 6227   1.311   1.841   3.027  0.1575  0.3802 -0.0953
   47BDD    C19 6228   1.145   2.536   2.639 -0.1718 -0.8313 -0.1745
   47BDD    C20 6229   1.017   2.619   2.647 -0.0302 -0.0069  0.0295
   47BDD    C21 6230   1.024   2.744   2.736 -0.3400  0.6401  0.5546
   47BDD    C22 6231   0.917   2.853   2.716  0.3243  0.3017  0.4961
   47BDD    C23 6232   0.956   2.989   2.781  0.4746  0.6023  0.1485
   47BDD    C24 6233   0.837   3.086   2.787 -0.9201 -0.0188  0.0609
   47BDD    C25 6234   0.883   2.553   2.653  0.1594  0.5272 -0.0649
   47BDD    C26 6235   0.851   2.464   2.529 -0.2504 -0.2058 -0.2769
   48TPM     C1 6236   1.590   2.795   2.953 -0.2802  0.4324  0.3207
   48TPM     C2 6237   1.503   2.896   2.923 -0.2016  0.5063  0.3431
   48TPM     C3 6238   1.568   3.023   2.901 -0.0705  0.3828  0.0055
   48TPM     C4 6239   1.703   3.018   2.913 -0.0490  0.2147 -0.2742
   48TPM     S1 6240   1.761   2.852   2.954 -0.1939  0.1993 -0.1319
   49BDTP    C1 6241   2.117   3.473   2.791 -0.1318  0.0148  0.0942
   49BDTP    C2 6242   2.193   3.384   2.871 -0.0531 -0.0200 -0.0179
   49BDTP    C3 6243   2.140   3.266   2.924  0.0212 -0.0826 -0.0827
   49BDTP    C4 6244   2.006   3.236   2.895  0.0177 -0.1124 -0.0347
   49BDTP    C5 6245   1.929   3.325   2.814 -0.0610 -0.0776  0.0774
   49BDTP    C6 6246   1.982   3.442   2.762 -0.1353 -0.0150  0.1422
   49BDTP    C7 6247   1.929   3.120   2.938  0.0863 -0.1768 -0.0854
   49BDTP    C8 6248   1.801   3.119   2.894  0.0630 -0.1918 -0.0176
   49BDTP    S1 6249   1.759   3.263   2.792 -0.0489 -0.1265  0.1199
   49BDTP    C9 6250   2.193   3.588   2.748 -0.2003  0.0792  0.1449
   49BDTP   C10 6251   2.321   3.590   2.792 -0.1771  0.0942  0.0771
   49BDTP    S2 6252   2.363   3.445   2.894 -0.0652  0.0289 -0.0605
   50FTM     S1 6253   2.234   3.001   2.976  0.2659 -0.0413 -0.1823
   50FTM     C1 6254   2.348   2.981   3.113  0.0341 -0.3706 -0.0343
   50FTM     C2 6255   2.372   3.101   3.172 -0.0298 -0.5043  0.2662
   50FTM     C3 6256   2.303   3.214   3.116  0.0947 -0.3622  0.3963
   50FTM     C4 6257   2.225   3.178   3.010  0.2592 -0.1116  0.1888
   50FTM     F1 6258   2.456   3.116   3.281 -0.2047 -0.7632  0.4410
   50FTM     C5 6259   2.397   2.845   3.163 -0.2591 -0.4447  0.6281
   50FTM     C6 6260   2.322   2.718   3.118  0.4048  0.6566  0.4438
   50FTM     C7 6261   2.182   2.694   3.175  0.2936 -0.0802 -0.3565
   50FTM     C8 6262   2.171   2.656   3.326  0.1450  0.1101 -0.1286
   50FTM     C9 6263   2.021   2.647   3.364 -0.1818 -0.3546  0.1751
   50FTM    C10 6264   2.017   2.641   3.516  0.5299  0.3068  0.6527
   50FTM    C11 6265   2.322   2.678   2.973 -0.2319 -0.2562 -0.3811
   50FTM    C12 6266   2.457   2.679   2.898  0.1465  0.2965  0.0016
   51FTM     S1 6267   1.909   3.510   2.497 -0.0658  0.1120 -0.0025
   51FTM     C1 6268   1.764   3.614   2.474  0.0215  0.1938 -0.1924
   51FTM     C2 6269   1.713   3.650   2.595 -0.1834  0.1277 -0.2586
   51FTM     C3 6270   1.782   3.599   2.710 -0.4152  0.0123 -0.1678
   51FTM     C4 6271   1.890   3.523   2.676 -0.3869 -0.0108 -0.0276
   51FTM     F1 6272   1.600   3.730   2.609 -0.1732  0.1679 -0.4052
   51FTM     C5 6273   1.721   3.662   2.337  0.0090  0.2873  0.1641
   51FTM     C6 6274   1.626   3.568   2.260  0.1438 -0.8643  1.1029
   51FTM     C7 6275   1.665   3.415   2.234 -0.6800 -0.2269 -0.3855
   51FTM     C8 6276   1.808   3.371   2.191  0.0577 -0.6221 -0.0122
   51FTM     C9 6277   1.872   3.427   2.064 -0.0633  0.6073  0.1351
   51FTM    C10 6278   2.012   3.381   2.061  0.0021 -0.0884 -0.4712
   51FTM    C11 6279   1.467   3.565   2.289 -0.7466 -0.2136  0.0991
   51FTM    C12 6280   1.404   3.705   2.286  0.2342 -0.5951  0.1301
   52TPM     C1 6281   2.431   3.680   2.760  0.4709 -0.1790  0.2314
   52TPM     C2 6282   2.547   3.696   2.829  0.6682 -0.1742 -0.0985
   52TPM     C3 6283   2.622   3.813   2.790  0.3868  0.0146 -0.0792
   52TPM     C4 6284   2.563   3.886   2.691 -0.0253  0.1540  0.2657
   52TPM     S1 6285   2.406   3.812   2.639 -0.0902  0.0566  0.5950
   53BDD     C1 6286   2.589   4.260   2.582  0.1970 -0.0683  0.0810
   53BDD     C2 6287   2.717   4.213   2.586  0.1804 -0.1224 -0.0125
   53BDD     C3 6288   2.727   4.074   2.627  0.1445 -0.1550 -0.1145
   53BDD     C4 6289   2.605   4.017   2.654  0.1343 -0.1253 -0.0975
   53BDD     S1 6290   2.471   4.133   2.629  0.1689 -0.0546  0.0475
   53BDD     C5 6291   2.836   4.294   2.553  0.1969 -0.1460 -0.0113
   53BDD     C6 6292   2.856   4.003   2.639  0.1217 -0.2143 -0.2252
   53BDD     O1 6293   2.864   3.883   2.674  0.0907 -0.2425 -0.3132
   53BDD     O2 6294   2.828   4.414   2.517  0.2279 -0.1180  0.0768
   53BDD     C7 6295   2.975   4.084   2.605  0.1382 -0.2381 -0.2239
   53BDD     C8 6296   2.965   4.223   2.564  0.1740 -0.2054 -0.1219
   53BDD     C9 6297   3.087   4.280   2.537  0.1842 -0.2352 -0.1389
   53BDD     S2 6298   3.221   4.164   2.562  0.1496 -0.3059 -0.2839
   53BDD    C10 6299   3.103   4.037   2.609  0.1215 -0.2922 -0.3173
   53BDD    C11 6300   3.166   3.908   2.645  0.1621  0.7802 -1.1579
   53BDD    C12 6301   3.158   3.793   2.553 -0.0747  0.8530  0.7056
   53BDD    C13 6302   3.260   3.805   2.433  0.7833 -0.0666  0.1873
   53BDD    C14 6303   3.410   3.809   2.453 -0.1972  0.0683  0.2686
   53BDD    C15 6304   3.496   3.858   2.336  0.3296  0.2042 -0.6824
   53BDD    C16 6305   3.497   4.002   2.305  0.2829 -0.2793 -0.2676
   53BDD    C17 6306   3.171   3.647   2.609 -0.2698 -0.0502  0.7758
   53BDD    C18 6307   3.098   3.601   2.733  0.5414 -0.2982 -0.0241
   53BDD    C19 6308   3.139   4.419   2.493 -0.3377  0.1983  0.1054
   53BDD    C20 6309   3.088   4.466   2.357 -0.8016 -0.4764 -0.1320
   53BDD    C21 6310   3.135   4.613   2.333 -0.2743  0.0027  0.0872
   53BDD    C22 6311   3.105   4.724   2.435 -0.0556  0.4096  0.2782
   53BDD    C23 6312   3.166   4.862   2.404  0.5286  0.5955 -0.3212
   53BDD    C24 6313   3.094   4.959   2.493  0.0383 -0.5465 -0.2223
   53BDD    C25 6314   3.120   4.374   2.236  0.1724 -0.0134  0.7999
   53BDD    C26 6315   3.271   4.352   2.208 -0.2851  0.2763 -0.2584
   54TPM     C1 6316   2.527   4.390   2.555  0.0036 -0.1394 -0.0620
   54TPM     C2 6317   2.575   4.506   2.609 -0.1939 -0.1596  0.1555
   54TPM     C3 6318   2.493   4.621   2.582 -0.3960 -0.2468  0.3802
   54TPM     C4 6319   2.384   4.594   2.506 -0.3526 -0.2926  0.3341
   54TPM     S1 6320   2.375   4.418   2.463 -0.0509 -0.2294  0.0006
   55BDTP    C1 6321   1.975   4.998   2.256 -0.1500  0.2241  0.1063
   55BDTP    C2 6322   1.901   4.876   2.263 -0.0261  0.1378 -0.0709
   55BDTP    C3 6323   1.953   4.759   2.315  0.0823  0.1230 -0.2116
   55BDTP    C4 6324   2.085   4.762   2.363  0.0680  0.1968 -0.1760
   55BDTP    C5 6325   2.160   4.883   2.357 -0.0560  0.2831  0.0014
   55BDTP    C6 6326   2.107   5.000   2.304 -0.1644  0.2980  0.1421
   55BDTP    C7 6327   2.161   4.653   2.422  0.1661  0.1978 -0.2999
   55BDTP    C8 6328   2.287   4.687   2.459  0.1223  0.2798 -0.2250
   55BDTP    S1 6329   2.327   4.861   2.425 -0.0494  0.3672  0.0129
   55BDTP    C9 6330   1.899   5.106   2.197 -0.2482  0.2230  0.2303
   55BDTP   C10 6331   1.773   5.073   2.160 -0.2044  0.1410  0.1554
   55BDTP    S2 6332   1.733   4.899   2.194 -0.0327  0.0537 -0.0825
   56FTM     S1 6333   1.870   4.485   2.261  0.0966  0.2013 -0.0556
   56FTM     C1 6334   1.746   4.418   2.373 -0.1123  0.4064 -0.1631
   56FTM     C2 6335   1.708   4.513   2.462 -0.3979  0.6199 -0.5088
   56FTM     C3 6336   1.771   4.641   2.449 -0.4699  0.6363 -0.7061
   56FTM     C4 6337   1.861   4.644   2.347 -0.2317  0.4291 -0.5051
   56FTM     F1 6338   1.613   4.490   2.560 -0.6110  0.8129 -0.6669
   56FTM     C5 6339   1.702   4.271   2.372 -0.7558 -0.4676  0.2430
   56FTM     C6 6340   1.568   4.234   2.293 -0.3894  0.7624 -0.3484
   56FTM     C7 6341   1.437   4.295   2.342 -0.0949  0.3855 -0.0385
   56FTM     C8 6342   1.375   4.256   2.477  0.3763 -0.6146 -0.3903
   56FTM     C9 6343   1.338   4.112   2.502  1.0696  0.9712 -0.0689
   56FTM    C10 6344   1.322   4.078   2.648 -0.3507  0.0213 -0.7147
   56FTM    C11 6345   1.584   4.253   2.142  0.6388 -0.2591 -0.4371
   56FTM    C12 6346   1.685   4.158   2.076 -0.0481 -0.0525  0.7538
   57FTM     S1 6347   2.117   5.292   2.312 -0.0065 -0.4637 -0.1016
   57FTM     C1 6348   2.276   5.371   2.285 -0.1975 -0.0974 -0.1600
   57FTM     C2 6349   2.373   5.277   2.267 -0.0140  0.1249 -0.3517
   57FTM     C3 6350   2.330   5.141   2.273  0.2792  0.0261 -0.4622
   57FTM     C4 6351   2.196   5.130   2.296  0.3216 -0.2818 -0.3514
   57FTM     F1 6352   2.506   5.309   2.244 -0.1007  0.4311 -0.4386
   57FTM     C5 6353   2.285   5.523   2.287  0.3983 -0.2020 -0.5523
   57FTM     C6 6354   2.331   5.587   2.419  0.5462  0.1451  0.4488
   57FTM     C7 6355   2.478   5.593   2.465  0.0164  0.1636 -0.3360
   57FTM     C8 6356   2.591   5.639   2.371  0.7654  0.4507  0.2628
   57FTM     C9 6357   2.553   5.742   2.263  0.0590  0.0428  0.3158
   57FTM    C10 6358   2.673   5.751   2.174 -0.5421  0.2784 -0.1217
   57FTM    C11 6359   2.234   5.581   2.535 -0.0426  0.4204 -0.1734
   57FTM    C12 6360   2.097   5.640   2.496 -0.2568  0.3941  0.2062
   58TPM     C1 6361   1.669   5.148   2.095 -0.0944 -0.2512 -0.1851
   58TPM     C2 6362   1.541   5.107   2.070 -0.0823 -0.2406 -0.2670
   58TPM     C3 6363   1.462   5.204   1.998 -0.0403 -0.2160 -0.2802
   58TPM     C4 6364   1.530   5.318   1.967 -0.0203 -0.2083 -0.2083
   58TPM     S1 6365   1.700   5.313   2.028 -0.0534 -0.2313 -0.1178
   59BDD     C1 6366   1.274   5.543   1.763  0.0660 -0.1646 -0.0569
   59BDD     C2 6367   1.397   5.597   1.737  0.0409 -0.0896 -0.0207
   59BDD     C3 6368   1.506   5.527   1.802  0.0613 -0.0025  0.0391
   59BDD     C4 6369   1.464   5.420   1.877  0.1017 -0.0124  0.0477
   59BDD     S1 6370   1.286   5.401   1.871  0.1169 -0.1310 -0.0186
   59BDD     C5 6371   1.419   5.715   1.651 -0.0027 -0.0955 -0.0398
   59BDD     C6 6372   1.647   5.568   1.788  0.0401  0.0871  0.0857
   59BDD     O1 6373   1.741   5.507   1.845  0.0577  0.1622  0.1373
   59BDD     O2 6374   1.325   5.776   1.594 -0.0204 -0.1706 -0.0914
   59BDD     C7 6375   1.669   5.686   1.702 -0.0036  0.0813  0.0665
   59BDD     C8 6376   1.560   5.756   1.636 -0.0241 -0.0057  0.0067
   59BDD     C9 6377   1.602   5.863   1.561 -0.0644  0.0041 -0.0018
   59BDD     S2 6378   1.780   5.883   1.568 -0.0796  0.1229  0.0645
   59BDD    C10 6379   1.792   5.740   1.676 -0.0287  0.1563  0.1028
   59BDD    C11 6380   1.932   5.712   1.722 -0.0970  0.0219  0.6025
   59BDD    C12 6381   1.994   5.800   1.833 -0.2657  0.7676 -0.2794
   59BDD    C13 6382   2.148   5.790   1.821  0.2441 -0.3901 -0.0850
   59BDD    C14 6383   2.232   5.888   1.896  0.2699  0.8160  0.1236
   59BDD    C15 6384   2.378   5.845   1.913 -0.5318 -0.2008  0.3020
   59BDD    C16 6385   2.455   5.805   1.786  0.1077  0.0091 -0.3715
   59BDD    C17 6386   1.940   5.763   1.976  0.2487 -0.0187  0.5366
   59BDD    C18 6387   1.969   5.620   2.041 -0.1995 -0.5857 -0.1697
   59BDD    C19 6388   1.531   5.960   1.481  0.0562 -1.2140 -0.0692
   59BDD    C20 6389   1.526   6.107   1.540  0.1286  0.3430  0.0966
   59BDD    C21 6390   1.478   6.214   1.434 -0.3356  0.3638  0.0106
   59BDD    C22 6391   1.556   6.223   1.294  0.2915  0.8272 -0.0020
   59BDD    C23 6392   1.514   6.341   1.213 -0.4057 -0.6826 -0.0158
   59BDD    C24 6393   1.503   6.310   1.063 -0.6144  0.5858 -0.0963
   59BDD    C25 6394   1.479   6.118   1.690 -0.2190 -0.0456  0.2096
   59BDD    C26 6395   1.495   6.251   1.763 -0.1448  0.1251 -0.5848
   60TPM     C1 6396   1.137   5.572   1.720  0.1909 -0.2530 -0.0373
   60TPM     C2 6397   1.078   5.690   1.754  0.3413 -0.3285  0.5070
   60TPM     C3 6398   0.934   5.689   1.743  0.3290 -0.1392  0.6314
   60TPM     C4 6399   0.884   5.569   1.701  0.1693  0.0807  0.1819
   60TPM     S1 6400   1.015   5.449   1.672  0.0208  0.0657 -0.4381
    1BDTP    C1 6401   3.118   3.526   7.763 -0.1224  0.0527  0.0575
    1BDTP    C2 6402   3.122   3.385   7.784 -0.0718  0.0465  0.0046
    1BDTP    C3 6403   3.078   3.293   7.689  0.0368  0.0634 -0.0627
    1BDTP    C4 6404   3.027   3.343   7.568  0.0985  0.0877 -0.0789
    1BDTP    C5 6405   3.023   3.484   7.547  0.0480  0.0940 -0.0260
    1BDTP    C6 6406   3.067   3.575   7.641 -0.0606  0.0770  0.0411
    1BDTP    C7 6407   2.976   3.268   7.455  0.2121  0.1085 -0.1447
    1BDTP    C8 6408   2.933   3.344   7.352  0.2487  0.1297 -0.1440
    1BDTP    S1 6409   2.953   3.523   7.383  0.1447  0.1264 -0.0597
    1BDTP    C9 6410   3.169   3.601   7.875 -0.2359  0.0319  0.1233
    1BDTP   C10 6411   3.211   3.524   7.979 -0.2726  0.0107  0.1225
    1BDTP    S2 6412   3.192   3.346   7.948 -0.1685  0.0140  0.0382
    2FTM     S1 6413   2.989   3.075   7.853 -0.1923 -0.0280 -0.0984
    2FTM     C1 6414   3.060   2.913   7.817 -0.0844 -0.0430  0.1749
    2FTM     C2 6415   3.149   2.923   7.714 -0.0066 -0.1373  0.2328
    2FTM     C3 6416   3.167   3.054   7.659 -0.0257 -0.2018  0.0720
    2FTM     C4 6417   3.089   3.147   7.722 -0.1212 -0.1556 -0.1153
    2FTM     F1 6418   3.219   2.815   7.665  0.0865 -0.1706  0.4349
    2FTM     C5 6419   3.012   2.792   7.891  0.0847 -0.2947 -0.0905
    2FTM     C6 6420   2.866   2.750   7.875 -0.3441 -0.3018  0.0522
    2FTM     C7 6421   2.834   2.729   7.729  0.3939 -0.1023  0.4940
    2FTM     C8 6422   2.887   2.600   7.659 -0.1337  0.0715 -0.0895
    2FTM     C9 6423   2.871   2.576   7.512 -0.0171 -0.3456 -0.1367
    2FTM    C10 6424   2.929   2.439   7.476  0.6974  0.0199  0.1746
    2FTM    C11 6425   2.763   2.822   7.964  0.1661  0.1883 -0.1228
    2FTM    C12 6426   2.789   2.819   8.111 -0.6346 -0.2462 -0.6163
    3FTM     S1 6427   3.191   3.827   7.626  0.1028 -0.0800 -0.3348
    3FTM     C1 6428   3.093   3.968   7.575 -0.1317 -0.0620  0.1510
    3FTM     C2 6429   2.964   3.930   7.553 -0.2203 -0.0644  0.6621
    3FTM     C3 6430   2.935   3.791   7.575 -0.1136 -0.0800  0.7061
    3FTM     C4 6431   3.045   3.721   7.615  0.0623 -0.0900  0.2124
    3FTM     F1 6432   2.865   4.018   7.513 -0.4031 -0.0525  1.1206
    3FTM     C5 6433   3.157   4.102   7.550  0.1771  0.0102  0.0990
    3FTM     C6 6434   3.111   4.214   7.639 -0.1829 -0.6442 -0.2918
    3FTM     C7 6435   3.134   4.355   7.587  0.0570 -0.4643 -0.1228
    3FTM     C8 6436   3.060   4.406   7.458  0.7730  0.5203 -0.1005
    3FTM     C9 6437   3.103   4.540   7.401 -0.5408 -0.1040  0.2132
    3FTM    C10 6438   3.018   4.573   7.283  0.2338  0.2912  0.5315
    3FTM    C11 6439   3.135   4.194   7.791  0.4675  0.0464  0.3845
    3FTM    C12 6440   3.066   4.280   7.900  0.1433  0.5328 -0.3344
    4TPM     C1 6441   3.258   3.570   8.105 -0.2940  0.2951  0.1618
    4TPM     C2 6442   3.318   3.688   8.135 -0.5380  0.3754  0.3350
    4TPM     C3 6443   3.324   3.715   8.277 -0.6381  0.2048  0.3724
    4TPM     C4 6444   3.268   3.618   8.354 -0.4706 -0.0057  0.2283
    4TPM     S1 6445   3.204   3.483   8.253 -0.1709 -0.0048  0.0324
    5BDD     C1 6446   3.356   3.493   8.712  0.4111  0.1450 -0.1337
    5BDD     C2 6447   3.357   3.629   8.721  0.2627  0.1439 -0.0918
    5BDD     C3 6448   3.326   3.696   8.595  0.1090  0.1488 -0.0515
    5BDD     C4 6449   3.302   3.609   8.493  0.1422  0.1536 -0.0636
    5BDD     S1 6450   3.316   3.438   8.546  0.3684  0.1523 -0.1259
    5BDD     C5 6451   3.387   3.703   8.845  0.2570  0.1385 -0.0873
    5BDD     C6 6452   3.322   3.843   8.582 -0.0654  0.1486 -0.0031
    5BDD     O1 6453   3.295   3.900   8.474 -0.1981  0.1528  0.0317
    5BDD     O2 6454   3.413   3.646   8.953  0.3896  0.1343 -0.1221
    5BDD     C7 6455   3.351   3.917   8.707 -0.0713  0.1431  0.0019
    5BDD     C8 6456   3.382   3.851   8.832  0.0826  0.1382 -0.0384
    5BDD     C9 6457   3.407   3.937   8.935  0.0492  0.1336 -0.0267
    5BDD     S2 6458   3.393   4.108   8.882 -0.1769  0.1347  0.0361
    5BDD    C10 6459   3.353   4.053   8.716 -0.2196  0.1420  0.0436
    5BDD    C11 6460   3.321   4.169   8.626  0.5805 -0.2884 -0.4610
    5BDD    C12 6461   3.431   4.213   8.531  0.2466 -1.2324  0.8667
    5BDD    C13 6462   3.394   4.339   8.432 -0.2777  0.9976 -0.3457
    5BDD    C14 6463   3.281   4.327   8.335  0.5825 -0.1488  0.3801
    5BDD    C15 6464   3.231   4.467   8.294 -0.6738  0.0634 -0.7160
    5BDD    C16 6465   3.095   4.446   8.230 -0.0074  0.0811  0.0923
    5BDD    C17 6466   3.575   4.221   8.583  0.8153 -0.2056 -0.0853
    5BDD    C18 6467   3.608   4.328   8.678 -0.7535 -0.6195  0.3050
    5BDD    C19 6468   3.448   3.910   9.074  0.3929 -0.1444 -0.5016
    5BDD    C20 6469   3.574   3.981   9.124  0.6071 -0.1857  0.0153
    5BDD    C21 6470   3.696   3.961   9.029 -0.2419  0.2496 -0.0961
    5BDD    C22 6471   3.821   4.041   9.055  0.1256  0.1941 -0.1382
    5BDD    C23 6472   3.807   4.190   9.046  0.2815  0.1204 -0.3416
    5BDD    C24 6473   3.925   4.258   9.108  0.0515 -0.7703  0.2716
    5BDD    C25 6474   3.584   3.957   9.275 -0.2284 -1.0687 -0.0299
    5BDD    C26 6475   3.566   3.829   9.350  0.0882 -0.0063  0.1166
    6TPM     C1 6476   3.370   3.370   8.799  0.2431  0.0920  0.1583
    6TPM     C2 6477   3.427   3.368   8.922  0.3134 -0.2418  0.1247
    6TPM     C3 6478   3.450   3.236   8.974  0.0100 -0.3822 -0.0908
    6TPM     C4 6479   3.411   3.136   8.890 -0.2916 -0.1557 -0.2218
    6TPM     S1 6480   3.341   3.202   8.737 -0.2152  0.2557 -0.0818
    7BDTP    C1 6481   3.518   2.528   8.990  0.1895 -0.1096 -0.2751
    7BDTP    C2 6482   3.565   2.591   9.109 -0.0224 -0.0709 -0.2112
    7BDTP    C3 6483   3.559   2.728   9.130 -0.2092 -0.0815 -0.1981
    7BDTP    C4 6484   3.503   2.807   9.028 -0.1864 -0.1326 -0.2506
    7BDTP    C5 6485   3.456   2.745   8.909  0.0256 -0.1712 -0.3147
    7BDTP    C6 6486   3.463   2.608   8.888  0.2124 -0.1607 -0.3274
    7BDTP    C7 6487   3.486   2.951   9.026 -0.3559 -0.1527 -0.2490
    7BDTP    C8 6488   3.429   2.999   8.913 -0.2823 -0.2040 -0.3078
    7BDTP    S1 6489   3.389   2.869   8.793  0.0119 -0.2340 -0.3738
    7BDTP    C9 6490   3.536   2.385   8.992  0.3590 -0.0894 -0.2766
    7BDTP   C10 6491   3.593   2.337   9.105  0.2854 -0.0381 -0.2177
    7BDTP    S2 6492   3.633   2.467   9.225 -0.0088 -0.0080 -0.1520
    8FTM     S1 6493   3.592   2.715   9.425 -0.0628 -0.0281  0.3023
    8FTM     C1 6494   3.690   2.847   9.499  0.2669 -0.3595  0.4579
    8FTM     C2 6495   3.727   2.936   9.404  0.6490 -0.4355  0.5310
    8FTM     C3 6496   3.682   2.909   9.270  0.7073 -0.2451  0.4711
    8FTM     C4 6497   3.608   2.795   9.263  0.3584 -0.0160  0.3493
    8FTM     F1 6498   3.804   3.048   9.431  0.9688 -0.6819  0.6557
    8FTM     C5 6499   3.694   2.848   9.647 -0.1861 -1.2211  0.3048
    8FTM     C6 6500   3.815   2.813   9.723  0.6341 -0.2894  0.4292
    8FTM     C7 6501   3.925   2.925   9.726  0.1803  0.9756 -0.1893
    8FTM     C8 6502   3.905   3.020   9.835  0.6783  0.0468 -0.0262
    8FTM     C9 6503   4.008   3.131   9.831  0.1741  0.5535  0.2252
    8FTM    C10 6504   4.016   3.212   9.960 -0.4261  0.3978  0.3755
    8FTM    C11 6505   3.852   2.661   9.710  0.0822  0.5591 -0.2841
    8FTM    C12 6506   3.980   2.602   9.771 -0.0541  0.7266 -0.0259
    9FTM     S1 6507   3.504   2.434   8.670  0.2309 -0.4157  0.0042
    9FTM     C1 6508   3.370   2.419   8.550  0.4649  0.1725 -0.3384
    9FTM     C2 6509   3.268   2.502   8.585  0.6273  0.4274 -0.4551
    9FTM     C3 6510   3.286   2.579   8.704  0.5810  0.1867 -0.2894
    9FTM     C4 6511   3.407   2.556   8.762  0.3762 -0.2673 -0.0376
    9FTM     F1 6512   3.151   2.511   8.511  0.8277  0.8938 -0.7186
    9FTM     C5 6513   3.382   2.319   8.443  0.6299 -0.0703 -0.6875
    9FTM     C6 6514   3.517   2.311   8.366 -0.2320 -0.5163 -0.7481
    9FTM     C7 6515   3.532   2.186   8.275 -0.0019  0.2277  0.3228
    9FTM     C8 6516   3.590   2.069   8.357 -0.7974  0.4334 -0.3304
    9FTM     C9 6517   3.571   1.927   8.302 -0.0256 -0.6412  0.3763
    9FTM    C10 6518   3.436   1.874   8.276  0.4749 -0.5351 -0.1336
    9FTM    C11 6519   3.565   2.444   8.312 -0.7596  0.1562  0.9792
    9FTM    C12 6520   3.709   2.465   8.253  0.1228  0.1003 -0.4532
   10TPM     C1 6521   3.620   2.200   9.139  0.1962  0.0118 -0.2678
   10TPM     C2 6522   3.681   2.144   9.248  0.4677 -0.0157 -0.4320
   10TPM     C3 6523   3.682   2.000   9.244  0.5227 -0.0134 -0.5066
   10TPM     C4 6524   3.623   1.947   9.133  0.2932  0.0159 -0.3999
   10TPM     S1 6525   3.560   2.075   9.024 -0.0126  0.0430 -0.1946
   11BDD     C1 6526   3.655   1.610   8.935  0.0005 -0.2670 -0.0387
   11BDD     C2 6527   3.638   1.572   9.065 -0.0521 -0.1837 -0.0215
   11BDD     C3 6528   3.623   1.684   9.156 -0.0296 -0.1241 -0.0904
   11BDD     C4 6529   3.630   1.806   9.095  0.0399 -0.1627 -0.1593
   11BDD     S1 6530   3.655   1.789   8.918  0.0819 -0.2765 -0.1431
   11BDD     C5 6531   3.633   1.431   9.109 -0.1251 -0.1559  0.0594
   11BDD     C6 6532   3.603   1.665   9.301 -0.0777 -0.0308 -0.0851
   11BDD     O1 6533   3.591   1.762   9.380 -0.0583  0.0206 -0.1445
   11BDD     O2 6534   3.646   1.335   9.030 -0.1445 -0.2073  0.1187
   11BDD     C7 6535   3.599   1.525   9.346 -0.1507 -0.0030 -0.0043
   11BDD     C8 6536   3.613   1.413   9.255 -0.1733 -0.0627  0.0646
   11BDD     C9 6537   3.606   1.291   9.316 -0.2428 -0.0240  0.1335
   11BDD     S2 6538   3.581   1.308   9.493 -0.2848  0.0898  0.1172
   11BDD    C10 6539   3.581   1.486   9.476 -0.2034  0.0803  0.0131
   11BDD    C11 6540   3.576   1.559   9.615  0.0838  0.0420  0.0534
   11BDD    C12 6541   3.440   1.600   9.662 -0.0686  0.1603 -0.1884
   11BDD    C13 6542   3.442   1.690   9.786  0.1178 -0.0898 -0.0202
   11BDD    C14 6543   3.502   1.831   9.786 -0.4833  0.0133  0.0981
   11BDD    C15 6544   3.415   1.944   9.728 -0.5617  0.6475  0.2729
   11BDD    C16 6545   3.485   2.071   9.729  0.5353 -0.8007 -0.7416
   11BDD    C17 6546   3.322   1.498   9.672 -0.2552  0.6663  0.1489
   11BDD    C18 6547   3.327   1.385   9.782 -0.8255 -0.0125 -0.2382
   11BDD    C19 6548   3.621   1.151   9.267 -0.0506  0.4083 -0.0912
   11BDD    C20 6549   3.767   1.107   9.232  0.3561  0.3182 -0.3385
   11BDD    C21 6550   3.890   1.145   9.332  0.0390  0.0748 -0.2918
   11BDD    C22 6551   3.911   1.048   9.457 -0.1620 -0.1605  0.5782
   11BDD    C23 6552   4.026   1.084   9.553 -0.2238 -0.7667 -0.4462
   11BDD    C24 6553   4.035   1.225   9.609  0.7211 -0.2430  0.4518
   11BDD    C25 6554   3.778   0.968   9.162 -0.4041  0.5744  0.3065
   11BDD    C26 6555   3.892   0.928   9.080 -0.5954 -0.1243  0.2634
   12TPM     C1 6556   3.680   1.541   8.805  0.2490  0.3659 -0.0653
   12TPM     C2 6557   3.630   1.586   8.687  0.2670  0.3209 -0.0896
   12TPM     C3 6558   3.663   1.501   8.575  0.0259  0.1134 -0.0055
   12TPM     C4 6559   3.738   1.392   8.608 -0.1760  0.0001  0.0835
   12TPM     S1 6560   3.773   1.388   8.785 -0.0765  0.1479  0.0672
   13BDTP    C1 6561   3.885   0.882   8.268  0.0571  0.0134  0.0415
   13BDTP    C2 6562   3.970   0.870   8.382 -0.0320 -0.0321  0.1040
   13BDTP    C3 6563   3.971   0.963   8.485 -0.0567 -0.0316  0.1040
   13BDTP    C4 6564   3.884   1.073   8.476  0.0096  0.0158  0.0389
   13BDTP    C5 6565   3.798   1.085   8.362  0.0986  0.0612 -0.0236
   13BDTP    C6 6566   3.797   0.992   8.259  0.1232  0.0607 -0.0237
   13BDTP    C7 6567   3.867   1.182   8.570 -0.0001  0.0258  0.0258
   13BDTP    C8 6568   3.774   1.274   8.533  0.0765  0.0758 -0.0429
   13BDTP    S1 6569   3.695   1.235   8.374  0.1715  0.1174 -0.1006
   13BDTP    C9 6570   3.901   0.773   8.174  0.0667  0.0034  0.0546
   13BDTP   C10 6571   3.994   0.681   8.211 -0.0098 -0.0467  0.1233
   13BDTP    S2 6572   4.073   0.720   8.370 -0.1049 -0.0882  0.1810
   14FTM     S1 6573   4.225   1.044   8.597  0.2429 -0.2217 -0.2371
   14FTM     C1 6574   4.276   0.965   8.750  0.4732 -0.0307 -0.2116
   14FTM     C2 6575   4.181   0.875   8.789  0.4306  0.1682  0.1538
   14FTM     C3 6576   4.067   0.863   8.704  0.2214  0.1839  0.4296
   14FTM     C4 6577   4.074   0.946   8.596  0.0998 -0.0094  0.2700
   14FTM     F1 6578   4.193   0.798   8.904  0.5783  0.3480  0.2601
   14FTM     C5 6579   4.393   1.018   8.826 -0.2071 -0.3025  0.0044
   14FTM     C6 6580   4.374   1.082   8.963 -0.2664 -0.0129 -0.5567
   14FTM     C7 6581   4.505   1.117   9.040 -0.3050 -0.6839 -0.2942
   14FTM     C8 6582   4.602   1.009   9.073  0.1447  0.7529 -0.0165
   14FTM     C9 6583   4.741   1.063   9.116 -0.0804  0.8586  0.2851
   14FTM    C10 6584   4.829   0.950   9.168  0.0985 -0.4771  0.5036
   14FTM    C11 6585   4.249   1.182   8.983 -0.0687  0.2541  0.1074
   14FTM    C12 6586   4.211   1.209   9.122  0.3363 -0.0601 -0.3865
   15FTM     S1 6587   3.585   0.892   8.100 -0.0768 -0.0865 -0.0202
   15FTM     C1 6588   3.538   0.991   7.957  0.0817  0.0399  0.0145
   15FTM     C2 6589   3.612   1.105   7.953  0.3631 -0.1440 -0.0230
   15FTM     C3 6590   3.708   1.122   8.058  0.4699 -0.3885 -0.0796
   15FTM     C4 6591   3.707   1.017   8.146  0.2636 -0.3919 -0.0858
   15FTM     F1 6592   3.598   1.200   7.853  0.5406 -0.1019 -0.0085
   15FTM     C5 6593   3.436   0.936   7.863  0.1187 -0.6029  0.6696
   15FTM     C6 6594   3.292   0.985   7.872  0.2835  0.1506  0.1344
   15FTM     C7 6595   3.226   0.932   8.004  0.1438  0.3950 -0.3120
   15FTM     C8 6596   3.207   0.779   8.043  0.2904 -0.5723  0.1103
   15FTM     C9 6597   3.182   0.680   7.933  0.0059  0.3023 -0.1549
   15FTM    C10 6598   3.182   0.544   7.992  0.0276  0.3277  0.5030
   15FTM    C11 6599   3.260   1.134   7.850  0.3443  0.3102 -1.0619
   15FTM    C12 6600   3.278   1.196   7.710 -0.5150  0.4144  0.4198
   16TPM     C1 6601   4.032   0.556   8.143  0.1223 -0.3672  0.3557
   16TPM     C2 6602   3.979   0.498   8.032  0.1326 -0.5665  0.4539
   16TPM     C3 6603   4.053   0.384   7.985  0.2794 -0.4973  0.5181
   16TPM     C4 6604   4.163   0.355   8.061  0.3813 -0.2452  0.4685
   16TPM     S1 6605   4.181   0.471   8.198  0.2987 -0.0744  0.3366
   17BDD     C1 6606   4.371   0.072   7.882 -0.1986  0.0502 -0.1200
   17BDD     C2 6607   4.395   0.058   8.016 -0.1963 -0.0105 -0.1271
   17BDD     C3 6608   4.326   0.155   8.098 -0.3031 -0.1339 -0.0710
   17BDD     C4 6609   4.249   0.242   8.026 -0.3849 -0.1654 -0.0220
   17BDD     S1 6610   4.258   0.209   7.850 -0.3341 -0.0428 -0.0428
   17BDD     C5 6611   4.484  -0.046   8.073 -0.0966  0.0427 -0.1855
   17BDD     C6 6612   4.338   0.157   8.246 -0.3200 -0.2160 -0.0679
   17BDD     O1 6613   4.278   0.241   8.317 -0.4119 -0.3224 -0.0198
   17BDD     O2 6614   4.544  -0.130   8.001 -0.0046  0.1490 -0.2337
   17BDD     C7 6615   4.427   0.054   8.302 -0.2197 -0.1628 -0.1261
   17BDD     C8 6616   4.496  -0.044   8.220 -0.1131 -0.0396 -0.1824
   17BDD     C9 6617   4.573  -0.131   8.292 -0.0314 -0.0079 -0.2313
   17BDD     S2 6618   4.564  -0.097   8.468 -0.0821 -0.1303 -0.2104
   17BDD    C10 6619   4.452   0.039   8.436 -0.2177 -0.2236 -0.1333
   17BDD    C11 6620   4.395   0.113   8.558 -0.2437  0.2238  0.2717
   17BDD    C12 6621   4.265   0.070   8.628 -0.3537  0.4720 -0.6784
   17BDD    C13 6622   4.215   0.169   8.735 -0.6733 -0.1653 -0.0381
   17BDD    C14 6623   4.181   0.315   8.692  0.2784 -0.2440 -0.1057
   17BDD    C15 6624   4.115   0.389   8.797  0.4743 -0.3539 -0.6650
   17BDD    C16 6625   4.036   0.508   8.751  0.0824 -0.4683  0.1829
   17BDD    C17 6626   4.280  -0.075   8.677 -0.1415  0.0038 -0.5452
   17BDD    C18 6627   4.155  -0.143   8.727  0.2969 -0.4540  0.1554
   17BDD    C19 6628   4.654  -0.247   8.252 -0.3693  0.2550 -0.6727
   17BDD    C20 6629   4.574  -0.383   8.240  0.7049 -0.1066 -0.4210
   17BDD    C21 6630   4.660  -0.488   8.180 -0.0547  0.3803  0.3774
   17BDD    C22 6631   4.605  -0.587   8.076 -0.1359  0.1876 -0.3427
   17BDD    C23 6632   4.548  -0.551   7.944  0.0150 -0.0754  0.2927
   17BDD    C24 6633   4.652  -0.472   7.860 -0.1142 -0.6050  0.2279
   17BDD    C25 6634   4.474  -0.416   8.348  0.0031 -0.6679  0.6662
   17BDD    C26 6635   4.528  -0.460   8.484 -0.1541 -0.2059 -0.5267
   18TPM     C1 6636   4.409   0.001   7.758  0.0552  0.1783 -0.3884
   18TPM     C2 6637   4.429   0.067   7.640  0.0765 -0.1419 -0.5645
   18TPM     C3 6638   4.457  -0.021   7.530  0.1714 -0.4399 -0.3078
   18TPM     C4 6639   4.459  -0.153   7.563  0.2223 -0.3473  0.0642
   18TPM     S1 6640   4.425  -0.177   7.739  0.1537  0.1278  0.1195
   19BDTP    C1 6641   4.523  -0.680   7.221 -0.1616 -0.1266  0.2086
   19BDTP    C2 6642   4.502  -0.581   7.121 -0.0728 -0.1202  0.1965
   19BDTP    C3 6643   4.483  -0.447   7.151  0.0309 -0.1013  0.1810
   19BDTP    C4 6644   4.483  -0.408   7.286  0.0476 -0.0880  0.1770
   19BDTP    C5 6645   4.504  -0.507   7.387 -0.0415 -0.0944  0.1891
   19BDTP    C6 6646   4.524  -0.642   7.357 -0.1449 -0.1134  0.2048
   19BDTP    C7 6647   4.465  -0.276   7.341  0.1473 -0.0677  0.1619
   19BDTP    C8 6648   4.471  -0.270   7.477  0.1378 -0.0587  0.1618
   19BDTP    S1 6649   4.500  -0.433   7.553  0.0011 -0.0746  0.1812
   19BDTP    C9 6650   4.541  -0.813   7.166 -0.2614 -0.1469  0.2240
   19BDTP   C10 6651   4.536  -0.818   7.031 -0.2519 -0.1557  0.2241
   19BDTP    S2 6652   4.506  -0.656   6.955 -0.1151 -0.1400  0.2045
   20FTM     S1 6653   4.549  -0.348   6.886 -0.2373  0.0849 -0.1448
   20FTM     C1 6654   4.449  -0.210   6.826 -0.1029  0.3277  0.1870
   20FTM     C2 6655   4.362  -0.171   6.923  0.3062  0.5386  0.4783
   20FTM     C3 6656   4.367  -0.244   7.046  0.5348  0.5248  0.4618
   20FTM     C4 6657   4.461  -0.343   7.044  0.2925  0.2953  0.1475
   20FTM     F1 6658   4.272  -0.067   6.905  0.4984  0.7567  0.7772
   20FTM     C5 6659   4.487  -0.157   6.689 -0.5981  0.1485 -0.0858
   20FTM     C6 6660   4.404  -0.207   6.570  0.4897 -0.1146 -0.6045
   20FTM     C7 6661   4.406  -0.358   6.556  0.1682  0.4481  0.0629
   20FTM     C8 6662   4.536  -0.424   6.502  0.2786  0.0349  0.2006
   20FTM     C9 6663   4.535  -0.575   6.500 -0.5971  0.0387 -0.1275
   20FTM    C10 6664   4.643  -0.638   6.415 -0.9053  0.4801  0.3747
   20FTM    C11 6665   4.267  -0.134   6.559  0.0558  0.4580 -0.9222
   20FTM    C12 6666   4.266   0.023   6.573 -0.1640  0.1267  0.2105
   21FTM     S1 6667   4.420  -0.759   7.594 -0.0175 -0.0709 -0.2315
   21FTM     C1 6668   4.506  -0.907   7.652 -0.2181 -0.1781 -0.2036
   21FTM     C2 6669   4.612  -0.933   7.572 -0.2191 -0.3057 -0.1643
   21FTM     C3 6670   4.633  -0.842   7.463 -0.0678 -0.3276 -0.1537
   21FTM     C4 6671   4.540  -0.743   7.460  0.0533 -0.2130 -0.1864
   21FTM     F1 6672   4.698  -1.040   7.592 -0.3574 -0.4101 -0.1353
   21FTM     C5 6673   4.466  -0.972   7.781 -0.0824  0.0192 -0.0371
   21FTM     C6 6674   4.535  -1.093   7.841  0.0900  0.2130 -0.1459
   21FTM     C7 6675   4.553  -1.228   7.766 -0.6383 -0.3262  0.2781
   21FTM     C8 6676   4.428  -1.277   7.699  0.5269  0.2153 -0.5614
   21FTM     C9 6677   4.313  -1.313   7.789 -0.1482  0.8772  0.5069
   21FTM    C10 6678   4.185  -1.333   7.715 -0.1682  0.3888  0.8486
   21FTM    C11 6679   4.663  -1.051   7.921 -0.0086 -0.3157 -0.5197
   21FTM    C12 6680   4.651  -0.954   8.045 -0.2473 -0.1324  0.3098
   22TPM     C1 6681   4.530  -0.926   6.944  0.5982 -0.0683  0.1672
   22TPM     C2 6682   4.634  -1.010   6.919  0.5432 -0.1140  0.0898
   22TPM     C3 6683   4.609  -1.105   6.813  0.4122 -0.1221  0.1283
   22TPM     C4 6684   4.485  -1.092   6.757  0.3673 -0.0831  0.2349
   22TPM     S1 6685   4.391  -0.958   6.834  0.4879 -0.0321  0.2954
   23BDD     C1 6686   4.417  -1.119   6.368 -0.1157  0.0299  0.1927
   23BDD     C2 6687   4.454  -1.245   6.407 -0.1835  0.0134  0.2022
   23BDD     C3 6688   4.488  -1.254   6.548 -0.2650 -0.0110  0.2202
   23BDD     C4 6689   4.476  -1.135   6.615 -0.2584 -0.0123  0.2240
   23BDD     S1 6690   4.423  -1.003   6.505 -0.1495  0.0165  0.2054
   23BDD     C5 6691   4.459  -1.361   6.316 -0.1756  0.0191  0.1953
   23BDD     C6 6692   4.530  -1.380   6.612 -0.3465 -0.0317  0.2328
   23BDD     O1 6693   4.559  -1.388   6.733 -0.4169 -0.0527  0.2483
   23BDD     O2 6694   4.430  -1.353   6.195 -0.1053  0.0401  0.1798
   23BDD     C7 6695   4.535  -1.497   6.521 -0.3387 -0.0257  0.2258
   23BDD     C8 6696   4.501  -1.488   6.380 -0.2571 -0.0017  0.2079
   23BDD     C9 6697   4.513  -1.607   6.314 -0.2638 -0.0002  0.2040
   23BDD     S2 6698   4.566  -1.738   6.423 -0.3727 -0.0290  0.2225
   23BDD    C10 6699   4.572  -1.623   6.560 -0.4064 -0.0426  0.2353
   23BDD    C11 6700   4.613  -1.686   6.695 -0.3125  0.5817  0.3333
   23BDD    C12 6701   4.514  -1.778   6.771  0.4948 -0.1766 -0.5100
   23BDD    C13 6702   4.368  -1.719   6.793  0.2161 -0.2605  0.5876
   23BDD    C14 6703   4.256  -1.793   6.862  0.3576 -1.0608 -0.0195
   23BDD    C15 6704   4.135  -1.709   6.841 -0.2695  0.4466  0.4216
   23BDD    C16 6705   4.046  -1.721   6.959  0.4832  0.1049  0.2234
   23BDD    C17 6706   4.575  -1.840   6.899  0.4476  0.3721 -0.5134
   23BDD    C18 6707   4.600  -1.756   7.020  0.1201  0.4628 -0.0288
   23BDD    C19 6708   4.491  -1.643   6.170  0.0609  0.6554  0.5575
   23BDD    C20 6709   4.341  -1.686   6.137 -0.9453 -0.3715  0.0495
   23BDD    C21 6710   4.259  -1.771   6.242  0.2543 -0.4462  0.3317
   23BDD    C22 6711   4.106  -1.755   6.252 -0.0849  0.1233  0.8026
   23BDD    C23 6712   4.050  -1.628   6.317 -0.2476 -0.1158 -0.7676
   23BDD    C24 6713   4.114  -1.596   6.453 -0.4755 -0.2621 -0.3542
   23BDD    C25 6714   4.314  -1.734   5.996  0.6935 -0.1076 -0.3776
   23BDD    C26 6715   4.349  -1.638   5.879  0.1289 -0.1395 -0.2463
   24TPM     C1 6716   4.401  -1.054   6.241 -0.1662 -0.0097  0.2017
   24TPM     C2 6717   4.307  -1.099   6.154 -0.3880  0.3009  0.2754
   24TPM     C3 6718   4.270  -1.003   6.053 -0.1253  0.4115  0.2847
   24TPM     C4 6719   4.337  -0.885   6.064  0.2969  0.1861  0.2179
   24TPM     S1 6720   4.451  -0.885   6.203  0.3962 -0.1874  0.1375
   25BDTP    C1 6721   4.366  -0.406   5.654  0.0536  0.0620 -0.0618
   25BDTP    C2 6722   4.485  -0.391   5.730  0.0242  0.1121 -0.0252
   25BDTP    C3 6723   4.519  -0.477   5.834  0.0395  0.1130 -0.0294
   25BDTP    C4 6724   4.431  -0.582   5.865  0.0855  0.0618 -0.0715
   25BDTP    C5 6725   4.311  -0.597   5.789  0.1147  0.0117 -0.1079
   25BDTP    C6 6726   4.277  -0.511   5.685  0.0994  0.0110 -0.1038
   25BDTP    C7 6727   4.444  -0.683   5.968  0.1089  0.0524 -0.0840
   25BDTP    C8 6728   4.342  -0.772   5.972  0.1535 -0.0021 -0.1272
   25BDTP    S1 6729   4.214  -0.740   5.847  0.1724 -0.0486 -0.1588
   25BDTP    C9 6730   4.352  -0.305   5.551  0.0302  0.0715 -0.0494
   25BDTP   C10 6731   4.455  -0.216   5.546 -0.0145  0.1254 -0.0058
   25BDTP    S2 6732   4.583  -0.248   5.671 -0.0334  0.1723  0.0254
   26FTM     S1 6733   4.808  -0.449   5.826  0.1132  0.0168 -0.0210
   26FTM     C1 6734   4.885  -0.410   5.984 -0.1134  0.2976  0.0215
   26FTM     C2 6735   4.792  -0.413   6.083 -0.1928  0.1433 -0.0565
   26FTM     C3 6736   4.658  -0.445   6.044 -0.0845 -0.1943 -0.1516
   26FTM     C4 6737   4.649  -0.468   5.910  0.0829 -0.3022 -0.1465
   26FTM     F1 6738   4.823  -0.386   6.216 -0.3679  0.2987 -0.0460
   26FTM     C5 6739   5.032  -0.374   5.989  0.3738  0.0134 -0.5326
   26FTM     C6 6740   5.064  -0.231   6.024  0.3021 -0.0944  0.0292
   26FTM     C7 6741   5.206  -0.210   6.072  0.2437 -0.4955 -0.3858
   26FTM     C8 6742   5.250  -0.268   6.209 -0.8050 -0.0640 -0.0747
   26FTM     C9 6743   5.403  -0.249   6.226 -0.3031 -0.0559 -0.3793
   26FTM    C10 6744   5.456  -0.296   6.362 -0.2897  0.2890  0.3858
   26FTM    C11 6745   5.020  -0.135   5.913  0.0568  0.2308  0.4783
   26FTM    C12 6746   5.025   0.020   5.936 -0.0927 -0.7096 -0.1037
   27FTM     S1 6747   4.146  -0.707   5.520  0.3487  0.3637 -0.3433
   27FTM     C1 6748   3.993  -0.654   5.441  0.1158  0.4348  0.1517
   27FTM     C2 6749   3.966  -0.525   5.476 -0.1574  0.1848  0.9085
   27FTM     C3 6750   4.060  -0.462   5.563 -0.2012 -0.0713  1.1436
   27FTM     C4 6751   4.163  -0.545   5.597  0.0464 -0.0152  0.5476
   27FTM     F1 6752   3.854  -0.457   5.430 -0.3839  0.1726  1.4330
   27FTM     C5 6753   3.908  -0.758   5.371  0.6012 -0.4789 -0.4323
   27FTM     C6 6754   3.757  -0.765   5.397 -0.1896  0.1488 -0.0611
   27FTM     C7 6755   3.732  -0.808   5.547 -0.2337 -0.0758  0.0919
   27FTM     C8 6756   3.793  -0.945   5.583 -0.1366 -0.0987  0.2423
   27FTM     C9 6757   3.779  -0.966   5.728 -0.3379  0.2698  0.3447
   27FTM    C10 6758   3.850  -1.094   5.773 -0.0428 -0.1422 -0.4010
   27FTM    C11 6759   3.651  -0.678   5.327  0.1627 -0.0092 -0.0457
   27FTM    C12 6760   3.664  -0.683   5.176 -0.2337  0.6325  0.2692
   28TPM     C1 6761   4.455  -0.098   5.464  0.1532  0.2606 -0.0482
   28TPM     C2 6762   4.555  -0.031   5.400 -0.0489  0.6063 -0.0106
   28TPM     C3 6763   4.510   0.080   5.320 -0.3834  0.5534  0.1038
   28TPM     C4 6764   4.374   0.098   5.323 -0.4364  0.1668  0.1537
   28TPM     S1 6765   4.294  -0.025   5.428 -0.0649 -0.1624  0.0591
   29BDD     C1 6766   4.127   0.233   5.054 -0.0069 -0.1729  0.1138
   29BDD     C2 6767   4.227   0.326   5.058 -0.0330 -0.1403  0.0154
   29BDD     C3 6768   4.331   0.295   5.154  0.0435 -0.0776 -0.0467
   29BDD     C4 6769   4.309   0.178   5.222  0.1270 -0.0632  0.0057
   29BDD     S1 6770   4.156   0.100   5.170  0.1153 -0.1272  0.1360
   29BDD     C5 6771   4.231   0.448   4.973 -0.1293 -0.1657 -0.0256
   29BDD     C6 6772   4.449   0.381   5.175  0.0311 -0.0341 -0.1558
   29BDD     O1 6773   4.539   0.354   5.258  0.0972  0.0200 -0.2092
   29BDD     O2 6774   4.141   0.475   4.890 -0.1954 -0.2198  0.0279
   29BDD     C7 6775   4.453   0.503   5.090 -0.0652 -0.0595 -0.1967
   29BDD     C8 6776   4.349   0.534   4.994 -0.1419 -0.1223 -0.1346
   29BDD     C9 6777   4.371   0.651   4.926 -0.2253 -0.1367 -0.1868
   29BDD     S2 6778   4.524   0.729   4.977 -0.2138 -0.0726 -0.3173
   29BDD    C10 6779   4.553   0.595   5.094 -0.0914 -0.0270 -0.2953
   29BDD    C11 6780   4.667   0.608   5.187 -0.1757 -0.8682  0.1510
   29BDD    C12 6781   4.782   0.510   5.195 -0.6882  0.9145 -0.4804
   29BDD    C13 6782   4.819   0.434   5.064 -0.0838  0.0072 -0.2635
   29BDD    C14 6783   4.904   0.304   5.066  0.0815  0.4496  0.7620
   29BDD    C15 6784   4.843   0.179   5.129 -0.0870  0.4805 -0.2922
   29BDD    C16 6785   4.948   0.066   5.142  0.3923 -0.7121 -0.1017
   29BDD    C17 6786   4.902   0.535   5.300  0.3424  0.0576  0.1103
   29BDD    C18 6787   4.991   0.652   5.266 -0.5142  0.0497  0.2452
   29BDD    C19 6788   4.297   0.720   4.819  0.1920 -0.0637  0.6841
   29BDD    C20 6789   4.223   0.849   4.865  0.1773 -0.0063 -0.6710
   29BDD    C21 6790   4.314   0.975   4.897  0.1436  0.0389 -0.3962
   29BDD    C22 6791   4.247   1.092   4.967 -0.2836 -0.2946 -0.1744
   29BDD    C23 6792   4.207   1.056   5.107  0.1456 -0.5041 -0.4373
   29BDD    C24 6793   4.111   1.146   5.192 -0.8259  0.8397 -0.1688
   29BDD    C25 6794   4.092   0.884   4.792 -0.4818  0.4573  0.1727
   29BDD    C26 6795   3.975   0.776   4.771 -0.8772 -1.0716 -0.3119
   30TPM     C1 6796   3.998   0.209   4.975  0.1786  0.1172  0.1676
   30TPM     C2 6797   3.902   0.125   5.023  0.3701 -0.2491 -0.0877
   30TPM     C3 6798   3.784   0.119   4.941  0.4791 -0.4585 -0.2334
   30TPM     C4 6799   3.789   0.199   4.831  0.3707 -0.2518 -0.0891
   30TPM     S1 6800   3.945   0.289   4.822  0.1207  0.2270  0.2445
   31BDTP    C1 6801   3.355   0.231   4.377 -0.1704  0.1193  0.1810
   31BDTP    C2 6802   3.464   0.165   4.312 -0.2194 -0.0298  0.2493
   31BDTP    C3 6803   3.583   0.137   4.376 -0.2627 -0.1070  0.2964
   31BDTP    C4 6804   3.597   0.175   4.511 -0.2576 -0.0339  0.2753
   31BDTP    C5 6805   3.489   0.241   4.576 -0.2085  0.1153  0.2068
   31BDTP    C6 6806   3.369   0.269   4.512 -0.1651  0.1925  0.1598
   31BDTP    C7 6807   3.712   0.156   4.598 -0.2969 -0.0910  0.3148
   31BDTP    C8 6808   3.695   0.204   4.723 -0.2800  0.0068  0.2801
   31BDTP    S1 6809   3.532   0.280   4.749 -0.2119  0.1850  0.1920
   31BDTP    C9 6810   3.241   0.250   4.291 -0.1310  0.1765  0.1411
   31BDTP   C10 6811   3.258   0.202   4.165 -0.1479  0.0787  0.1761
   31BDTP    S2 6812   3.421   0.127   4.139 -0.2159 -0.0995  0.2639
   32FTM     S1 6813   3.651  -0.096   4.216  0.0848  0.0869 -0.1590
   32FTM     C1 6814   3.813  -0.092   4.138  0.0596 -0.2372 -0.2288
   32FTM     C2 6815   3.881   0.020   4.177  0.5175 -0.6437  0.1777
   32FTM     C3 6816   3.812   0.107   4.267  0.9064 -0.7260  0.5590
   32FTM     C4 6817   3.688   0.061   4.299  0.7409 -0.3709  0.4404
   32FTM     F1 6818   4.009   0.049   4.132  0.6115 -0.9656  0.2289
   32FTM     C5 6819   3.859  -0.200   4.046 -0.5991  0.1693  0.9561
   32FTM     C6 6820   3.780  -0.224   3.917  0.3446  0.6300 -0.3594
   32FTM     C7 6821   3.763  -0.114   3.818  0.3910 -0.7353 -0.5873
   32FTM     C8 6822   3.883  -0.059   3.740  0.1692  0.0809  0.1762
   32FTM     C9 6823   3.960  -0.155   3.660 -0.3713  1.1572 -0.4993
   32FTM    C10 6824   4.055  -0.098   3.562  0.6505  0.2444  0.1794
   32FTM    C11 6825   3.644  -0.298   3.931 -0.1088 -0.5088 -0.3438
   32FTM    C12 6826   3.640  -0.429   4.007 -0.4394  0.3302 -0.2545
   33FTM     S1 6827   3.153   0.458   4.534 -0.0633 -0.1533  0.0005
   33FTM     C1 6828   3.060   0.454   4.688  0.4388  0.3636  0.3229
   33FTM     C2 6829   3.110   0.357   4.769  0.9269  0.8622  0.6416
   33FTM     C3 6830   3.220   0.281   4.717  0.9398  0.8725  0.6541
   33FTM     C4 6831   3.256   0.322   4.592  0.4455  0.3652  0.3348
   33FTM     F1 6832   3.058   0.330   4.895  1.3909  1.3390  0.9409
   33FTM     C5 6833   2.954   0.554   4.726 -0.3239 -0.1440  0.0980
   33FTM     C6 6834   2.810   0.532   4.677 -0.4098  0.0516  0.2184
   33FTM     C7 6835   2.797   0.547   4.520 -0.7415  0.6017 -0.3629
   33FTM     C8 6836   2.820   0.677   4.448  0.3780 -0.1411  0.0955
   33FTM     C9 6837   2.728   0.796   4.483  0.2163  0.3311  0.4632
   33FTM    C10 6838   2.582   0.769   4.450 -0.3368 -0.2262 -0.1348
   33FTM    C11 6839   2.737   0.402   4.706  0.2052 -0.0277 -0.0366
   33FTM    C12 6840   2.717   0.361   4.852 -0.5951  0.0026  0.7091
   34TPM     C1 6841   3.172   0.212   4.051 -0.1326 -0.0363 -0.6521
   34TPM     C2 6842   3.158   0.119   3.953  0.0252  0.4754 -1.1749
   34TPM     C3 6843   3.067   0.157   3.848 -0.0486  0.8981 -0.9592
   34TPM     C4 6844   3.012   0.280   3.867 -0.2627  0.7088 -0.2720
   34TPM     S1 6845   3.070   0.358   4.019 -0.3887 -0.0238  0.1596
   35BDD     C1 6846   2.724   0.399   3.637 -0.0043  0.0563 -0.1064
   35BDD     C2 6847   2.839   0.452   3.585 -0.0201  0.0532 -0.1441
   35BDD     C3 6848   2.959   0.414   3.658  0.0384 -0.2225 -0.3786
   35BDD     C4 6849   2.933   0.333   3.765  0.0979 -0.4257 -0.5162
   35BDD     S1 6850   2.758   0.299   3.782  0.0848 -0.2858 -0.3617
   35BDD     C5 6851   2.844   0.539   3.465 -0.0895  0.3037  0.0340
   35BDD     C6 6852   3.094   0.459   3.619  0.0331 -0.2745 -0.4576
   35BDD     O1 6853   3.197   0.426   3.682  0.0834 -0.5123 -0.6598
   35BDD     O2 6854   2.741   0.571   3.402 -0.1398  0.5415  0.2362
   35BDD     C7 6855   3.098   0.546   3.500 -0.0364 -0.0241 -0.2795
   35BDD     C8 6856   2.979   0.584   3.426 -0.0948  0.2517 -0.0450
   35BDD     C9 6857   3.004   0.665   3.319 -0.1544  0.4549  0.0926
   35BDD     S2 6858   3.180   0.699   3.302 -0.1413  0.3149 -0.0620
   35BDD    C10 6859   3.213   0.598   3.447 -0.0522 -0.0272 -0.3172
   35BDD    C11 6860   3.358   0.593   3.483 -0.0077 -0.4511  0.5214
   35BDD    C12 6861   3.444   0.469   3.452  0.0029  0.0958  0.1756
   35BDD    C13 6862   3.582   0.492   3.496 -0.6364 -0.1146  0.3790
   35BDD    C14 6863   3.612   0.548   3.636  0.0318  0.0530 -0.0747
   35BDD    C15 6864   3.757   0.565   3.678 -0.0421  0.4140 -0.0496
   35BDD    C16 6865   3.760   0.643   3.805 -0.0694  0.3594 -0.2237
   35BDD    C17 6866   3.435   0.422   3.304 -0.0207 -0.2786 -0.0616
   35BDD    C18 6867   3.487   0.522   3.198  0.2549 -0.1581 -0.1987
   35BDD    C19 6868   2.915   0.721   3.209 -0.5111 -0.6181  0.2283
   35BDD    C20 6869   2.905   0.879   3.193 -0.0997  0.2977 -0.4352
   35BDD    C21 6870   2.827   0.932   3.065 -0.4385 -0.9294 -0.6162
   35BDD    C22 6871   2.871   0.860   2.933  0.1775 -1.1281 -0.1795
   35BDD    C23 6872   2.809   0.928   2.805 -0.1741 -0.0615 -0.1659
   35BDD    C24 6873   2.850   0.866   2.672  0.6175  0.2286 -0.1193
   35BDD    C25 6874   2.894   0.966   3.323  0.3423  0.0337  0.4420
   35BDD    C26 6875   2.762   1.012   3.383 -0.1057  0.6660  0.9748
   36TPM     C1 6876   2.578   0.410   3.609  0.0727  0.0034  0.3419
   36TPM     C2 6877   2.516   0.527   3.574  0.0280 -0.0147  0.3604
   36TPM     C3 6878   2.372   0.520   3.580  0.0212 -0.1767  0.0243
   36TPM     C4 6879   2.324   0.399   3.619  0.0608 -0.2822 -0.2502
   36TPM     S1 6880   2.458   0.282   3.652  0.1100 -0.1843 -0.1045
   37BDTP    C1 6881   1.728   0.232   3.718 -0.1096  0.2197  0.1458
   37BDTP    C2 6882   1.801   0.152   3.810 -0.1245  0.2012  0.1415
   37BDTP    C3 6883   1.939   0.157   3.821 -0.1175  0.1206  0.0904
   37BDTP    C4 6884   2.009   0.245   3.737 -0.0947  0.0551  0.0411
   37BDTP    C5 6885   1.936   0.325   3.644 -0.0798  0.0736  0.0453
   37BDTP    C6 6886   1.798   0.320   3.633 -0.0868  0.1541  0.0965
   37BDTP    C7 6887   2.152   0.267   3.730 -0.0835 -0.0333 -0.0165
   37BDTP    C8 6888   2.190   0.359   3.638 -0.0613 -0.0813 -0.0553
   37BDTP    S1 6889   2.049   0.430   3.546 -0.0513 -0.0215 -0.0241
   37BDTP    C9 6890   1.585   0.210   3.724 -0.1206  0.3080  0.2034
   37BDTP   C10 6891   1.547   0.118   3.817 -0.1429  0.3560  0.2421
   37BDTP    S2 6892   1.687   0.047   3.908 -0.1529  0.2962  0.2111
   38FTM     S1 6893   1.966   0.060   4.093  0.3524 -0.1074 -0.2322
   38FTM     C1 6894   2.088  -0.071   4.114  0.3876 -0.1366 -0.6078
   38FTM     C2 6895   2.153  -0.093   3.996  0.3741  0.1986 -0.6794
   38FTM     C3 6896   2.113  -0.011   3.885  0.3365  0.4916 -0.4521
   38FTM     C4 6897   2.014   0.076   3.919  0.3206  0.3771 -0.1981
   38FTM     F1 6898   2.253  -0.188   3.982  0.3950  0.2601 -0.9551
   38FTM     C5 6899   2.124  -0.126   4.252 -0.0211  0.0627 -0.3070
   38FTM     C6 6900   2.114  -0.276   4.285  0.3595 -0.2510 -0.1306
   38FTM     C7 6901   2.179  -0.319   4.417 -0.1555 -0.1329  0.1810
   38FTM     C8 6902   2.332  -0.332   4.433  0.2357  0.5247  0.4748
   38FTM     C9 6903   2.397  -0.420   4.331  0.6771 -0.0390 -0.2277
   38FTM    C10 6904   2.543  -0.431   4.353  0.0379 -0.3908  0.5029
   38FTM    C11 6905   1.975  -0.329   4.249 -0.1357 -0.4918 -0.0367
   38FTM    C12 6906   1.924  -0.478   4.259  0.1858 -0.3822  0.0174
   39FTM     S1 6907   1.763   0.394   3.366  0.1563  0.3138 -0.1141
   39FTM     C1 6908   1.633   0.512   3.328  0.2245  0.3788 -0.1456
   39FTM     C2 6909   1.573   0.553   3.443 -0.0607  0.0928 -0.1916
   39FTM     C3 6910   1.623   0.496   3.564 -0.3430 -0.1875 -0.2047
   39FTM     C4 6911   1.725   0.408   3.542 -0.2714 -0.1138 -0.1676
   39FTM     F1 6912   1.469   0.644   3.445 -0.0832  0.0680 -0.2245
   39FTM     C5 6913   1.599   0.565   3.188 -0.5585  0.2164 -0.3081
   39FTM     C6 6914   1.705   0.656   3.114  0.4165  0.3919 -0.6192
   39FTM     C7 6915   1.790   0.754   3.198  0.7869  0.1556 -0.1242
   39FTM     C8 6916   1.933   0.716   3.213 -0.4983 -0.3034 -0.0667
   39FTM     C9 6917   1.992   0.766   3.340 -0.5112 -1.4398  0.1994
   39FTM    C10 6918   2.134   0.729   3.382  0.4916  0.2152 -0.3598
   39FTM    C11 6919   1.648   0.707   2.980  0.5944 -0.0205 -1.4288
   39FTM    C12 6920   1.538   0.820   3.006 -0.9552  0.2839  0.0764
   40TPM     C1 6921   1.422   0.057   3.848 -0.2316  0.0134  0.0506
   40TPM     C2 6922   1.398  -0.056   3.921 -0.2755 -0.0710 -0.0950
   40TPM     C3 6923   1.258  -0.089   3.932 -0.2795 -0.1092 -0.2555
   40TPM     C4 6924   1.176  -0.002   3.867 -0.2386 -0.0540 -0.2323
   40TPM     S1 6925   1.269   0.131   3.787 -0.1915  0.0519 -0.0042
   41BDD     C1 6926   0.813  -0.134   3.959 -0.2926 -0.0674  0.0566
   41BDD     C2 6927   0.792  -0.015   3.896 -0.1965 -0.0453  0.0646
   41BDD     C3 6928   0.914   0.055   3.860 -0.1408 -0.1369  0.0777
   41BDD     C4 6929   1.027  -0.013   3.895 -0.1952 -0.2269  0.0797
   41BDD     S1 6930   0.989  -0.169   3.976 -0.3200 -0.2036  0.0651
   41BDD     C5 6931   0.657   0.041   3.868 -0.1524  0.0601  0.0603
   41BDD     C6 6932   0.914   0.185   3.791 -0.0356 -0.1314  0.0879
   41BDD     O1 6933   1.019   0.245   3.760  0.0125 -0.2103  0.0992
   41BDD     O2 6934   0.552  -0.019   3.899 -0.2004  0.1390  0.0489
   41BDD     C7 6935   0.780   0.241   3.763  0.0086 -0.0257  0.0837
   41BDD     C8 6936   0.658   0.171   3.799 -0.0471  0.0658  0.0705
   41BDD     C9 6937   0.544   0.239   3.764  0.0073  0.1559  0.0686
   41BDD     S2 6938   0.583   0.395   3.683  0.1320  0.1326  0.0832
   41BDD    C10 6939   0.758   0.360   3.700  0.1047 -0.0038  0.0916
   41BDD    C11 6940   0.842   0.458   3.630  0.4411 -0.5461 -0.4243
   41BDD    C12 6941   0.875   0.449   3.480 -0.0428  0.3817 -0.3573
   41BDD    C13 6942   1.001   0.532   3.453  0.7311  0.0670 -0.0278
   41BDD    C14 6943   1.065   0.529   3.313 -0.0897 -0.1716 -0.7346
   41BDD    C15 6944   1.173   0.624   3.268  0.7215  0.0650  0.1465
   41BDD    C16 6945   1.204   0.603   3.126  0.2620 -0.1091 -0.3688
   41BDD    C17 6946   0.758   0.460   3.383 -0.1157 -0.5258  0.3429
   41BDD    C18 6947   0.681   0.595   3.373  0.3943  0.8988 -0.2181
   41BDD    C19 6948   0.395   0.209   3.775 -0.3332  0.5713 -0.2545
   41BDD    C20 6949   0.328   0.232   3.920 -0.0944  0.3264  0.3093
   41BDD    C21 6950   0.325   0.375   3.965 -0.3754  0.2819  0.3815
   41BDD    C22 6951   0.229   0.475   3.896  0.2809 -0.4986  0.1607
   41BDD    C23 6952   0.251   0.494   3.739  0.3113  0.1824 -0.2553
   41BDD    C24 6953   0.155   0.593   3.672 -0.2072  0.5184  0.1322
   41BDD    C25 6954   0.192   0.156   3.947 -0.8387  0.4958  0.6123
   41BDD    C26 6955   0.189   0.001   3.933 -0.7911  0.1381 -0.4831
   42TPM     C1 6956   0.735  -0.244   4.017  0.0956  0.1008 -0.1945
   42TPM     C2 6957   0.617  -0.289   3.968  0.1556  0.1495 -0.3846
   42TPM     C3 6958   0.575  -0.416   4.022  0.0635  0.1199 -0.5221
   42TPM     C4 6959   0.663  -0.468   4.113 -0.0666  0.0487 -0.4367
   42TPM     S1 6960   0.805  -0.360   4.137 -0.0831  0.0131 -0.1743
   43BDTP    C1 6961   0.676  -1.021   4.417  0.0102  0.2210 -0.0308
   43BDTP    C2 6962   0.536  -0.997   4.407  0.0076  0.1557 -0.1612
   43BDTP    C3 6963   0.484  -0.883   4.347  0.0098  0.1223 -0.2267
   43BDTP    C4 6964   0.574  -0.789   4.294  0.0150  0.1547 -0.1607
   43BDTP    C5 6965   0.714  -0.813   4.304  0.0176  0.2203 -0.0303
   43BDTP    C6 6966   0.766  -0.927   4.364  0.0153  0.2537  0.0353
   43BDTP    C7 6967   0.544  -0.664   4.228  0.0181  0.1299 -0.2083
   43BDTP    C8 6968   0.653  -0.594   4.187  0.0229  0.1731 -0.1212
   43BDTP    S1 6969   0.810  -0.677   4.228  0.0241  0.2513  0.0335
   43BDTP    C9 6970   0.707  -1.146   4.484  0.0071  0.2460  0.0169
   43BDTP   C10 6971   0.597  -1.216   4.524  0.0023  0.2027 -0.0702
   43BDTP    S2 6972   0.441  -1.133   4.483  0.0011  0.1246 -0.2249
   44FTM     S1 6973   0.220  -0.752   4.371 -0.1079  0.2152 -0.2174
   44FTM     C1 6974   0.079  -0.850   4.315 -0.2038  0.1981  0.0527
   44FTM     C2 6975   0.122  -0.970   4.269 -0.3266  0.0074  0.4309
   44FTM     C3 6976   0.263  -0.993   4.274 -0.3530 -0.1335  0.5313
   44FTM     C4 6977   0.331  -0.887   4.326 -0.2469 -0.0482  0.2200
   44FTM     F1 6978   0.036  -1.067   4.220 -0.4225 -0.0505  0.7086
   44FTM     C5 6979  -0.060  -0.801   4.350 -0.3824  0.1423  0.0867
   44FTM     C6 6980  -0.107  -0.782   4.487 -0.0024  0.4996 -0.4014
   44FTM     C7 6981  -0.109  -0.911   4.578 -0.4158 -1.2218 -0.1121
   44FTM     C8 6982  -0.223  -1.004   4.561 -0.1710  0.2731 -0.4819
   44FTM     C9 6983  -0.195  -1.122   4.658  0.2343  0.2275  0.2728
   44FTM    C10 6984  -0.254  -1.251   4.602 -0.1226 -0.0055  0.1331
   44FTM    C11 6985  -0.063  -0.661   4.570  0.1236 -0.6762 -0.4685
   44FTM    C12 6986  -0.096  -0.519   4.504 -0.5729  0.5500  0.2725
   45FTM     S1 6987   1.011  -1.031   4.492 -0.0735 -0.3127  0.2271
   45FTM     C1 6988   1.147  -1.058   4.376 -0.2126 -0.4114  0.0856
   45FTM     C2 6989   1.113  -1.010   4.253 -0.3952 -0.5984  0.0629
   45FTM     C3 6990   0.983  -0.952   4.242 -0.4371 -0.6747  0.1520
   45FTM     C4 6991   0.914  -0.955   4.360 -0.2815 -0.5415  0.2461
   45FTM     F1 6992   1.198  -1.017   4.144 -0.5353 -0.7119 -0.0401
   45FTM     C5 6993   1.275  -1.125   4.430 -0.1821 -0.3256 -0.0284
   45FTM     C6 6994   1.277  -1.278   4.437  0.3799  0.4390 -0.2744
   45FTM     C7 6995   1.266  -1.364   4.305  0.3365 -0.5991  0.0074
   45FTM     C8 6996   1.385  -1.346   4.208 -0.3184 -0.8419 -0.7234
   45FTM     C9 6997   1.517  -1.373   4.278 -0.1979  0.4208 -0.1217
   45FTM    C10 6998   1.638  -1.355   4.187  0.0936  0.1165  0.2717
   45FTM    C11 6999   1.196  -1.328   4.565  0.6671 -0.1272  0.2054
   45FTM    C12 7000   1.188  -1.475   4.602  0.0318 -0.2786  0.3248
   46TPM     C1 7001   0.590  -1.343   4.593 -0.1214 -0.0072 -0.1771
   46TPM     C2 7002   0.498  -1.443   4.577 -0.0089 -0.1185 -0.1339
   46TPM     C3 7003   0.521  -1.557   4.661  0.1013 -0.0424 -0.0601
   46TPM     C4 7004   0.630  -1.545   4.742  0.0729  0.1271 -0.0471
   46TPM     S1 7005   0.713  -1.386   4.717 -0.0965  0.2040 -0.1276
   47BDD     C1 7006   0.860  -1.823   4.906  0.2621  0.0525 -0.0693
   47BDD     C2 7007   0.737  -1.838   4.964  0.2904 -0.0305 -0.0304
   47BDD     C3 7008   0.638  -1.745   4.914  0.2078 -0.1059 -0.0085
   47BDD     C4 7009   0.687  -1.660   4.818  0.1177 -0.0793 -0.0312
   47BDD     S1 7010   0.860  -1.691   4.785  0.1301  0.0420 -0.0815
   47BDD     C5 7011   0.706  -1.939   5.067  0.3943 -0.0435 -0.0118
   47BDD     C6 7012   0.498  -1.743   4.962  0.2212 -0.2015  0.0340
   47BDD     O1 7013   0.413  -1.662   4.919  0.1499 -0.2666  0.0528
   47BDD     O2 7014   0.791  -2.020   5.110  0.4656  0.0213 -0.0306
   47BDD     C7 7015   0.467  -1.844   5.065  0.3252 -0.2147  0.0527
   47BDD     C8 7016   0.566  -1.937   5.116  0.4078 -0.1392  0.0309
   47BDD     C9 7017   0.517  -2.022   5.211  0.4978 -0.1658  0.0535
   47BDD     S2 7018   0.344  -1.991   5.244  0.4854 -0.2870  0.1039
   47BDD    C10 7019   0.344  -1.859   5.123  0.3534 -0.2975  0.0917
   47BDD    C11 7020   0.213  -1.785   5.101  0.0376 -0.5765  0.6744
   47BDD    C12 7021   0.100  -1.848   5.018 -0.1359  0.1340 -0.2561
   47BDD    C13 7022   0.136  -1.900   4.880  0.9734  0.2907 -0.2387
   47BDD    C14 7023   0.155  -1.791   4.772  0.2509 -0.0529  0.2498
   47BDD    C15 7024   0.181  -1.854   4.636  0.3072  0.2431  0.1348
   47BDD    C16 7025   0.204  -1.756   4.524  0.4921 -0.3238  0.4315
   47BDD    C17 7026   0.014  -1.954   5.092  0.0436 -0.2335 -0.4033
   47BDD    C18 7027  -0.055  -1.921   5.225  0.7260  0.4092 -0.3354
   47BDD    C19 7028   0.585  -2.126   5.297  0.1272 -0.8111 -0.0915
   47BDD    C20 7029   0.539  -2.126   5.443  0.0690  0.4426 -0.1635
   47BDD    C21 7030   0.566  -2.255   5.527  0.2647  0.7766  0.0882
   47BDD    C22 7031   0.706  -2.283   5.569  0.0707 -0.3968  0.1654
   47BDD    C23 7032   0.708  -2.412   5.634 -0.3505 -0.3916 -0.3109
   47BDD    C24 7033   0.827  -2.441   5.722  0.5585 -0.2117 -0.7844
   47BDD    C25 7034   0.563  -1.997   5.515 -0.4831  0.0824 -0.5677
   47BDD    C26 7035   0.474  -1.982   5.639  0.4628  0.2862  0.0697
   48TPM     C1 7036   0.989  -1.883   4.911 -0.0590 -0.2912 -0.3982
   48TPM     C2 7037   1.001  -2.014   4.874 -0.0341 -0.1451 -0.9259
   48TPM     C3 7038   1.133  -2.049   4.829  0.0561 -0.0080 -0.7728
   48TPM     C4 7039   1.222  -1.945   4.831  0.1001 -0.0496 -0.1286
   48TPM     S1 7040   1.144  -1.794   4.891  0.0305 -0.2670  0.3386
   49BDTP    C1 7041   1.805  -2.002   4.595 -0.0278  0.2288 -0.0559
   49BDTP    C2 7042   1.819  -1.890   4.682 -0.0899  0.1354  0.0745
   49BDTP    C3 7043   1.714  -1.841   4.758 -0.1412  0.0453  0.0622
   49BDTP    C4 7044   1.590  -1.905   4.749 -0.1310  0.0470 -0.0855
   49BDTP    C5 7045   1.576  -2.017   4.662 -0.0689  0.1404 -0.2161
   49BDTP    C6 7046   1.681  -2.066   4.585 -0.0176  0.2305 -0.2039
   49BDTP    C7 7047   1.467  -1.872   4.818 -0.1767 -0.0365 -0.1269
   49BDTP    C8 7048   1.362  -1.953   4.788 -0.1523 -0.0108 -0.2800
   49BDTP    S1 7049   1.405  -2.082   4.667 -0.0679  0.1229 -0.3936
   49BDTP    C9 7050   1.928  -2.035   4.525  0.0179  0.3124 -0.0148
   49BDTP   C10 7051   2.033  -1.954   4.556 -0.0065  0.2868  0.1384
   49BDTP    S2 7052   1.990  -1.825   4.677 -0.0909  0.1530  0.2521
   50FTM     S1 7053   1.687  -1.583   4.865 -0.1214 -0.2715  0.1296
   50FTM     C1 7054   1.777  -1.547   5.017 -0.5177  0.1823  0.2628
   50FTM     C2 7055   1.847  -1.656   5.056  0.0554  0.5571  0.3097
   50FTM     C3 7056   1.835  -1.772   4.972  0.8191  0.5152  0.2464
   50FTM     C4 7057   1.754  -1.750   4.866  0.8311  0.0947  0.1479
   50FTM     F1 7058   1.926  -1.659   5.170 -0.0776  0.9603  0.4126
   50FTM     C5 7059   1.791  -1.409   5.086 -1.2158  0.0092  0.1580
   50FTM     C6 7060   1.844  -1.286   5.009 -0.0826 -0.2949  0.2425
   50FTM     C7 7061   1.847  -1.165   5.105 -0.7104  0.8159 -0.0784
   50FTM     C8 7062   1.721  -1.107   5.172 -0.2622  0.6331 -0.2616
   50FTM     C9 7063   1.741  -0.972   5.243  0.1545  0.0482 -0.0910
   50FTM    C10 7064   1.773  -0.982   5.392 -0.9944 -0.6676  0.0693
   50FTM    C11 7065   1.972  -1.312   4.921 -0.3682 -0.2325 -0.5849
   50FTM    C12 7066   2.039  -1.190   4.843 -0.3240  0.2444  0.4817
   51FTM     S1 7067   1.737  -2.189   4.328 -0.3417  0.3139 -0.1645
   51FTM     C1 7068   1.661  -2.350   4.303  0.4718 -0.1056  0.0026
   51FTM     C2 7069   1.586  -2.383   4.411  0.7482 -0.4386  0.0950
   51FTM     C3 7070   1.584  -2.288   4.518  0.3539 -0.3891  0.0429
   51FTM     C4 7071   1.659  -2.178   4.490 -0.2440 -0.0057 -0.0938
   51FTM     F1 7072   1.516  -2.503   4.420  1.3748 -0.8081  0.2325
   51FTM     C5 7073   1.697  -2.436   4.188  0.5064 -0.0213 -0.2895
   51FTM     C6 7074   1.625  -2.426   4.053 -1.3252 -0.1153  0.1748
   51FTM     C7 7075   1.475  -2.436   4.060 -0.4893 -0.1354  0.1855
   51FTM     C8 7076   1.408  -2.565   4.104 -0.5295 -0.4391  0.0832
   51FTM     C9 7077   1.260  -2.555   4.131 -0.0326 -0.0991 -0.3581
   51FTM    C10 7078   1.190  -2.685   4.159  0.0326 -0.6029  0.7077
   51FTM    C11 7079   1.667  -2.307   3.958 -0.1553  0.2197 -0.1837
   51FTM    C12 7080   1.811  -2.298   3.903 -0.3714  0.4125 -0.1228
   52TPM     C1 7081   2.171  -1.954   4.507 -0.3538  0.0884  0.0290
   52TPM     C2 7082   2.279  -1.943   4.588 -0.4116 -0.2304  0.1558
   52TPM     C3 7083   2.405  -1.957   4.519 -0.3689 -0.4156  0.2702
   52TPM     C4 7084   2.392  -1.979   4.385 -0.2786 -0.2380  0.2308
   52TPM     S1 7085   2.219  -1.985   4.336 -0.2400  0.1801  0.0446
   53BDD     C1 7086   2.741  -2.067   4.218  0.2293 -0.0703 -0.2540
   53BDD     C2 7087   2.679  -1.981   4.132  0.1359 -0.0489 -0.1653
   53BDD     C3 7088   2.547  -1.940   4.177  0.2404  0.0485  0.0561
   53BDD     C4 7089   2.511  -1.995   4.296  0.4122  0.1002  0.1330
   53BDD     S1 7090   2.639  -2.103   4.361  0.4545  0.0303 -0.0666
   53BDD     C5 7091   2.739  -1.933   4.005 -0.0528 -0.1175 -0.2807
   53BDD     C6 7092   2.462  -1.847   4.100  0.1664  0.0868  0.1833
   53BDD     O1 7093   2.348  -1.812   4.138  0.2566  0.1709  0.3743
   53BDD     O2 7094   2.852  -1.968   3.967 -0.1431 -0.2015 -0.4716
   53BDD     C7 7095   2.521  -1.799   3.973 -0.0224  0.0184  0.0679
   53BDD     C8 7096   2.653  -1.840   3.928 -0.1269 -0.0790 -0.1534
   53BDD     C9 7097   2.690  -1.784   3.809 -0.2986 -0.1308 -0.2303
   53BDD     S2 7098   2.561  -1.677   3.744 -0.3410 -0.0609 -0.0308
   53BDD    C10 7099   2.459  -1.713   3.887 -0.1158  0.0396  0.1566
   53BDD    C11 7100   2.318  -1.660   3.888 -0.1872  0.4186  0.0695
   53BDD    C12 7101   2.294  -1.511   3.916  0.0820  0.1811 -0.8434
   53BDD    C13 7102   2.370  -1.403   3.835  0.8338 -0.2873 -0.2141
   53BDD    C14 7103   2.339  -1.383   3.683 -0.4129 -0.9731 -0.1691
   53BDD    C15 7104   2.417  -1.263   3.623 -0.2098  0.2916  0.7776
   53BDD    C16 7105   2.372  -1.230   3.482 -0.2996  0.6534  0.1150
   53BDD    C17 7106   2.140  -1.504   3.927  0.1357 -0.3329  0.0112
   53BDD    C18 7107   2.082  -1.391   4.012  0.1867  0.4634  0.9324
   53BDD    C19 7108   2.808  -1.807   3.717  0.4948 -0.2159 -0.1808
   53BDD    C20 7109   2.768  -1.866   3.577  0.1397 -0.3462 -0.2772
   53BDD    C21 7110   2.873  -1.832   3.468  0.2729 -0.9467 -0.0012
   53BDD    C22 7111   2.852  -1.839   3.315  0.2676 -0.0304  0.0254
   53BDD    C23 7112   2.731  -1.770   3.252  0.8593  0.2259  0.2368
   53BDD    C24 7113   2.678  -1.634   3.301 -0.1894  0.5586 -0.6554
   53BDD    C25 7114   2.714  -2.013   3.581 -0.1020 -0.1842 -0.3501
   53BDD    C26 7115   2.820  -2.112   3.626  0.5519  0.1804  0.6729
   54TPM     C1 7116   2.868  -2.139   4.213  0.0417 -0.1454 -0.1187
   54TPM     C2 7117   2.987  -2.073   4.213  0.0108 -0.0870 -0.3788
   54TPM     C3 7118   3.101  -2.160   4.232  0.0715  0.0056 -0.3181
   54TPM     C4 7119   3.069  -2.291   4.246  0.1484  0.0181 -0.0116
   54TPM     S1 7120   2.890  -2.317   4.237  0.1504 -0.0874  0.2257
   55BDTP    C1 7121   3.409  -2.774   4.463  0.0881  0.0323 -0.1113
   55BDTP    C2 7122   3.497  -2.718   4.366 -0.0135 -0.1074 -0.2856
   55BDTP    C3 7123   3.464  -2.606   4.290 -0.0486 -0.1508 -0.3347
   55BDTP    C4 7124   3.338  -2.546   4.312  0.0195 -0.0517 -0.2062
   55BDTP    C5 7125   3.250  -2.603   4.409  0.1211  0.0879 -0.0319
   55BDTP    C6 7126   3.283  -2.714   4.484  0.1561  0.1312  0.0173
   55BDTP    C7 7127   3.282  -2.430   4.246  0.0005 -0.0721 -0.2262
   55BDTP    C8 7128   3.158  -2.397   4.289  0.0819  0.0440 -0.0772
   55BDTP    S1 7129   3.094  -2.508   4.418  0.1940  0.1954  0.1093
   55BDTP    C9 7130   3.465  -2.890   4.528  0.1070  0.0526 -0.0913
   55BDTP   C10 7131   3.589  -2.923   4.486  0.0256 -0.0634 -0.2404
   55BDTP    S2 7132   3.653  -2.812   4.357 -0.0865 -0.2150 -0.4270
   56FTM     S1 7133   3.667  -2.653   4.080  0.1414 -0.2199  0.0780
   56FTM     C1 7134   3.745  -2.502   4.020  0.0537 -0.2279 -0.0543
   56FTM     C2 7135   3.694  -2.394   4.085  0.0427 -0.2065 -0.0985
   56FTM     C3 7136   3.594  -2.421   4.184  0.1004 -0.1832 -0.0334
   56FTM     C4 7137   3.567  -2.555   4.195  0.1574 -0.1868  0.0636
   56FTM     F1 7138   3.735  -2.264   4.059 -0.0203 -0.2069 -0.2002
   56FTM     C5 7139   3.860  -2.500   3.923 -0.0498 -0.7814  1.0184
   56FTM     C6 7140   4.001  -2.538   3.970  0.0995  0.2614  0.1117
   56FTM     C7 7141   4.093  -2.571   3.855 -0.3130  0.2388  0.1872
   56FTM     C8 7142   4.085  -2.711   3.803  0.1563  0.2751  0.0535
   56FTM     C9 7143   4.196  -2.742   3.706 -0.5633 -0.3684 -0.3049
   56FTM    C10 7144   4.205  -2.893   3.673 -0.6331  0.3398  0.1203
   56FTM    C11 7145   4.059  -2.470   4.089 -1.1755 -0.5902  0.2716
   56FTM    C12 7146   4.196  -2.501   4.155  0.0204  0.0641  0.6944
   57FTM     S1 7147   3.221  -2.796   4.758 -0.0850  0.1000  0.2567
   57FTM     C1 7148   3.047  -2.835   4.786 -0.1343  0.2177  0.1138
   57FTM     C2 7149   2.979  -2.828   4.668  0.0119  0.0384  0.0169
   57FTM     C3 7150   3.056  -2.793   4.552  0.1674 -0.1957  0.0473
   57FTM     C4 7151   3.188  -2.772   4.582  0.1393 -0.1959  0.1715
   57FTM     F1 7152   2.843  -2.853   4.658  0.0135  0.0758 -0.1049
   57FTM     C5 7153   3.005  -2.876   4.929  0.6013 -0.3240  0.6400
   57FTM     C6 7154   3.038  -3.013   4.992  0.4375  0.1905 -0.3810
   57FTM     C7 7155   3.186  -3.062   4.999  0.3081 -0.2913  0.6584
   57FTM     C8 7156   3.296  -2.999   5.092  0.4346 -0.0157  0.6804
   57FTM     C9 7157   3.254  -2.958   5.233  0.3905  0.0769 -0.0561
   57FTM    C10 7158   3.364  -2.926   5.331 -0.3169  0.5372 -0.8235
   57FTM    C11 7159   2.956  -3.139   4.948  0.4402 -0.2606  0.4572
   57FTM    C12 7160   2.806  -3.111   4.959  0.0164 -0.2469 -0.6629
   58TPM     C1 7161   3.651  -3.052   4.513 -0.2786  0.1376  0.0631
   58TPM     C2 7162   3.728  -3.125   4.428 -0.6807  0.1042 -0.2782
   58TPM     C3 7163   3.754  -3.259   4.473 -0.6824  0.0359 -0.4765
   58TPM     C4 7164   3.696  -3.288   4.593 -0.2814  0.0171 -0.2862
   58TPM     S1 7165   3.604  -3.148   4.659  0.1323  0.0851  0.1617
   59BDD     C1 7166   3.604  -3.593   4.824 -0.0694  0.2724 -0.1001
   59BDD     C2 7167   3.710  -3.639   4.750 -0.1163  0.1887 -0.1161
   59BDD     C3 7168   3.760  -3.541   4.655 -0.1339  0.1050 -0.2120
   59BDD     C4 7169   3.692  -3.422   4.658 -0.1001  0.1260 -0.2681
   59BDD     S1 7170   3.560  -3.425   4.781 -0.0441  0.2522 -0.2046
   59BDD     C5 7171   3.769  -3.773   4.764 -0.1467  0.1825 -0.0434
   59BDD     C6 7172   3.873  -3.568   4.565 -0.1835  0.0069 -0.2446
   59BDD     O1 7173   3.916  -3.484   4.483 -0.1986 -0.0653 -0.3275
   59BDD     O2 7174   3.726  -3.858   4.846 -0.1316  0.2548  0.0395
   59BDD     C7 7175   3.932  -3.703   4.578 -0.2139  0.0010 -0.1719
   59BDD     C8 7176   3.882  -3.801   4.673 -0.1963  0.0848 -0.0758
   59BDD     C9 7177   3.950  -3.920   4.670 -0.2301  0.0638 -0.0199
   59BDD     S2 7178   4.082  -3.917   4.548 -0.2861 -0.0626 -0.0835
   59BDD    C10 7179   4.038  -3.749   4.504 -0.2607 -0.0826 -0.1878
   59BDD    C11 7180   4.130  -3.681   4.403 -0.0204 -0.4566  0.1200
   59BDD    C12 7181   4.075  -3.677   4.260 -0.5889  0.1578  0.5617
   59BDD    C13 7182   4.062  -3.813   4.189  0.0080  0.5584 -0.4290
   59BDD    C14 7183   4.185  -3.883   4.138 -0.1910  0.1178 -0.0436
   59BDD    C15 7184   4.176  -4.034   4.117  0.2467 -0.0310  0.3959
   59BDD    C16 7185   4.310  -4.103   4.109 -0.2324 -0.6139 -0.1324
   59BDD    C17 7186   4.135  -3.563   4.185 -0.3272 -0.4162 -0.1905
   59BDD    C18 7187   4.094  -3.532   4.045 -0.0560 -0.1574  0.0717
   59BDD    C19 7188   3.947  -4.038   4.759  0.7429  0.0637 -0.3174
   59BDD    C20 7189   3.879  -4.163   4.701 -0.2501  0.5397 -1.0393
   59BDD    C21 7190   3.936  -4.225   4.575 -0.2582  0.2545  0.4649
   59BDD    C22 7191   4.090  -4.266   4.581  0.5447  0.6971  0.1661
   59BDD    C23 7192   4.146  -4.326   4.455 -0.4255  0.6530  0.6997
   59BDD    C24 7193   4.296  -4.318   4.444 -0.4837  0.4870  0.0163
   59BDD    C25 7194   3.837  -4.268   4.810 -0.0673 -0.1580  0.4807
   59BDD    C26 7195   3.737  -4.229   4.913  0.1041  0.2987  0.5068
   60TPM     C1 7196   3.521  -3.639   4.934  0.2108 -0.2003  0.3243
   60TPM     C2 7197   3.472  -3.766   4.946  0.6884 -0.3514  0.7609
   60TPM     C3 7198   3.390  -3.785   5.063  0.8439 -0.2890  0.8820
   60TPM     C4 7199   3.376  -3.674   5.140  0.4849 -0.0900  0.5375
   60TPM     S1 7200   3.467  -3.534   5.071 -0.0819  0.0347  0.0295
    1BDTP    C1 7201   0.589   1.179   0.129  0.0713 -0.0384  0.2509
    1BDTP    C2 7202   0.641   1.047   0.123  0.0967 -0.0211  0.0805
    1BDTP    C3 7203   0.775   1.020   0.098  0.0965  0.0356  0.0182
    1BDTP    C4 7204   0.862   1.130   0.078  0.0699  0.0772  0.1289
    1BDTP    C5 7205   0.809   1.262   0.084  0.0444  0.0598  0.2993
    1BDTP    C6 7206   0.675   1.288   0.109  0.0447  0.0032  0.3616
    1BDTP    C7 7207   1.004   1.127   0.051  0.0642  0.1384  0.0932
    1BDTP    C8 7208   1.060   1.249   0.036  0.0362  0.1674  0.2268
    1BDTP    S1 7209   0.941   1.385   0.055  0.0129  0.1214  0.4167
    1BDTP    C9 7210   0.447   1.182   0.156  0.0769 -0.0995  0.2866
    1BDTP   C10 7211   0.390   1.059   0.171  0.1050 -0.1286  0.1530
    1BDTP    S2 7212   0.510   0.924   0.152  0.1282 -0.0826 -0.0369
    2FTM     S1 7213   0.798   0.820  -0.103  0.2457  0.0765 -0.1026
    2FTM     C1 7214   0.868   0.662  -0.051 -0.4155 -0.2972 -0.3228
    2FTM     C2 7215   0.899   0.667   0.082 -0.5566 -0.6750 -0.2737
    2FTM     C3 7216   0.871   0.791   0.149 -0.1686 -0.6963 -0.0668
    2FTM     C4 7217   0.817   0.884   0.065  0.2844 -0.3227  0.0462
    2FTM     F1 7218   0.954   0.560   0.150 -1.0455 -1.0239 -0.4127
    2FTM     C5 7219   0.868   0.542  -0.145  0.3083  0.4553  0.0513
    2FTM     C6 7220   0.756   0.441  -0.114  0.5142 -0.2198 -0.9901
    2FTM     C7 7221   0.777   0.299  -0.172 -0.4143 -0.1963 -0.2055
    2FTM     C8 7222   0.894   0.215  -0.112 -0.5213 -0.7037  1.1572
    2FTM     C9 7223   0.892   0.070  -0.164 -0.0875  0.1383  0.5456
    2FTM    C10 7224   0.996  -0.006  -0.088 -0.1370  0.1773  0.1698
    2FTM    C11 7225   0.604   0.487  -0.116 -0.9381  0.3786 -0.6380
    2FTM    C12 7226   0.542   0.502  -0.249 -0.2545 -0.2494 -0.3208
    3FTM     S1 7227   0.508   1.510   0.035  0.0511  0.1474 -0.0513
    3FTM     C1 7228   0.524   1.656   0.140 -0.1381  0.1313  0.0017
    3FTM     C2 7229   0.623   1.636   0.231 -0.0558  0.2587 -0.0600
    3FTM     C3 7230   0.691   1.510   0.226  0.1544  0.3740 -0.1500
    3FTM     C4 7231   0.642   1.430   0.127  0.2356  0.3335 -0.1575
    3FTM     F1 7232   0.659   1.732   0.325 -0.1658  0.2786 -0.0385
    3FTM     C5 7233   0.433   1.782   0.114  0.2366  0.0523 -0.0165
    3FTM     C6 7234   0.483   1.898   0.014 -0.1245  0.9157  0.3770
    3FTM     C7 7235   0.488   1.862  -0.139 -0.5741 -0.6691 -0.0748
    3FTM     C8 7236   0.362   1.810  -0.211 -0.0487  0.0937 -0.3425
    3FTM     C9 7237   0.242   1.900  -0.207 -0.0490 -0.3176  0.5364
    3FTM    C10 7238   0.141   1.860  -0.317  0.0103  0.5277 -0.3720
    3FTM    C11 7239   0.606   1.979   0.042  0.2100 -0.0050  0.3401
    3FTM    C12 7240   0.616   2.036   0.188  0.3486  0.0908  0.3258
    4TPM     C1 7241   0.251   1.022   0.192  0.6636 -0.2666  0.1693
    4TPM     C2 7242   0.136   1.093   0.212  0.8506  0.1520 -0.2159
    4TPM     C3 7243   0.021   1.011   0.241  0.4691  0.5718 -0.5011
    4TPM     C4 7244   0.049   0.878   0.244 -0.0087  0.4731 -0.3335
    4TPM     S1 7245   0.223   0.845   0.210 -0.0140 -0.1624  0.2019
    5BDD     C1 7246  -0.289   0.711   0.369 -0.0354  0.1802  0.1538
    5BDD     C2 7247  -0.191   0.658   0.448 -0.0303  0.1447  0.1240
    5BDD     C3 7248  -0.057   0.704   0.414 -0.0098 -0.0051 -0.0016
    5BDD     C4 7249  -0.056   0.792   0.309  0.0004 -0.0816 -0.0658
    5BDD     S1 7250  -0.221   0.823   0.246 -0.0148  0.0285  0.0267
    5BDD     C5 7251  -0.216   0.562   0.558 -0.0446  0.2472  0.2100
    5BDD     C6 7252   0.063   0.660   0.487 -0.0014 -0.0668 -0.0535
    5BDD     O1 7253   0.178   0.700   0.457  0.0162 -0.1960 -0.1619
    5BDD     O2 7254  -0.331   0.522   0.588 -0.0622  0.3763  0.3184
    5BDD     C7 7255   0.038   0.564   0.597 -0.0155  0.0357  0.0325
    5BDD     C8 7256  -0.095   0.518   0.631 -0.0358  0.1855  0.1581
    5BDD     C9 7257  -0.097   0.430   0.736 -0.0463  0.2620  0.2223
    5BDD     S2 7258   0.068   0.399   0.799 -0.0310  0.1518  0.1298
    5BDD    C10 7259   0.136   0.511   0.676 -0.0103  0.0002  0.0026
    5BDD    C11 7260   0.290   0.544   0.685  0.5483 -0.7164 -0.0820
    5BDD    C12 7261   0.402   0.445   0.650  0.1751 -0.3504 -0.6135
    5BDD    C13 7262   0.415   0.376   0.512  0.2623 -0.6393  0.6319
    5BDD    C14 7263   0.402   0.466   0.385 -0.4154 -0.4400 -0.2919
    5BDD    C15 7264   0.422   0.395   0.252  0.0369 -0.5416  0.4863
    5BDD    C16 7265   0.561   0.334   0.226  0.5120 -0.2163  0.0664
    5BDD    C17 7266   0.434   0.350   0.767  0.0970 -0.1966  0.0176
    5BDD    C18 7267   0.468   0.383   0.906  0.4245  0.3462 -0.4281
    5BDD    C19 7268  -0.204   0.340   0.798  0.3707  0.3168 -0.3621
    5BDD    C20 7269  -0.261   0.383   0.932 -0.0558  0.0219 -0.4521
    5BDD    C21 7270  -0.343   0.269   0.994 -0.0800 -0.1619 -0.1866
    5BDD    C22 7271  -0.484   0.247   0.946  0.5923  0.3637 -0.0033
    5BDD    C23 7272  -0.555   0.132   1.019 -1.6501 -0.1612  0.0619
    5BDD    C24 7273  -0.683   0.100   0.950 -0.3326 -0.3116 -0.1637
    5BDD    C25 7274  -0.312   0.531   0.938  0.6746  0.4039  0.3853
    5BDD    C26 7275  -0.308   0.580   1.083 -0.5384  0.0815  0.0387
    6TPM     C1 7276  -0.430   0.697   0.362 -0.2018 -0.2545 -0.0157
    6TPM     C2 7277  -0.505   0.728   0.471 -0.3350 -0.3585 -0.0766
    6TPM     C3 7278  -0.642   0.759   0.441 -0.3242 -0.4326 -0.2015
    6TPM     C4 7279  -0.672   0.752   0.308 -0.1829 -0.3851 -0.2359
    6TPM     S1 7280  -0.528   0.705   0.210 -0.0520 -0.2420 -0.1122
    7BDTP    C1 7281  -1.196   0.896  -0.005  0.2208  0.1431 -0.1008
    7BDTP    C2 7282  -1.234   0.775   0.060  0.1194  0.1594 -0.1291
    7BDTP    C3 7283  -1.149   0.705   0.145  0.0212  0.1308 -0.0531
    7BDTP    C4 7284  -1.019   0.757   0.166  0.0226  0.0838  0.0561
    7BDTP    C5 7285  -0.981   0.878   0.100  0.1235  0.0674  0.0845
    7BDTP    C6 7286  -1.067   0.947   0.015  0.2220  0.0961  0.0084
    7BDTP    C7 7287  -0.914   0.703   0.249 -0.0685  0.0475  0.1489
    7BDTP    C8 7288  -0.800   0.776   0.248 -0.0412  0.0053  0.2444
    7BDTP    S1 7289  -0.810   0.924   0.143  0.1040  0.0056  0.2302
    7BDTP    C9 7290  -1.302   0.950  -0.088  0.3119  0.1794 -0.1936
    7BDTP   C10 7291  -1.416   0.877  -0.088  0.2844  0.2216 -0.2890
    7BDTP    S2 7292  -1.405   0.729   0.017  0.1392  0.2213 -0.2749
    8FTM     S1 7293  -1.219   0.578   0.397 -0.2564  0.1885  0.2638
    8FTM     C1 7294  -1.279   0.409   0.381  0.3268 -0.0493  0.5200
    8FTM     C2 7295  -1.282   0.373   0.250  1.0448 -0.4837  0.6167
    8FTM     C3 7296  -1.238   0.472   0.157  1.1823 -0.6539  0.5004
    8FTM     C4 7297  -1.200   0.588   0.218  0.5485 -0.3397  0.3082
    8FTM     F1 7298  -1.324   0.248   0.208  1.6203 -0.7529  0.8164
    8FTM     C5 7299  -1.313   0.316   0.486  0.2768 -0.1138 -0.5172
    8FTM     C6 7300  -1.445   0.318   0.565 -0.0375 -0.3352 -0.1086
    8FTM     C7 7301  -1.448   0.213   0.675  0.1788  0.1114 -0.1140
    8FTM     C8 7302  -1.329   0.203   0.778  0.7317  0.1081 -0.3465
    8FTM     C9 7303  -1.344   0.108   0.890  0.1513  0.3028 -0.2773
    8FTM    C10 7304  -1.216   0.106   0.988  0.8476 -0.6908 -0.1327
    8FTM    C11 7305  -1.577   0.334   0.484 -0.1647 -0.2453 -0.7309
    8FTM    C12 7306  -1.604   0.214   0.399  0.1836 -0.4201 -0.0693
    9FTM     S1 7307  -1.052   1.108  -0.222 -0.3315  0.1387  0.0550
    9FTM     C1 7308  -0.987   1.275  -0.202  0.0943 -0.0080 -0.0895
    9FTM     C2 7309  -0.949   1.295  -0.073  0.2761 -0.0388 -0.1376
    9FTM     C3 7310  -0.968   1.184   0.016  0.0987  0.0477 -0.0668
    9FTM     C4 7311  -1.022   1.076  -0.047 -0.2291  0.1480  0.0391
    9FTM     F1 7312  -0.895   1.414  -0.029  0.6130 -0.1472 -0.2487
    9FTM     C5 7313  -0.986   1.378  -0.311  0.5271  0.0008 -0.0158
    9FTM     C6 7314  -0.911   1.337  -0.443  0.4956  0.1924  0.0149
    9FTM     C7 7315  -0.931   1.440  -0.556  0.5922  0.3970 -0.0751
    9FTM     C8 7316  -1.085   1.442  -0.602  0.0492 -0.4014  0.5043
    9FTM     C9 7317  -1.151   1.583  -0.613 -0.9427  0.1000 -0.4440
    9FTM    C10 7318  -1.071   1.676  -0.701  0.4738 -0.1839  0.4879
    9FTM    C11 7319  -0.772   1.270  -0.451 -0.1424 -0.4903 -0.1632
    9FTM    C12 7320  -0.727   1.132  -0.402  0.4454 -0.1999 -0.8295
   10TPM     C1 7321  -1.540   0.906  -0.156 -0.5355  0.6318  0.2065
   10TPM     C2 7322  -1.582   1.023  -0.212 -1.0529  0.5665  0.4520
   10TPM     C3 7323  -1.719   1.019  -0.257 -0.9822 -0.0055  0.2725
   10TPM     C4 7324  -1.781   0.899  -0.237 -0.4110 -0.3763 -0.1105
   10TPM     S1 7325  -1.670   0.781  -0.157  0.0860 -0.0292 -0.2748
   11BDD     C1 7326  -2.132   0.881  -0.403  0.0886 -0.2203 -0.0683
   11BDD     C2 7327  -2.146   0.816  -0.283  0.0731 -0.1834 -0.0503
   11BDD     C3 7328  -2.024   0.813  -0.205  0.0434 -0.0949 -0.0007
   11BDD     C4 7329  -1.919   0.876  -0.266  0.0367 -0.0655  0.0182
   11BDD     S1 7330  -1.966   0.943  -0.425  0.0671 -0.1467 -0.0250
   11BDD     C5 7331  -2.272   0.754  -0.237  0.0850 -0.2282 -0.0775
   11BDD     C6 7332  -2.016   0.748  -0.072  0.0228 -0.0426  0.0267
   11BDD     O1 7333  -1.911   0.746  -0.004 -0.0029  0.0338  0.0694
   11BDD     O2 7334  -2.377   0.756  -0.305  0.1105 -0.3045 -0.1204
   11BDD     C7 7335  -2.142   0.687  -0.026  0.0346 -0.0873 -0.0010
   11BDD     C8 7336  -2.264   0.689  -0.104  0.0643 -0.1758 -0.0505
   11BDD     C9 7337  -2.369   0.626  -0.043  0.0708 -0.2052 -0.0696
   11BDD     S2 7338  -2.323   0.560   0.116  0.0403 -0.1240 -0.0263
   11BDD    C10 7339  -2.156   0.622   0.094  0.0190 -0.0504  0.0172
   11BDD    C11 7340  -2.069   0.602   0.209 -0.3689  0.8206 -0.4649
   11BDD    C12 7341  -2.005   0.457   0.225  0.6237 -0.2810 -0.4943
   11BDD    C13 7342  -1.960   0.424   0.368 -0.1242 -0.2145 -0.0389
   11BDD    C14 7343  -2.053   0.456   0.481  0.0704 -0.3100 -0.4950
   11BDD    C15 7344  -1.987   0.508   0.612  0.0976  0.3063 -0.5747
   11BDD    C16 7345  -2.092   0.504   0.727  0.3823  0.2855  0.4173
   11BDD    C17 7346  -1.910   0.421   0.116 -0.9016  0.6856  0.6093
   11BDD    C18 7347  -1.765   0.474   0.108  0.0557 -0.2757  0.0919
   11BDD    C19 7348  -2.517   0.605  -0.070  0.7100  0.3754 -0.2531
   11BDD    C20 7349  -2.624   0.629   0.048  0.0001  0.0102  0.1246
   11BDD    C21 7350  -2.616   0.771   0.109 -0.0136 -0.2919 -0.2218
   11BDD    C22 7351  -2.658   0.887   0.025 -0.5077 -0.2257  0.4074
   11BDD    C23 7352  -2.607   1.019   0.085  0.9701 -0.0325  0.3912
   11BDD    C24 7353  -2.631   1.128  -0.008 -0.0284  0.1172 -0.3846
   11BDD    C25 7354  -2.758   0.570   0.011  0.7253  0.3729 -0.1650
   11BDD    C26 7355  -2.861   0.568   0.129 -0.0472 -0.1366 -0.1401
   12TPM     C1 7356  -2.220   0.912  -0.514 -0.2721 -0.0299  0.3623
   12TPM     C2 7357  -2.297   0.819  -0.577 -0.1771 -0.0556  0.2828
   12TPM     C3 7358  -2.345   0.861  -0.706  0.0961 -0.1460  0.1507
   12TPM     C4 7359  -2.304   0.986  -0.741  0.2096 -0.1893  0.1293
   12TPM     S1 7360  -2.201   1.061  -0.613 -0.0217 -0.1186  0.2759
   13BDTP    C1 7361  -2.504   1.260  -1.271 -0.0030  0.1861 -0.0138
   13BDTP    C2 7362  -2.462   1.373  -1.195  0.0637  0.1321  0.0288
   13BDTP    C3 7363  -2.407   1.361  -1.068  0.0941  0.0489  0.0076
   13BDTP    C4 7364  -2.394   1.232  -1.013  0.0573  0.0172 -0.0582
   13BDTP    C5 7365  -2.437   1.119  -1.090 -0.0094  0.0712 -0.1004
   13BDTP    C6 7366  -2.491   1.131  -1.217 -0.0399  0.1544 -0.0799
   13BDTP    C7 7367  -2.340   1.194  -0.884  0.0782 -0.0668 -0.0906
   13BDTP    C8 7368  -2.341   1.061  -0.860  0.0310 -0.0783 -0.1547
   13BDTP    S1 7369  -2.409   0.964  -0.998 -0.0465  0.0155 -0.1831
   13BDTP    C9 7370  -2.558   1.298  -1.401 -0.0241  0.2701  0.0186
   13BDTP   C10 7371  -2.557   1.431  -1.425  0.0230  0.2816  0.0830
   13BDTP    S2 7372  -2.489   1.528  -1.287  0.1006  0.1877  0.1111
   14FTM     S1 7373  -2.483   1.538  -0.866 -0.0587 -0.1874  0.0670
   14FTM     C1 7374  -2.354   1.645  -0.801  0.1187 -0.2667 -0.1508
   14FTM     C2 7375  -2.239   1.628  -0.872  0.0212 -0.4207 -0.2723
   14FTM     C3 7376  -2.245   1.532  -0.979 -0.1923 -0.4849 -0.2053
   14FTM     C4 7377  -2.368   1.475  -0.990 -0.2602 -0.3765 -0.0264
   14FTM     F1 7378  -2.122   1.697  -0.844  0.1193 -0.5127 -0.4513
   14FTM     C5 7379  -2.392   1.735  -0.693  0.0552  0.1627 -0.0914
   14FTM     C6 7380  -2.343   1.716  -0.545 -0.0107  0.3505 -0.4935
   14FTM     C7 7381  -2.199   1.756  -0.522  0.0328  0.3813 -0.1796
   14FTM     C8 7382  -2.157   1.905  -0.550 -0.2317 -0.1794 -0.7535
   14FTM     C9 7383  -2.211   2.007  -0.448 -0.0136  0.5517 -0.2370
   14FTM    C10 7384  -2.204   2.148  -0.501 -0.6167 -0.0059 -0.0151
   14FTM    C11 7385  -2.379   1.582  -0.471  0.2476 -1.3007 -0.2134
   14FTM    C12 7386  -2.528   1.563  -0.450  0.0897 -0.0505 -0.2795
   15FTM     S1 7387  -2.679   0.989  -1.371 -0.1791 -0.1005 -0.1856
   15FTM     C1 7388  -2.624   0.837  -1.451 -0.2620 -0.2210 -0.0153
   15FTM     C2 7389  -2.495   0.811  -1.419 -0.3419 -0.3704  0.1857
   15FTM     C3 7390  -2.432   0.905  -1.331 -0.3437 -0.3995  0.2184
   15FTM     C4 7391  -2.515   1.007  -1.296 -0.2622 -0.2682  0.0364
   15FTM     F1 7392  -2.426   0.700  -1.466 -0.4184 -0.4896  0.3519
   15FTM     C5 7393  -2.718   0.769  -1.554 -0.7336 -0.4464  0.0886
   15FTM     C6 7394  -2.854   0.714  -1.520 -0.1358 -0.2645  0.9505
   15FTM     C7 7395  -2.950   0.778  -1.422  0.2233 -0.3764 -0.2465
   15FTM     C8 7396  -2.936   0.747  -1.272 -0.5309 -0.5486 -0.3128
   15FTM     C9 7397  -2.978   0.608  -1.243 -0.5638  0.2039 -0.2038
   15FTM    C10 7398  -2.973   0.570  -1.101 -0.0233 -0.0523 -0.1983
   15FTM    C11 7399  -2.928   0.665  -1.650  0.6731 -0.0508 -0.5183
   15FTM    C12 7400  -2.879   0.537  -1.717 -0.3545 -0.5031 -0.2071
   16TPM     C1 7401  -2.602   1.495  -1.544  0.5160  0.0459  0.1857
   16TPM     C2 7402  -2.595   1.626  -1.582  0.9996 -0.0536 -0.0820
   16TPM     C3 7403  -2.641   1.650  -1.716  1.1028 -0.1571 -0.1367
   16TPM     C4 7404  -2.684   1.538  -1.781  0.6983 -0.1364  0.0890
   16TPM     S1 7405  -2.669   1.392  -1.676  0.1510  0.0165  0.3910
   17BDD     C1 7406  -2.744   1.646  -2.154 -0.0687  0.1151 -0.0365
   17BDD     C2 7407  -2.746   1.510  -2.157 -0.0645  0.1163 -0.0951
   17BDD     C3 7408  -2.729   1.448  -2.027 -0.0836  0.0615 -0.1181
   17BDD     C4 7409  -2.714   1.539  -1.926 -0.1022  0.0192 -0.0770
   17BDD     S1 7410  -2.720   1.708  -1.987 -0.0972  0.0451 -0.0064
   17BDD     C5 7411  -2.765   1.430  -2.281 -0.0424  0.1681 -0.1317
   17BDD     C6 7412  -2.728   1.302  -2.007 -0.0825  0.0531 -0.1802
   17BDD     O1 7413  -2.713   1.249  -1.895 -0.0991  0.0058 -0.2002
   17BDD     O2 7414  -2.780   1.483  -2.393 -0.0260  0.2154 -0.1118
   17BDD     C7 7415  -2.747   1.223  -2.130 -0.0608  0.1048 -0.2167
   17BDD     C8 7416  -2.764   1.284  -2.261 -0.0416  0.1597 -0.1936
   17BDD     C9 7417  -2.780   1.193  -2.362 -0.0230  0.2020 -0.2346
   17BDD     S2 7418  -2.773   1.024  -2.301 -0.0279  0.1761 -0.3051
   17BDD    C10 7419  -2.749   1.086  -2.134 -0.0564  0.1061 -0.2750
   17BDD    C11 7420  -2.742   0.978  -2.025 -0.3122  0.3194  0.9633
   17BDD    C12 7421  -2.616   0.893  -1.998 -0.4604 -0.4736  0.1196
   17BDD    C13 7422  -2.490   0.966  -1.953  0.4568  0.0855  0.3746
   17BDD    C14 7423  -2.498   1.038  -1.819 -0.3083 -0.0444  0.1475
   17BDD    C15 7424  -2.362   1.102  -1.780  0.0489 -0.5066 -0.5274
   17BDD    C16 7425  -2.347   1.178  -1.645 -0.0605  0.0582 -0.1004
   17BDD    C17 7426  -2.661   0.761  -1.930 -0.1164  0.8934  0.3569
   17BDD    C18 7427  -2.557   0.678  -1.849  0.5891  0.1635  0.1483
   17BDD    C19 7428  -2.795   1.211  -2.511  1.0103 -0.2694  0.5519
   17BDD    C20 7429  -2.677   1.155  -2.596  0.2726  0.4622  0.2451
   17BDD    C21 7430  -2.722   1.120  -2.739 -0.1309 -0.0715  0.1908
   17BDD    C22 7431  -2.836   1.015  -2.764  0.1635  0.1738  0.6831
   17BDD    C23 7432  -2.819   0.865  -2.737  0.2577 -0.1748  0.2231
   17BDD    C24 7433  -2.805   0.816  -2.585  0.3000 -0.6423  0.0845
   17BDD    C25 7434  -2.538   1.222  -2.584 -0.2332  0.0567 -0.2094
   17BDD    C26 7435  -2.526   1.368  -2.630  0.4362  0.3493  0.5715
   18TPM     C1 7436  -2.744   1.750  -2.256  0.4101 -0.5465  0.0451
   18TPM     C2 7437  -2.848   1.759  -2.344  0.6742 -0.7880 -0.2970
   18TPM     C3 7438  -2.837   1.870  -2.435  0.5897 -0.6083 -0.0902
   18TPM     C4 7439  -2.725   1.946  -2.417  0.2610 -0.2299  0.4093
   18TPM     S1 7440  -2.624   1.882  -2.282  0.0310 -0.0698  0.6593
   19BDTP    C1 7441  -2.510   2.491  -2.626 -0.0153 -0.2820  0.0787
   19BDTP    C2 7442  -2.646   2.519  -2.594 -0.0253 -0.2492  0.0082
   19BDTP    C3 7443  -2.734   2.421  -2.549 -0.0781 -0.2325 -0.0581
   19BDTP    C4 7444  -2.686   2.290  -2.535 -0.1234 -0.2489 -0.0552
   19BDTP    C5 7445  -2.550   2.262  -2.567 -0.1134 -0.2817  0.0153
   19BDTP    C6 7446  -2.462   2.360  -2.612 -0.0606 -0.2985  0.0815
   19BDTP    C7 7447  -2.758   2.172  -2.490 -0.1817 -0.2366 -0.1165
   19BDTP    C8 7448  -2.683   2.059  -2.487 -0.2156 -0.2584 -0.0957
   19BDTP    S1 7449  -2.511   2.085  -2.540 -0.1785 -0.2975  0.0042
   19BDTP    C9 7450  -2.438   2.608  -2.671  0.0430 -0.2943  0.1400
   19BDTP   C10 7451  -2.513   2.721  -2.674  0.0770 -0.2725  0.1193
   19BDTP    S2 7452  -2.685   2.695  -2.620  0.0398 -0.2334  0.0194
   20FTM     S1 7453  -2.912   2.535  -2.354 -0.0116 -0.1544 -0.0446
   20FTM     C1 7454  -3.086   2.545  -2.399 -0.1514 -0.5886  0.3871
   20FTM     C2 7455  -3.106   2.490  -2.522 -0.3660 -0.8749  0.5465
   20FTM     C3 7456  -2.989   2.438  -2.587 -0.4330 -0.7766  0.3473
   20FTM     C4 7457  -2.877   2.454  -2.512 -0.2642 -0.4028  0.0250
   20FTM     F1 7458  -3.230   2.483  -2.583 -0.5143 -1.2431  0.8819
   20FTM     C5 7459  -3.185   2.604  -2.308  0.9356 -0.2117 -0.0871
   20FTM     C6 7460  -3.251   2.525  -2.202  0.7354  0.3925  0.1834
   20FTM     C7 7461  -3.350   2.618  -2.119 -0.2772  0.3484 -0.1531
   20FTM     C8 7462  -3.287   2.732  -2.037  0.0485  0.1035  0.6283
   20FTM     C9 7463  -3.390   2.817  -1.959  0.1933 -0.1995 -0.3464
   20FTM    C10 7464  -3.334   2.936  -1.887 -0.1953 -0.2594 -0.0234
   20FTM    C11 7465  -3.328   2.401  -2.253 -0.1033 -0.0181 -0.0632
   20FTM    C12 7466  -3.450   2.412  -2.346  0.0036  0.2219 -0.6179
   21FTM     S1 7467  -2.186   2.440  -2.604  0.6819 -0.2583 -0.2944
   21FTM     C1 7468  -2.066   2.312  -2.644  0.1418 -0.9159  0.1469
   21FTM     C2 7469  -2.131   2.197  -2.677 -0.3417 -0.8776  0.9161
   21FTM     C3 7470  -2.274   2.202  -2.673 -0.3221 -0.3475  1.2021
   21FTM     C4 7471  -2.321   2.324  -2.636  0.1933  0.0327  0.6334
   21FTM     F1 7472  -2.064   2.081  -2.713 -0.8307 -1.3204  1.4069
   21FTM     C5 7473  -1.916   2.343  -2.638  0.6083 -0.3809  0.0072
   21FTM     C6 7474  -1.848   2.338  -2.499 -0.1418 -0.2488  0.3001
   21FTM     C7 7475  -1.828   2.192  -2.460 -0.3298 -0.1592 -0.1369
   21FTM     C8 7476  -1.730   2.105  -2.540 -0.3736  0.1542  0.3572
   21FTM     C9 7477  -1.583   2.150  -2.529  0.4582  0.5227  0.6914
   21FTM    C10 7478  -1.482   2.068  -2.609 -0.0648 -0.8428 -0.0113
   21FTM    C11 7479  -1.892   2.436  -2.396  0.3056 -0.5158 -0.4210
   21FTM    C12 7480  -1.841   2.438  -2.258 -0.4406 -0.6807  0.5842
   22TPM     C1 7481  -2.468   2.853  -2.702  0.1567  0.0776 -0.3361
   22TPM     C2 7482  -2.548   2.959  -2.735  0.1423  0.0700 -0.3266
   22TPM     C3 7483  -2.476   3.083  -2.745  0.0523  0.1644  0.1369
   22TPM     C4 7484  -2.343   3.073  -2.721 -0.0019  0.2441  0.4810
   22TPM     S1 7485  -2.296   2.903  -2.682  0.0567  0.2057  0.2444
   23BDD     C1 7486  -2.194   3.439  -2.760 -0.0853 -0.0394 -0.2264
   23BDD     C2 7487  -2.119   3.380  -2.662 -0.1073 -0.0019 -0.1870
   23BDD     C3 7488  -2.159   3.243  -2.634 -0.2103  0.0575 -0.0401
   23BDD     C4 7489  -2.263   3.200  -2.711 -0.2656  0.0642  0.0305
   23BDD     S1 7490  -2.319   3.327  -2.824 -0.1922 -0.0031 -0.0823
   23BDD     C5 7491  -2.009   3.447  -2.590 -0.0342 -0.0193 -0.2829
   23BDD     C6 7492  -2.092   3.160  -2.532 -0.2502  0.1052  0.0250
   23BDD     O1 7493  -2.126   3.042  -2.507 -0.3390  0.1564  0.1518
   23BDD     O2 7494  -1.975   3.565  -2.615  0.0546 -0.0705 -0.4096
   23BDD     C7 7495  -1.981   3.227  -2.460 -0.1773  0.0880 -0.0709
   23BDD     C8 7496  -1.942   3.364  -2.488 -0.0743  0.0286 -0.2179
   23BDD     C9 7497  -1.837   3.408  -2.411 -0.0191  0.0217 -0.2884
   23BDD     S2 7498  -1.781   3.280  -2.298 -0.0923  0.0891 -0.1757
   23BDD    C10 7499  -1.906   3.168  -2.362 -0.1992  0.1255 -0.0316
   23BDD    C11 7500  -1.905   3.028  -2.307  0.3047 -0.1284 -0.1949
   23BDD    C12 7501  -1.976   2.988  -2.179  0.5676 -0.4241  0.2424
   23BDD    C13 7502  -1.952   3.066  -2.053  0.1261 -0.5687 -0.3569
   23BDD    C14 7503  -1.814   3.041  -1.997  0.6886  0.0448 -0.6589
   23BDD    C15 7504  -1.784   3.122  -1.877  0.1226  0.0263 -0.5300
   23BDD    C16 7505  -1.640   3.091  -1.830  0.5817  0.9631 -0.4432
   23BDD    C17 7506  -2.003   2.836  -2.158 -0.0613 -0.3489  0.2228
   23BDD    C18 7507  -2.083   2.755  -2.259  0.1132 -0.0443  0.1827
   23BDD    C19 7508  -1.756   3.539  -2.407  0.1541  0.3630 -0.2387
   23BDD    C20 7509  -1.603   3.521  -2.443 -0.2640  0.3588  0.6306
   23BDD    C21 7510  -1.574   3.442  -2.580  0.7988 -0.3840  0.2941
   23BDD    C22 7511  -1.431   3.400  -2.611  0.3724  0.6738 -0.0760
   23BDD    C23 7512  -1.370   3.300  -2.504 -0.1702  0.5530  0.3647
   23BDD    C24 7513  -1.444   3.172  -2.477 -0.0881 -0.7590  0.5220
   23BDD    C25 7514  -1.515   3.650  -2.425 -0.0491  0.4607  0.1967
   23BDD    C26 7515  -1.501   3.695  -2.281  0.9086 -0.7880  0.0314
   24TPM     C1 7516  -2.209   3.577  -2.811 -0.0846 -0.3193 -0.5822
   24TPM     C2 7517  -2.108   3.637  -2.879 -0.0668 -0.4376 -0.6604
   24TPM     C3 7518  -2.151   3.750  -2.958  0.0600 -0.1672 -0.3490
   24TPM     C4 7519  -2.284   3.775  -2.950  0.1389  0.1573 -0.0331
   24TPM     S1 7520  -2.367   3.658  -2.841  0.0585  0.1464 -0.1053
   25BDTP    C1 7521  -2.643   4.270  -3.106  0.0886  0.0123  0.2731
   25BDTP    C2 7522  -2.512   4.324  -3.103  0.0803  0.0304  0.3138
   25BDTP    C3 7523  -2.399   4.247  -3.075  0.0874  0.0353  0.2995
   25BDTP    C4 7524  -2.418   4.111  -3.048  0.1032  0.0218  0.2425
   25BDTP    C5 7525  -2.550   4.056  -3.051  0.1116  0.0039  0.2017
   25BDTP    C6 7526  -2.662   4.133  -3.079  0.1046 -0.0012  0.2160
   25BDTP    C7 7527  -2.317   4.011  -3.016  0.1131  0.0240  0.2174
   25BDTP    C8 7528  -2.366   3.887  -2.995  0.1281  0.0084  0.1608
   25BDTP    S1 7529  -2.547   3.878  -3.013  0.1321 -0.0109  0.1309
   25BDTP    C9 7530  -2.744   4.369  -3.138  0.0788  0.0104  0.2980
   25BDTP   C10 7531  -2.695   4.493  -3.159  0.0638  0.0260  0.3546
   25BDTP    S2 7532  -2.514   4.503  -3.141  0.0599  0.0451  0.3845
   26FTM     S1 7533  -2.129   4.280  -2.959 -0.2078  0.3607 -0.0428
   26FTM     C1 7534  -2.017   4.386  -3.054 -0.2686  0.5220  0.0643
   26FTM     C2 7535  -2.082   4.435  -3.163 -0.1193  0.1040 -0.2180
   26FTM     C3 7536  -2.219   4.395  -3.179  0.0474 -0.3562 -0.5280
   26FTM     C4 7537  -2.260   4.312  -3.079  0.0251 -0.2882 -0.4807
   26FTM     F1 7538  -2.021   4.520  -3.254 -0.1248  0.1130 -0.2133
   26FTM     C5 7539  -1.868   4.390  -3.016  0.1739  0.1262  0.3469
   26FTM     C6 7540  -1.836   4.481  -2.892  0.2302  0.0931  0.0522
   26FTM     C7 7541  -1.701   4.458  -2.817 -0.0907  0.1164  0.1542
   26FTM     C8 7542  -1.675   4.322  -2.759  0.0394  0.5939  0.4830
   26FTM     C9 7543  -1.554   4.310  -2.666  0.3992  0.1983 -0.3755
   26FTM    C10 7544  -1.532   4.162  -2.620  0.4831 -1.1356 -0.5621
   26FTM    C11 7545  -1.878   4.628  -2.910  0.3453  0.1267  0.0071
   26FTM    C12 7546  -1.865   4.716  -2.786  0.3021 -0.9329  0.4514
   27FTM     S1 7547  -2.829   3.932  -3.184 -0.3912  0.1579  0.0799
   27FTM     C1 7548  -3.000   3.919  -3.130 -0.2666 -0.0171  0.4355
   27FTM     C2 7549  -3.028   4.019  -3.041 -0.1346 -0.1553  0.6353
   27FTM     C3 7550  -2.920   4.109  -3.012 -0.1224 -0.1341  0.5267
   27FTM     C4 7551  -2.806   4.077  -3.080 -0.2493  0.0258  0.2343
   27FTM     F1 7552  -3.152   4.035  -2.982 -0.0169 -0.3095  0.9283
   27FTM     C5 7553  -3.092   3.816  -3.187 -0.2859 -0.0141  1.0629
   27FTM     C6 7554  -3.141   3.697  -3.102  0.3168  0.2795 -0.1509
   27FTM     C7 7555  -3.034   3.623  -3.011 -0.4716  0.2411  0.4000
   27FTM     C8 7556  -2.917   3.551  -3.078 -0.7499 -0.6426  0.2643
   27FTM     C9 7557  -2.947   3.441  -3.178  0.3282 -0.0919  0.5644
   27FTM    C10 7558  -2.835   3.363  -3.230 -0.3196  0.1036  0.3460
   27FTM    C11 7559  -3.264   3.620  -3.147  0.0666  0.0352  0.1913
   27FTM    C12 7560  -3.378   3.701  -3.206 -0.0008 -0.2845  0.7196
   28TPM     C1 7561  -2.763   4.612  -3.198  0.0521  0.1723  0.2284
   28TPM     C2 7562  -2.702   4.721  -3.252  0.0570  0.2683  0.4240
   28TPM     C3 7563  -2.791   4.832  -3.275  0.0199  0.2407  0.4340
   28TPM     C4 7564  -2.920   4.808  -3.238 -0.0132  0.1236  0.2464
   28TPM     S1 7565  -2.939   4.641  -3.170 -0.0002  0.0386  0.0406
   29BDD     C1 7566  -3.097   5.157  -3.257  0.3161 -0.0179  0.1422
   29BDD     C2 7567  -3.138   5.101  -3.139  0.2030 -0.0172  0.1036
   29BDD     C3 7568  -3.086   4.967  -3.118  0.0459 -0.0827  0.0756
   29BDD     C4 7569  -3.007   4.923  -3.220  0.0416 -0.1326  0.0935
   29BDD     S1 7570  -2.991   5.046  -3.349  0.2337 -0.1006  0.1464
   29BDD     C5 7571  -3.227   5.168  -3.041  0.2353  0.0437  0.0908
   29BDD     C6 7572  -3.118   4.887  -2.997 -0.0941 -0.0939  0.0322
   29BDD     O1 7573  -3.073   4.772  -2.979 -0.2296 -0.1506  0.0082
   29BDD     O2 7574  -3.271   5.284  -3.059  0.3709  0.1004  0.1148
   29BDD     C7 7575  -3.206   4.955  -2.900 -0.0619 -0.0329  0.0196
   29BDD     C8 7576  -3.258   5.089  -2.921  0.0952  0.0328  0.0474
   29BDD     C9 7577  -3.338   5.132  -2.819  0.0997  0.0823  0.0294
   29BDD     S2 7578  -3.353   5.009  -2.689 -0.0924  0.0503 -0.0237
   29BDD    C10 7579  -3.247   4.898  -2.782 -0.1750 -0.0325 -0.0193
   29BDD    C11 7580  -3.244   4.760  -2.719 -1.2922  0.0930  0.1817
   29BDD    C12 7581  -3.326   4.643  -2.775 -0.2031 -0.1653  0.5095
   29BDD    C13 7582  -3.295   4.533  -2.677 -0.4143 -0.1566  0.2300
   29BDD    C14 7583  -3.354   4.395  -2.703 -0.1818  0.4236 -0.3743
   29BDD    C15 7584  -3.339   4.309  -2.832 -0.4938  0.0334 -0.0510
   29BDD    C16 7585  -3.202   4.312  -2.887 -0.7953  0.2430 -0.1296
   29BDD    C17 7586  -3.474   4.671  -2.810  1.0257 -0.7370  0.3828
   29BDD    C18 7587  -3.568   4.723  -2.690 -0.4118 -0.2771  0.3072
   29BDD    C19 7588  -3.412   5.264  -2.792  0.0597  0.3216 -0.2398
   29BDD    C20 7589  -3.555   5.269  -2.843  0.3615  0.0533  0.5008
   29BDD    C21 7590  -3.634   5.410  -2.837  0.2962 -0.0729 -0.2876
   29BDD    C22 7591  -3.560   5.536  -2.877 -0.1751  0.3431  0.5863
   29BDD    C23 7592  -3.646   5.654  -2.895 -0.4686  0.2879 -0.6216
   29BDD    C24 7593  -3.707   5.719  -2.767 -0.0239  0.3952 -0.2604
   29BDD    C25 7594  -3.646   5.155  -2.804  0.0365 -0.2986  0.2766
   29BDD    C26 7595  -3.707   5.147  -2.661 -0.2520  0.0242  0.2291
   30TPM     C1 7596  -3.120   5.277  -3.337  0.0853  0.2108  0.4214
   30TPM     C2 7597  -3.135   5.400  -3.280  0.9598  0.4648  0.1332
   30TPM     C3 7598  -3.124   5.509  -3.373  1.1588  0.1404 -0.2285
   30TPM     C4 7599  -3.100   5.470  -3.502  0.4364 -0.3608 -0.2162
   30TPM     S1 7600  -3.091   5.290  -3.515 -0.5594 -0.4629  0.2570
   31BDTP    C1 7601  -3.012   5.788  -4.032  0.0449 -0.1022  0.1119
   31BDTP    C2 7602  -3.043   5.893  -3.940  0.0377 -0.0795  0.0840
   31BDTP    C3 7603  -3.072   5.868  -3.806  0.0986 -0.0410  0.1043
   31BDTP    C4 7604  -3.072   5.735  -3.762  0.1699 -0.0241  0.1549
   31BDTP    C5 7605  -3.042   5.631  -3.854  0.1770 -0.0468  0.1829
   31BDTP    C6 7606  -3.012   5.655  -3.988  0.1161 -0.0854  0.1624
   31BDTP    C7 7607  -3.099   5.686  -3.628  0.2410  0.0153  0.1840
   31BDTP    C8 7608  -3.091   5.551  -3.616  0.3003  0.0230  0.2320
   31BDTP    S1 7609  -3.048   5.468  -3.772  0.2747 -0.0184  0.2470
   31BDTP    C9 7610  -2.985   5.838  -4.166 -0.0261 -0.1416  0.0826
   31BDTP   C10 7611  -2.993   5.972  -4.178 -0.0856 -0.1494  0.0346
   31BDTP    S2 7612  -3.037   6.056  -4.022 -0.0598 -0.1080  0.0196
   32FTM     S1 7613  -2.957   6.087  -3.670  0.3034  0.0410  0.1586
   32FTM     C1 7614  -3.069   6.197  -3.582  0.1253  0.1563 -0.2067
   32FTM     C2 7615  -3.196   6.149  -3.590  0.1470  0.1270 -0.3712
   32FTM     C3 7616  -3.214   6.028  -3.665  0.2999  0.0159 -0.2270
   32FTM     C4 7617  -3.096   5.981  -3.714  0.3982 -0.0418  0.0578
   32FTM     F1 7618  -3.305   6.213  -3.532  0.0299  0.1992 -0.6624
   32FTM     C5 7619  -3.031   6.337  -3.530 -0.5319  0.2898  0.8507
   32FTM     C6 7620  -2.966   6.350  -3.392 -0.0291  0.3266 -0.7418
   32FTM     C7 7621  -2.935   6.493  -3.353 -0.0732 -0.1174  0.5788
   32FTM     C8 7622  -2.822   6.565  -3.438  0.3373 -0.2835  1.1619
   32FTM     C9 7623  -2.776   6.705  -3.394  0.9684 -0.1558 -0.2840
   32FTM    C10 7624  -2.653   6.750  -3.470  0.6832 -0.2778  0.5015
   32FTM    C11 7625  -3.015   6.267  -3.268  0.2384 -0.0015 -0.0397
   32FTM    C12 7626  -3.027   6.110  -3.267  0.0201  0.5736 -0.1391
   33FTM     S1 7627  -2.832   5.515  -4.172 -0.0096  0.0401 -0.4713
   33FTM     C1 7628  -2.893   5.353  -4.224 -0.1771 -0.0305 -0.0587
   33FTM     C2 7629  -3.018   5.333  -4.175 -0.0587  0.0744  0.2942
   33FTM     C3 7630  -3.073   5.439  -4.096  0.1642  0.2127  0.2661
   33FTM     C4 7631  -2.988   5.544  -4.085  0.2180  0.2137 -0.1209
   33FTM     F1 7632  -3.089   5.216  -4.198 -0.1450  0.0514  0.6635
   33FTM     C5 7633  -2.796   5.261  -4.294 -0.2004  0.4590 -0.4498
   33FTM     C6 7634  -2.820   5.143  -4.386  0.4018 -0.5813  0.5060
   33FTM     C7 7635  -2.906   5.025  -4.334 -0.1927  0.1109  0.1329
   33FTM     C8 7636  -2.862   4.927  -4.221  0.1838  0.0161 -1.1053
   33FTM     C9 7637  -2.715   4.886  -4.196  0.7799  0.0379 -0.6122
   33FTM    C10 7638  -2.699   4.807  -4.068  0.1927  0.1483  0.5770
   33FTM    C11 7639  -2.882   5.185  -4.524 -0.2908  0.5625  0.4990
   33FTM    C12 7640  -2.798   5.283  -4.609  0.2853  0.1340 -0.5675
   34TPM     C1 7641  -2.985   6.049  -4.299  0.5726  0.0998  0.6319
   34TPM     C2 7642  -2.922   6.027  -4.418  0.8997  0.0919  0.8043
   34TPM     C3 7643  -2.923   6.141  -4.506  0.3127 -0.1992  0.4201
   34TPM     C4 7644  -2.986   6.250  -4.454 -0.4619 -0.4134 -0.0450
   34TPM     S1 7645  -3.050   6.217  -4.289 -0.5105 -0.2627 -0.0337
   35BDD     C1 7646  -2.949   6.640  -4.491  0.0370 -0.0416  0.0275
   35BDD     C2 7647  -2.997   6.598  -4.612 -0.0228  0.0201  0.0294
   35BDD     C3 7648  -3.014   6.454  -4.619 -0.2742  0.0478  0.0530
   35BDD     C4 7649  -2.980   6.389  -4.504 -0.4023  0.0070  0.0689
   35BDD     S1 7650  -2.923   6.503  -4.378 -0.2173 -0.0690  0.0553
   35BDD     C5 7651  -3.028   6.688  -4.724  0.1489  0.0556  0.0094
   35BDD     C6 7652  -3.065   6.386  -4.741 -0.3778  0.1138  0.0590
   35BDD     O1 7653  -3.079   6.262  -4.748 -0.5945  0.1378  0.0794
   35BDD     O2 7654  -3.014   6.812  -4.717  0.3655  0.0316 -0.0111
   35BDD     C7 7655  -3.096   6.477  -4.854 -0.2061  0.1494  0.0391
   35BDD     C8 7656  -3.079   6.621  -4.846  0.0452  0.1216  0.0153
   35BDD     C9 7657  -3.113   6.686  -4.961  0.1736  0.1624 -0.0006
   35BDD     S2 7658  -3.170   6.572  -5.087 -0.0116  0.2384  0.0129
   35BDD    C10 7659  -3.143   6.434  -4.975 -0.2656  0.2110  0.0408
   35BDD    C11 7660  -3.179   6.298  -5.039 -0.1536  0.0472 -0.3611
   35BDD    C12 7661  -3.070   6.216  -5.119  0.7733  0.4016 -0.8764
   35BDD    C13 7662  -2.993   6.289  -5.228 -0.0203  0.3434 -0.3474
   35BDD    C14 7663  -2.876   6.231  -5.300  0.1270  0.1298  0.0962
   35BDD    C15 7664  -2.825   6.311  -5.417  0.2187  0.1728  0.1465
   35BDD    C16 7665  -2.685   6.271  -5.448 -0.4848 -0.1645  0.1124
   35BDD    C17 7666  -3.123   6.080  -5.167  0.4638  0.1776 -0.2550
   35BDD    C18 7667  -3.233   6.070  -5.281  0.0905 -0.1994  0.0809
   35BDD    C19 7668  -3.111   6.828  -5.002  1.1702 -0.8834  0.4255
   35BDD    C20 7669  -2.984   6.887  -5.060 -0.1308  0.2781  0.0551
   35BDD    C21 7670  -2.984   7.037  -5.096  0.0702 -0.0603  0.4025
   35BDD    C22 7671  -3.040   7.148  -5.006 -0.4131  0.1748  0.2772
   35BDD    C23 7672  -2.968   7.156  -4.865  0.3157  0.0482 -0.0187
   35BDD    C24 7673  -3.023   7.281  -4.789 -0.4043 -0.6918  0.0645
   35BDD    C25 7674  -2.922   6.808  -5.181  0.2799  0.2086 -0.1342
   35BDD    C26 7675  -3.010   6.792  -5.308  0.2771  0.1231 -0.3570
   36TPM     C1 7676  -2.904   6.767  -4.431  0.3179  0.0634 -0.1982
   36TPM     C2 7677  -2.996   6.864  -4.408  0.2991  0.0168 -0.0776
   36TPM     C3 7678  -2.958   6.956  -4.304  0.3408 -0.0247 -0.0559
   36TPM     C4 7679  -2.836   6.930  -4.249  0.3916 -0.0097 -0.1598
   36TPM     S1 7680  -2.760   6.784  -4.324  0.3905  0.0588 -0.2941
   37BDTP    C1 7681  -2.541   7.254  -3.797  0.1086  0.1529 -0.3375
   37BDTP    C2 7682  -2.438   7.238  -3.894  0.0993  0.0794 -0.3349
   37BDTP    C3 7683  -2.458   7.168  -4.013  0.1082 -0.0699 -0.2500
   37BDTP    C4 7684  -2.585   7.113  -4.037  0.1271 -0.1508 -0.1632
   37BDTP    C5 7685  -2.688   7.129  -3.939  0.1365 -0.0774 -0.1657
   37BDTP    C6 7686  -2.668   7.199  -3.820  0.1276  0.0721 -0.2508
   37BDTP    C7 7687  -2.629   7.037  -4.152  0.1390 -0.3063 -0.0666
   37BDTP    C8 7688  -2.759   6.997  -4.146  0.1568 -0.3524  0.0027
   37BDTP    S1 7689  -2.842   7.049  -3.993  0.1608 -0.2054 -0.0448
   37BDTP    C9 7690  -2.497   7.330  -3.681  0.0967  0.3084 -0.4343
   37BDTP   C10 7691  -2.368   7.370  -3.687  0.0790  0.3544 -0.5034
   37BDTP    S2 7692  -2.284   7.318  -3.840  0.0750  0.2077 -0.4560
   38FTM     S1 7693  -2.363   7.189  -4.288 -0.3685 -0.3981  0.0269
   38FTM     C1 7694  -2.191   7.142  -4.312 -0.3130 -0.0353 -0.2957
   38FTM     C2 7695  -2.137   7.102  -4.194 -0.0536 -0.0749 -0.4271
   38FTM     C3 7696  -2.223   7.105  -4.080  0.1136 -0.3824 -0.2886
   38FTM     C4 7697  -2.348   7.149  -4.112 -0.0218 -0.5849 -0.0428
   38FTM     F1 7698  -2.005   7.060  -4.182  0.0476  0.1650 -0.6810
   38FTM     C5 7699  -2.145   7.127  -4.453 -0.4374 -0.3516 -0.3103
   38FTM     C6 7700  -2.060   7.227  -4.533  0.8435 -0.5093  0.3356
   38FTM     C7 7701  -2.135   7.361  -4.541  0.5237 -0.2966 -0.9893
   38FTM     C8 7702  -2.110   7.455  -4.657 -0.1354  0.5281  0.0378
   38FTM     C9 7703  -2.157   7.399  -4.796  0.3994 -0.1767 -0.3668
   38FTM    C10 7704  -2.119   7.468  -4.925  0.1065 -0.0165  0.0199
   38FTM    C11 7705  -1.916   7.253  -4.491  0.1561 -0.0983  0.0622
   38FTM    C12 7706  -1.814   7.130  -4.495  0.0223 -0.8342  0.5806
   39FTM     S1 7707  -2.819   7.362  -3.637  0.0586 -0.0885 -0.2184
   39FTM     C1 7708  -2.954   7.280  -3.549 -0.1685  0.0664 -0.4237
   39FTM     C2 7709  -2.957   7.148  -3.581  0.0010 -0.0194 -0.0942
   39FTM     C3 7710  -2.857   7.103  -3.673  0.3105 -0.2064  0.3278
   39FTM     C4 7711  -2.774   7.204  -3.713  0.3802 -0.2654  0.3211
   39FTM     F1 7712  -3.051   7.060  -3.529 -0.1138  0.0662 -0.1553
   39FTM     C5 7713  -3.048   7.360  -3.457 -0.4949  0.9438 -0.3103
   39FTM     C6 7714  -3.171   7.445  -3.507 -0.4273  0.5532 -0.4491
   39FTM     C7 7715  -3.137   7.582  -3.561  0.1851 -0.2767  0.2200
   39FTM     C8 7716  -3.113   7.694  -3.462 -0.1088  0.1290  0.2172
   39FTM     C9 7717  -3.047   7.807  -3.532  0.0339 -0.1811  0.1811
   39FTM    C10 7718  -3.038   7.929  -3.442  0.1813  0.5255 -0.6977
   39FTM    C11 7719  -3.255   7.351  -3.592 -0.2465  0.1003  0.2772
   39FTM    C12 7720  -3.393   7.394  -3.640 -0.0202 -0.2654  0.2823
   40TPM     C1 7721  -2.288   7.444  -3.583 -0.0552  0.1651  0.2558
   40TPM     C2 7722  -2.306   7.443  -3.448  0.0746  0.2779  0.2744
   40TPM     C3 7723  -2.243   7.553  -3.380  0.2240  0.2797  0.1329
   40TPM     C4 7724  -2.176   7.637  -3.463  0.2081  0.1684  0.0062
   40TPM     S1 7725  -2.188   7.585  -3.635  0.0014  0.0518  0.0563
   41BDD     C1 7726  -2.067   7.925  -3.217 -0.1445  0.0311 -0.0940
   41BDD     C2 7727  -2.061   7.982  -3.341 -0.0964 -0.0001 -0.1061
   41BDD     C3 7728  -2.093   7.891  -3.449  0.1246 -0.0759 -0.1090
   41BDD     C4 7729  -2.124   7.765  -3.406  0.2421 -0.1016 -0.0992
   41BDD     S1 7730  -2.115   7.752  -3.227  0.0839 -0.0325 -0.0858
   41BDD     C5 7731  -2.024   8.123  -3.365 -0.2522  0.0386 -0.1152
   41BDD     C6 7732  -2.092   7.932  -3.591  0.2114 -0.1204 -0.1215
   41BDD     O1 7733  -2.120   7.853  -3.684  0.4020 -0.1858 -0.1240
   41BDD     O2 7734  -1.996   8.202  -3.272 -0.4429  0.1042 -0.1127
   41BDD     C7 7735  -2.056   8.073  -3.615  0.0556 -0.0815 -0.1304
   41BDD     C8 7736  -2.024   8.164  -3.507 -0.1656 -0.0055 -0.1274
   41BDD     C9 7737  -1.993   8.290  -3.550 -0.2830  0.0200 -0.1372
   41BDD     S2 7738  -2.002   8.303  -3.728 -0.1249 -0.0494 -0.1508
   41BDD    C10 7739  -2.049   8.130  -3.738  0.1035 -0.1128 -0.1426
   41BDD    C11 7740  -2.091   8.073  -3.871  0.6282  0.5911  0.7865
   41BDD    C12 7741  -1.976   8.047  -3.976  0.5615 -0.1065  0.2291
   41BDD    C13 7742  -2.038   7.950  -4.081  0.3265  0.1265 -0.0620
   41BDD    C14 7743  -2.100   7.818  -4.039  0.0310  0.6322  0.1155
   41BDD    C15 7744  -2.157   7.757  -4.161  0.4481  0.4341  0.4681
   41BDD    C16 7745  -2.205   7.615  -4.165 -0.4068 -0.2157 -0.2398
   41BDD    C17 7746  -1.896   8.171  -4.031 -0.2548  0.5365  0.0125
   41BDD    C18 7747  -1.974   8.273  -4.115  0.5870 -0.3201 -0.1649
   41BDD    C19 7748  -1.942   8.415  -3.470 -0.4635  0.8762 -0.2400
   41BDD    C20 7749  -1.796   8.464  -3.486  0.1394 -0.0502 -0.0510
   41BDD    C21 7750  -1.776   8.589  -3.398  0.2790  0.5766  0.1707
   41BDD    C22 7751  -1.640   8.654  -3.396  0.6461 -0.4431  0.1970
   41BDD    C23 7752  -1.582   8.728  -3.513  0.5202  0.3027 -0.2626
   41BDD    C24 7753  -1.437   8.770  -3.484  0.3975  0.0778 -0.4425
   41BDD    C25 7754  -1.680   8.356  -3.476  0.2496  0.1623 -0.0493
   41BDD    C26 7755  -1.661   8.284  -3.343  0.6281 -0.8328  0.0140
   42TPM     C1 7756  -2.048   7.972  -3.081 -0.1870 -0.3262 -0.1527
   42TPM     C2 7757  -1.931   8.038  -3.055  0.0515 -0.7131 -0.2202
   42TPM     C3 7758  -1.897   8.042  -2.915  0.1328 -0.8030 -0.2372
   42TPM     C4 7759  -1.987   7.979  -2.834 -0.0435 -0.4847 -0.1827
   42TPM     S1 7760  -2.123   7.909  -2.929 -0.3284 -0.0432 -0.1052
   43BDTP    C1 7761  -1.966   7.906  -2.213 -0.2406 -0.0404 -0.0286
   43BDTP    C2 7762  -2.080   7.828  -2.249 -0.1695 -0.1411 -0.0343
   43BDTP    C3 7763  -2.122   7.814  -2.381 -0.0741 -0.2835 -0.0502
   43BDTP    C4 7764  -2.049   7.880  -2.481 -0.0474 -0.3293 -0.0608
   43BDTP    C5 7765  -1.936   7.958  -2.445 -0.1185 -0.2285 -0.0551
   43BDTP    C6 7766  -1.894   7.972  -2.313 -0.2137 -0.0862 -0.0394
   43BDTP    C7 7767  -2.074   7.880  -2.624  0.0467 -0.4710 -0.0779
   43BDTP    C8 7768  -1.986   7.954  -2.695  0.0498 -0.4818 -0.0851
   43BDTP    S1 7769  -1.859   8.034  -2.592 -0.0660 -0.3135 -0.0714
   43BDTP    C9 7770  -1.942   7.906  -2.070 -0.3349  0.1013 -0.0117
   43BDTP   C10 7771  -2.030   7.832  -1.998 -0.3380  0.1119 -0.0044
   43BDTP    S2 7772  -2.157   7.753  -2.102 -0.2219 -0.0563 -0.0182
   44FTM     S1 7773  -2.210   7.543  -2.416 -0.0165 -0.1139  0.2340
   44FTM     C1 7774  -2.377   7.518  -2.477  0.0090 -0.4481  0.2971
   44FTM     C2 7775  -2.439   7.638  -2.493 -0.1613 -0.5598  0.1096
   44FTM     C3 7776  -2.362   7.754  -2.460 -0.3185 -0.3960 -0.0901
   44FTM     C4 7777  -2.237   7.722  -2.417 -0.2665 -0.1512 -0.0539
   44FTM     F1 7778  -2.570   7.650  -2.539 -0.1853 -0.8169  0.1073
   44FTM     C5 7779  -2.434   7.379  -2.487  0.2757  0.0566  0.4715
   44FTM     C6 7780  -2.411   7.296  -2.620  0.0029 -0.2433  0.1630
   44FTM     C7 7781  -2.269   7.272  -2.648  0.1509 -0.3225 -0.5250
   44FTM     C8 7782  -2.178   7.203  -2.541  0.7075  0.1973  0.0008
   44FTM     C9 7783  -2.208   7.053  -2.540 -0.4581 -0.0072 -0.4664
   44FTM    C10 7784  -2.118   6.968  -2.450 -0.0209 -0.4463 -0.1456
   44FTM    C11 7785  -2.497   7.326  -2.748  0.6815 -0.0975  0.8287
   44FTM    C12 7786  -2.644   7.352  -2.755  0.2049  0.2178  0.8829
   45FTM     S1 7787  -1.651   8.011  -2.161 -0.1530  0.1326  0.0746
   45FTM     C1 7788  -1.580   8.176  -2.167  0.1779 -0.0167 -0.1662
   45FTM     C2 7789  -1.651   8.254  -2.253  0.4313 -0.0443 -0.4033
   45FTM     C3 7790  -1.763   8.191  -2.318  0.3848  0.0463 -0.4119
   45FTM     C4 7791  -1.778   8.061  -2.280  0.0858  0.1471 -0.1737
   45FTM     F1 7792  -1.620   8.387  -2.279  0.7205 -0.1540 -0.6264
   45FTM     C5 7793  -1.464   8.208  -2.074 -0.1520  0.2528 -0.2364
   45FTM     C6 7794  -1.488   8.299  -1.950 -0.4971  0.1563  0.1066
   45FTM     C7 7795  -1.603   8.249  -1.859  0.2623 -0.5617 -0.0963
   45FTM     C8 7796  -1.593   8.121  -1.786  0.0410  0.6629  0.2791
   45FTM     C9 7797  -1.482   8.113  -1.679  0.3635  0.7109  0.1520
   45FTM    C10 7798  -1.473   7.974  -1.610  0.7028 -0.1423  0.0316
   45FTM    C11 7799  -1.506   8.447  -1.977 -0.1078 -0.2723  0.1022
   45FTM    C12 7800  -1.397   8.525  -2.054  0.0339 -0.4762  0.0682
   46TPM     C1 7801  -2.039   7.820  -1.855 -0.2189  0.4728  0.1642
   46TPM     C2 7802  -2.140   7.773  -1.776 -0.2068  0.5423  0.2209
   46TPM     C3 7803  -2.102   7.754  -1.639 -0.0498  0.2086  0.1343
   46TPM     C4 7804  -1.972   7.787  -1.613  0.0575 -0.1152  0.0116
   46TPM     S1 7805  -1.887   7.844  -1.761 -0.0316 -0.0232 -0.0042
   47BDD     C1 7806  -1.783   7.904  -1.292  0.1332  0.1009 -0.0503
   47BDD     C2 7807  -1.836   7.783  -1.259  0.0585  0.1369 -0.0367
   47BDD     C3 7808  -1.915   7.723  -1.365 -0.0130  0.1932 -0.0153
   47BDD     C4 7809  -1.922   7.800  -1.478  0.0081  0.1996 -0.0121
   47BDD     S1 7810  -1.829   7.953  -1.459  0.1192  0.1353 -0.0365
   47BDD     C5 7811  -1.815   7.717  -1.128  0.0502  0.1208 -0.0439
   47BDD     C6 7812  -1.982   7.592  -1.351 -0.1000  0.2390  0.0019
   47BDD     O1 7813  -2.050   7.541  -1.442 -0.1616  0.2875  0.0207
   47BDD     O2 7814  -1.747   7.768  -1.037  0.1119  0.0721 -0.0627
   47BDD     C7 7815  -1.961   7.526  -1.220 -0.1082  0.2227 -0.0048
   47BDD     C8 7816  -1.882   7.585  -1.114 -0.0367  0.1663 -0.0265
   47BDD     C9 7817  -1.875   7.508  -1.001 -0.0578  0.1601 -0.0298
   47BDD     S2 7818  -1.968   7.356  -1.020 -0.1690  0.2243 -0.0058
   47BDD    C10 7819  -2.014   7.404  -1.187 -0.1830  0.2587  0.0083
   47BDD    C11 7820  -2.096   7.306  -1.269 -0.0740 -0.4432  0.1007
   47BDD    C12 7821  -2.030   7.185  -1.342 -0.0503  0.0341  0.1180
   47BDD    C13 7822  -1.946   7.088  -1.255  0.1410  0.0783  0.4990
   47BDD    C14 7823  -2.021   6.982  -1.165 -0.3180 -0.1163  0.5382
   47BDD    C15 7824  -2.132   7.024  -1.075  0.4269 -0.1784  0.2530
   47BDD    C16 7825  -2.185   6.905  -0.989 -0.7944  0.2999 -0.1633
   47BDD    C17 7826  -2.122   7.122  -1.448 -0.3095 -0.0645  0.1258
   47BDD    C18 7827  -2.190   7.221  -1.540 -0.5501 -0.0010  0.1082
   47BDD    C19 7828  -1.819   7.525  -0.863 -0.1842 -0.1826 -0.1507
   47BDD    C20 7829  -1.923   7.577  -0.757 -0.7227  0.5790 -0.0728
   47BDD    C21 7830  -2.012   7.695  -0.811 -0.0773 -0.0946 -0.6451
   47BDD    C22 7831  -1.959   7.842  -0.795  0.1123  0.6708  1.0787
   47BDD    C23 7832  -2.020   7.936  -0.904  0.1752 -0.4013 -0.4450
   47BDD    C24 7833  -2.016   8.079  -0.860 -0.0024 -0.4178  0.4710
   47BDD    C25 7834  -1.868   7.583  -0.615 -0.1970 -0.0219 -0.1287
   47BDD    C26 7835  -1.962   7.594  -0.502 -0.7249 -0.0582  0.3230
   48TPM     C1 7836  -1.686   7.995  -1.236  0.1531  0.1065 -0.3154
   48TPM     C2 7837  -1.702   8.130  -1.245  0.3995  0.1378 -0.2770
   48TPM     C3 7838  -1.596   8.205  -1.182  0.4547 -0.0737 -0.1161
   48TPM     C4 7839  -1.499   8.126  -1.126  0.2507 -0.2669 -0.0323
   48TPM     S1 7840  -1.535   7.951  -1.148 -0.0293 -0.1955 -0.1500
   49BDTP    C1 7841  -0.963   8.236  -0.817  0.0699  0.2773  0.0052
   49BDTP    C2 7842  -0.935   8.293  -0.945  0.1903  0.0186 -0.0858
   49BDTP    C3 7843  -1.028   8.296  -1.048  0.2432 -0.0710 -0.1369
   49BDTP    C4 7844  -1.155   8.240  -1.024  0.1745  0.1011 -0.0966
   49BDTP    C5 7845  -1.183   8.183  -0.896  0.0544  0.3593 -0.0055
   49BDTP    C6 7846  -1.089   8.180  -0.793  0.0011  0.4493  0.0456
   49BDTP    C7 7847  -1.267   8.232  -1.115  0.2098  0.0520 -0.1359
   49BDTP    C8 7848  -1.377   8.172  -1.062  0.1228  0.2582 -0.0794
   49BDTP    S1 7849  -1.353   8.118  -0.890 -0.0160  0.5436  0.0312
   49BDTP    C9 7850  -0.850   8.244  -0.726  0.0346  0.3264  0.0443
   49BDTP   C10 7851  -0.741   8.304  -0.779  0.1216  0.1202 -0.0119
   49BDTP    S2 7852  -0.764   8.358  -0.951  0.2605 -0.1652 -0.1228
   50FTM     S1 7853  -1.094   8.450  -1.286 -0.2534  0.3295  0.2386
   50FTM     C1 7854  -0.974   8.440  -1.419 -0.3090  0.0809  0.2066
   50FTM     C2 7855  -0.872   8.357  -1.384 -0.6773 -0.4704  0.0155
   50FTM     C3 7856  -0.880   8.299  -1.253 -0.9327 -0.7269 -0.1152
   50FTM     C4 7857  -0.993   8.337  -1.187 -0.7542 -0.3602 -0.0207
   50FTM     F1 7858  -0.764   8.330  -1.467 -0.8051 -0.7753 -0.0529
   50FTM     C5 7859  -0.993   8.516  -1.548 -0.1731  0.1952 -0.0766
   50FTM     C6 7860  -1.078   8.452  -1.661 -0.2458 -0.4441 -0.9138
   50FTM     C7 7861  -1.226   8.438  -1.627  0.4369  0.0963  0.9746
   50FTM     C8 7862  -1.308   8.560  -1.586  0.1580 -0.5774 -0.0736
   50FTM     C9 7863  -1.459   8.530  -1.583 -0.1632  0.3147 -0.1561
   50FTM    C10 7864  -1.495   8.458  -1.453  0.8098 -0.6172  0.0365
   50FTM    C11 7865  -1.036   8.315  -1.715  0.1306  0.1139  0.4543
   50FTM    C12 7866  -0.904   8.296  -1.790 -0.2499 -0.2411 -0.1001
   51FTM     S1 7867  -1.243   8.200  -0.542 -0.0713  0.2790  0.0718
   51FTM     C1 7868  -1.231   8.054  -0.438  0.2090  0.3798  0.1833
   51FTM     C2 7869  -1.148   7.963  -0.495  0.5686  0.5900  0.3672
   51FTM     C3 7870  -1.090   8.001  -0.620  0.6456  0.6824  0.4308
   51FTM     C4 7871  -1.130   8.125  -0.660  0.3354  0.5393  0.2910
   51FTM     F1 7872  -1.119   7.840  -0.438  0.8490  0.7105  0.4888
   51FTM     C5 7873  -1.319   8.032  -0.318  0.1780 -0.0746 -0.0565
   51FTM     C6 7874  -1.271   7.941  -0.201 -0.1939 -0.5652  0.8293
   51FTM     C7 7875  -1.375   7.884  -0.106 -0.0284  0.1077 -0.1258
   51FTM     C8 7876  -1.483   7.980  -0.054 -0.6146  0.3024  0.0023
   51FTM     C9 7877  -1.584   7.919   0.041  0.4934 -0.5268  0.4617
   51FTM    C10 7878  -1.540   7.879   0.180  0.6142 -0.1156 -0.5973
   51FTM    C11 7879  -1.140   7.990  -0.140 -0.3314  0.1255  0.3875
   51FTM    C12 7880  -1.059   7.923  -0.027  0.1190  0.0636 -0.4031
   52TPM     C1 7881  -0.608   8.323  -0.725 -0.0319  0.2592  0.4449
   52TPM     C2 7882  -0.515   8.405  -0.780 -0.1175  0.4709  0.6142
   52TPM     C3 7883  -0.384   8.392  -0.722 -0.0417  0.2937  0.4060
   52TPM     C4 7884  -0.377   8.299  -0.622  0.1018 -0.0525  0.0781
   52TPM     S1 7885  -0.537   8.221  -0.594  0.1526 -0.1831  0.0057
   53BDD     C1 7886  -0.117   8.209  -0.345  0.2749 -0.1433  0.0669
   53BDD     C2 7887  -0.041   8.251  -0.450  0.2289 -0.1538  0.0296
   53BDD     C3 7888  -0.120   8.288  -0.567  0.1814 -0.2363  0.0348
   53BDD     C4 7889  -0.255   8.275  -0.548  0.1925 -0.2876  0.0762
   53BDD     S1 7890  -0.293   8.215  -0.383  0.2623 -0.2356  0.1111
   53BDD     C5 7891   0.106   8.257  -0.449  0.2270 -0.0885 -0.0122
   53BDD     C6 7892  -0.058   8.336  -0.692  0.1273 -0.2615 -0.0014
   53BDD     O1 7893  -0.126   8.368  -0.792  0.0863 -0.3328  0.0031
   53BDD     O2 7894   0.174   8.224  -0.348  0.2675 -0.0172 -0.0167
   53BDD     C7 7895   0.089   8.342  -0.691  0.1249 -0.1967 -0.0434
   53BDD     C8 7896   0.168   8.304  -0.574  0.1724 -0.1140 -0.0484
   53BDD     C9 7897   0.303   8.317  -0.593  0.1619 -0.0627 -0.0899
   53BDD     S2 7898   0.341   8.378  -0.758  0.0918 -0.1146 -0.1250
   53BDD    C10 7899   0.165   8.383  -0.796  0.0789 -0.2072 -0.0808
   53BDD    C11 7900   0.133   8.441  -0.934 -0.3708  0.2481 -0.2339
   53BDD    C12 7901   0.162   8.591  -0.965 -0.8233  0.1578 -0.0759
   53BDD    C13 7902   0.102   8.693  -0.873  0.3748  0.3896  0.7650
   53BDD    C14 7903   0.154   8.835  -0.889 -0.0661  0.0142  0.2169
   53BDD    C15 7904   0.104   8.928  -0.782 -0.1026 -0.4367  0.3707
   53BDD    C16 7905   0.148   9.071  -0.830  0.4116 -0.3815  0.0286
   53BDD    C17 7906   0.188   8.638  -1.109 -0.2295  0.5021  0.1216
   53BDD    C18 7907   0.292   8.559  -1.189 -0.6128 -0.1998  0.3845
   53BDD    C19 7908   0.430   8.296  -0.513 -0.1252  0.6331 -0.0746
   53BDD    C20 7909   0.461   8.146  -0.481  0.4997  0.1567 -0.5879
   53BDD    C21 7910   0.470   8.053  -0.604 -0.0028  0.4056 -0.3104
   53BDD    C22 7911   0.591   8.048  -0.698 -0.1314 -0.0429 -0.0250
   53BDD    C23 7912   0.577   7.936  -0.803 -0.2834  0.4721 -0.3097
   53BDD    C24 7913   0.695   7.920  -0.894 -0.2999 -0.5611 -0.1668
   53BDD    C25 7914   0.574   8.140  -0.378 -0.3688  0.2163 -0.2526
   53BDD    C26 7915   0.544   8.224  -0.251 -0.0071 -0.1818 -0.3875
   54TPM     C1 7916  -0.086   8.156  -0.212  0.0654  0.3704 -0.1587
   54TPM     C2 7917  -0.165   8.062  -0.152  0.1318  0.3214 -0.1481
   54TPM     C3 7918  -0.121   8.024  -0.021  0.3543  0.1130 -0.2828
   54TPM     C4 7919  -0.008   8.088   0.020  0.4579  0.0036 -0.3959
   54TPM     S1 7920   0.052   8.203  -0.106  0.2806  0.1562 -0.3409
   55BDTP    C1 7921   0.304   8.046   0.568 -0.0442  0.2897 -0.0574
   55BDTP    C2 7922   0.168   8.038   0.610 -0.0233  0.1130 -0.0210
   55BDTP    C3 7923   0.062   8.043   0.521 -0.0524 -0.0589  0.0045
   55BDTP    C4 7924   0.090   8.055   0.384 -0.1045 -0.0567 -0.0063
   55BDTP    C5 7925   0.226   8.063   0.342 -0.1253  0.1199 -0.0427
   55BDTP    C6 7926   0.333   8.059   0.431 -0.0963  0.2915 -0.0683
   55BDTP    C7 7927  -0.003   8.062   0.273 -0.1417 -0.2165  0.0153
   55BDTP    C8 7928   0.056   8.074   0.152 -0.1895 -0.1688 -0.0029
   55BDTP    S1 7929   0.238   8.079   0.160 -0.1933  0.0849 -0.0500
   55BDTP    C9 7930   0.397   8.040   0.679 -0.0066  0.4492 -0.0790
   55BDTP   C10 7931   0.338   8.027   0.800  0.0409  0.4015 -0.0608
   55BDTP    S2 7932   0.157   8.022   0.792  0.0446  0.1478 -0.0138
   56FTM     S1 7933  -0.202   7.929   0.532 -0.2189 -0.1559 -0.1594
   56FTM     C1 7934  -0.319   8.014   0.638  0.3077  0.0450  0.2725
   56FTM     C2 7935  -0.259   8.120   0.699  0.7272 -0.0992  0.1132
   56FTM     C3 7936  -0.121   8.141   0.667  0.6661 -0.3684 -0.3433
   56FTM     C4 7937  -0.074   8.048   0.579  0.1842 -0.4325 -0.5401
   56FTM     F1 7938  -0.325   8.205   0.787  1.1916  0.0036  0.3714
   56FTM     C5 7939  -0.462   7.969   0.647 -0.4645  0.8842 -0.3709
   56FTM     C6 7940  -0.499   7.850   0.733  0.3168 -0.3854 -0.1062
   56FTM     C7 7941  -0.659   7.824   0.716 -0.4777 -0.2415 -0.3259
   56FTM     C8 7942  -0.763   7.931   0.775 -0.6446  0.5758 -0.1713
   56FTM     C9 7943  -0.889   7.866   0.826  0.5459 -0.0768  0.1367
   56FTM    C10 7944  -0.963   7.954   0.921 -0.6620 -0.2295  0.3473
   56FTM    C11 7945  -0.412   7.728   0.717 -0.2764  0.5838  0.2939
   56FTM    C12 7946  -0.440   7.613   0.813  0.1168 -0.0011 -0.4299
   57FTM     S1 7947   0.587   8.171   0.480 -0.2636  0.0700  0.0054
   57FTM     C1 7948   0.720   8.123   0.368  0.1404  0.0801  0.4751
   57FTM     C2 7949   0.673   8.037   0.274  0.4937  0.0284  0.3427
   57FTM     C3 7950   0.534   8.003   0.283  0.4723 -0.0212 -0.1208
   57FTM     C4 7951   0.473   8.065   0.388  0.0901 -0.0067 -0.3509
   57FTM     F1 7952   0.753   7.983   0.175  0.8575  0.0228  0.6334
   57FTM     C5 7953   0.858   8.172   0.384 -0.2937  0.0166 -0.3259
   57FTM     C6 7954   0.882   8.311   0.318 -0.3876 -0.2713  0.0293
   57FTM     C7 7955   0.912   8.317   0.164 -0.7185  0.9242 -0.3784
   57FTM     C8 7956   1.022   8.224   0.098  0.6543  0.2176  0.5352
   57FTM     C9 7957   1.005   8.219  -0.057  0.5794 -0.4345 -0.5692
   57FTM    C10 7958   1.098   8.121  -0.117  0.1016 -0.1436  0.0278
   57FTM    C11 7959   0.805   8.436   0.374 -0.0158  0.4154 -0.0603
   57FTM    C12 7960   0.834   8.576   0.328  0.5063 -0.1091  0.2001
   58TPM     C1 7961   0.399   8.009   0.932  0.1764  0.4712 -0.1145
   58TPM     C2 7962   0.332   8.012   1.051  0.0715  0.4458 -0.1724
   58TPM     C3 7963   0.412   7.971   1.163 -0.1815 -0.0824 -0.1818
   58TPM     C4 7964   0.539   7.936   1.130 -0.2695 -0.4592 -0.1311
   58TPM     S1 7965   0.569   7.953   0.953 -0.0380 -0.1745 -0.0670
   59BDD     C1 7966   0.701   7.815   1.473  0.0338  0.1570 -0.0725
   59BDD     C2 7967   0.802   7.801   1.382  0.0244  0.0889 -0.0728
   59BDD     C3 7968   0.765   7.839   1.247  0.0439  0.0951 -0.0765
   59BDD     C4 7969   0.635   7.882   1.237  0.0680  0.1679 -0.0789
   59BDD     S1 7970   0.551   7.877   1.395  0.0679  0.2337 -0.0768
   59BDD     C5 7971   0.937   7.752   1.416 -0.0030  0.0156 -0.0698
   59BDD     C6 7972   0.859   7.833   1.133  0.0380  0.0287 -0.0774
   59BDD     O1 7973   0.827   7.866   1.017  0.0549  0.0341 -0.0806
   59BDD     O2 7974   0.970   7.719   1.533 -0.0198  0.0101 -0.0667
   59BDD     C7 7975   0.994   7.783   1.168  0.0107 -0.0446 -0.0744
   59BDD     C8 7976   1.031   7.745   1.302 -0.0089 -0.0509 -0.0708
   59BDD     C9 7977   1.161   7.702   1.313 -0.0329 -0.1239 -0.0683
   59BDD     S2 7978   1.245   7.707   1.154 -0.0328 -0.1895 -0.0704
   59BDD    C10 7979   1.095   7.770   1.077  0.0013 -0.1129 -0.0747
   59BDD    C11 7980   1.111   7.793   0.931  0.3036 -0.1221 -0.5519
   59BDD    C12 7981   1.205   7.904   0.886 -0.7984 -0.3742  0.7811
   59BDD    C13 7982   1.221   7.889   0.732  0.1141 -0.3448  0.4154
   59BDD    C14 7983   1.331   7.972   0.660  0.2978  0.0576 -0.0610
   59BDD    C15 7984   1.465   7.982   0.731  0.1680  0.1219  0.5397
   59BDD    C16 7985   1.550   8.087   0.667 -0.6685 -0.1844  0.0826
   59BDD    C17 7986   1.200   8.048   0.937 -0.4943  0.3933 -0.4049
   59BDD    C18 7987   1.067   8.124   0.931 -0.8811  0.4135  0.1791
   59BDD    C19 7988   1.251   7.662   1.433  0.8351 -0.1904 -0.4458
   59BDD    C20 7989   1.366   7.756   1.474 -0.0159 -0.6456  0.3257
   59BDD    C21 7990   1.335   7.893   1.537 -0.6347  0.1396  0.3272
   59BDD    C22 7991   1.235   7.891   1.648  0.1319 -0.4460 -0.5276
   59BDD    C23 7992   1.259   7.821   1.781  0.1778 -0.4288  0.1610
   59BDD    C24 7993   1.128   7.839   1.855  0.4175  0.4040 -0.3406
   59BDD    C25 7994   1.502   7.772   1.404  0.4407  0.6021  0.4001
   59BDD    C26 7995   1.564   7.636   1.368  0.5272  0.2187 -0.0940
   60TPM     C1 7996   0.688   7.781   1.611  0.2828 -0.1560 -0.0295
   60TPM     C2 7997   0.590   7.695   1.651 -0.0666  0.2244 -0.0550
   60TPM     C3 7998   0.597   7.661   1.791 -0.4921  0.5214  0.0437
   60TPM     C4 7999   0.701   7.721   1.857 -0.4672  0.3676  0.1444
   60TPM     S1 8000   0.798   7.826   1.747  0.1000 -0.1687  0.1224
    1BDTP    C1 8001   4.072   1.983   9.258 -0.1565 -0.0091 -0.1578
    1BDTP    C2 8002   4.044   1.970   9.397 -0.0902 -0.0288 -0.1462
    1BDTP    C3 8003   4.048   1.848   9.464  0.0308 -0.0243 -0.1454
    1BDTP    C4 8004   4.082   1.734   9.390  0.0894  0.0007 -0.1574
    1BDTP    C5 8005   4.111   1.747   9.251  0.0231  0.0204 -0.1693
    1BDTP    C6 8006   4.106   1.868   9.184 -0.0977  0.0160 -0.1696
    1BDTP    C7 8007   4.093   1.597   9.436  0.2139  0.0099 -0.1592
    1BDTP    C8 8008   4.128   1.508   9.341  0.2441  0.0353 -0.1719
    1BDTP    S1 8009   4.152   1.585   9.177  0.1189  0.0511 -0.1829
    1BDTP    C9 8010   4.061   2.120   9.211 -0.2811 -0.0182 -0.1557
    1BDTP   C10 8011   4.026   2.209   9.307 -0.3111 -0.0436 -0.1431
    1BDTP    S2 8012   4.002   2.132   9.471 -0.1860 -0.0594 -0.1321
    2FTM     S1 8013   3.890   1.735   9.676 -0.1716 -0.0467  0.0623
    2FTM     C1 8014   3.964   1.745   9.840 -0.1301  0.5024  0.0116
    2FTM     C2 8015   4.080   1.816   9.834 -0.0859  0.4079 -0.2713
    2FTM     C3 8016   4.118   1.865   9.704 -0.0820 -0.0853 -0.4612
    2FTM     C4 8017   4.027   1.831   9.608 -0.1243 -0.3780 -0.3190
    2FTM     F1 8018   4.160   1.840   9.945 -0.0468  0.7625 -0.3750
    2FTM     C5 8019   3.901   1.693   9.966 -0.5545  0.0368  0.0530
    2FTM     C6 8020   3.892   1.536   9.991 -0.0060 -0.4913 -0.0814
    2FTM     C7 8021   4.028   1.459   9.981  0.2598 -0.4394  0.4335
    2FTM     C8 8022   4.158   1.500  10.057  0.6777  0.6980 -0.3316
    2FTM     C9 8023   4.300   1.448  10.021 -0.0035  0.2876  0.6600
    2FTM    C10 8024   4.338   1.467   9.876  0.0234  0.5535  0.1091
    2FTM    C11 8025   3.813   1.496  10.109  0.6858  0.1843 -0.3186
    2FTM    C12 8026   3.666   1.542  10.106 -0.5391 -0.5835 -0.0789
    3FTM     S1 8027   4.021   1.939   8.925  0.2618 -0.2016 -0.0465
    3FTM     C1 8028   4.134   1.910   8.787  0.2428 -0.1533 -0.0722
    3FTM     C2 8029   4.250   1.856   8.833  0.2319 -0.2106 -0.1123
    3FTM     C3 8030   4.258   1.834   8.974  0.2375 -0.2936 -0.1256
    3FTM     C4 8031   4.145   1.873   9.039  0.2530 -0.3000 -0.0940
    3FTM     F1 8032   4.356   1.823   8.749  0.2161 -0.1913 -0.1402
    3FTM     C5 8033   4.098   1.963   8.654 -0.0215 -0.4371  0.5176
    3FTM     C6 8034   3.967   1.943   8.581 -0.3182 -0.0696  0.3873
    3FTM     C7 8035   3.940   2.037   8.456  0.1494  0.3258 -0.6156
    3FTM     C8 8036   3.960   2.189   8.483  0.1807 -0.0819 -0.6070
    3FTM     C9 8037   3.887   2.248   8.600 -0.2233 -0.5007 -0.6073
    3FTM    C10 8038   3.890   2.400   8.615 -0.5424 -0.3460 -0.6724
    3FTM    C11 8039   3.919   1.793   8.572 -0.0523  0.2149 -0.1911
    3FTM    C12 8040   3.966   1.702   8.467  0.1523  0.1261  0.0034
    4TPM     C1 8041   4.011   2.353   9.288  0.0238  0.1840 -0.2391
    4TPM     C2 8042   3.966   2.448   9.375  0.1061  0.2808 -0.3011
    4TPM     C3 8043   3.956   2.579   9.317  0.2441  0.2570 -0.3810
    4TPM     C4 8044   3.993   2.584   9.186  0.2669  0.1418 -0.3794
    4TPM     S1 8045   4.045   2.422   9.125  0.1147  0.0540 -0.2764
    5BDD     C1 8046   3.884   2.839   8.907  0.1128 -0.0716  0.2023
    5BDD     C2 8047   3.953   2.914   8.998  0.1153 -0.0161  0.1552
    5BDD     C3 8048   4.003   2.836   9.110  0.0260  0.0718  0.2556
    5BDD     C4 8049   3.970   2.704   9.103 -0.0435  0.0822  0.3779
    5BDD     S1 8050   3.876   2.667   8.956 -0.0018 -0.0175  0.3762
    5BDD     C5 8051   3.977   3.059   8.985  0.2000 -0.0418  0.0157
    5BDD     C6 8052   4.080   2.897   9.221  0.0128  0.1425  0.2260
    5BDD     O1 8053   4.123   2.830   9.318 -0.0643  0.2183  0.3126
    5BDD     O2 8054   3.934   3.126   8.888  0.2771 -0.1177 -0.0708
    5BDD     C7 8055   4.104   3.042   9.208  0.0974  0.1166  0.0868
    5BDD     C8 8056   4.054   3.119   9.095  0.1869  0.0287 -0.0136
    5BDD     C9 8057   4.087   3.252   9.102  0.2563  0.0185 -0.1359
    5BDD     S2 8058   4.182   3.289   9.250  0.2146  0.1182 -0.1340
    5BDD    C10 8059   4.173   3.117   9.299  0.1000  0.1723  0.0396
    5BDD    C11 8060   4.251   3.079   9.428 -0.0308 -0.1603 -0.4195
    5BDD    C12 8061   4.399   3.038   9.400 -0.8653 -0.0713 -0.7136
    5BDD    C13 8062   4.457   2.963   9.527  0.9397 -0.1568 -0.3694
    5BDD    C14 8063   4.367   2.847   9.586  0.1696  0.3995 -0.3089
    5BDD    C15 8064   4.426   2.738   9.682 -0.0491 -0.1753  0.0894
    5BDD    C16 8065   4.566   2.686   9.647 -0.3040 -0.2253  0.6230
    5BDD    C17 8066   4.492   3.149   9.351  0.6030 -0.2736 -0.4743
    5BDD    C18 8067   4.626   3.126   9.288 -0.1243  0.1129 -0.2307
    5BDD    C19 8068   4.063   3.376   9.019 -0.4942  0.2994 -0.0943
    5BDD    C20 8069   3.922   3.434   9.029 -0.0820 -0.3988 -0.1936
    5BDD    C21 8070   3.904   3.555   8.934 -0.3659 -0.7363 -0.3001
    5BDD    C22 8071   3.957   3.555   8.792 -0.4767  0.3275  0.9044
    5BDD    C23 8072   3.933   3.439   8.692  0.3888  0.0005 -0.4572
    5BDD    C24 8073   3.789   3.401   8.670 -0.3148  0.6729 -0.0504
    5BDD    C25 8074   3.870   3.471   9.174 -0.5699  0.0494 -0.2244
    5BDD    C26 8075   3.735   3.541   9.182  0.2647 -0.1232 -0.6248
    6TPM     C1 8076   3.814   2.860   8.780 -0.4977 -0.1891 -0.0278
    6TPM     C2 8077   3.820   2.759   8.688 -0.9598 -0.1141 -0.1438
    6TPM     C3 8078   3.779   2.798   8.556 -0.7117  0.2444 -0.1171
    6TPM     C4 8079   3.743   2.929   8.546 -0.0605  0.4426  0.0196
    6TPM     S1 8080   3.757   3.014   8.705  0.2927  0.1899  0.1257
    7BDTP    C1 8081   3.557   3.095   7.973  0.0657  0.0357  0.2109
    7BDTP    C2 8082   3.588   3.221   8.031  0.0845  0.0857  0.0930
    7BDTP    C3 8083   3.629   3.235   8.163  0.1196  0.1993  0.0708
    7BDTP    C4 8084   3.640   3.118   8.242  0.1372  0.2670  0.1690
    7BDTP    C5 8085   3.608   2.992   8.183  0.1184  0.2168  0.2871
    7BDTP    C6 8086   3.567   2.979   8.051  0.0834  0.1032  0.3091
    7BDTP    C7 8087   3.680   3.107   8.380  0.1735  0.3865  0.1683
    7BDTP    C8 8088   3.680   2.981   8.428  0.1828  0.4280  0.2787
    7BDTP    S1 8089   3.629   2.857   8.305  0.1468  0.3215  0.3989
    7BDTP    C9 8090   3.516   3.106   7.834  0.0294 -0.0839  0.2115
    7BDTP   C10 8091   3.516   3.233   7.786  0.0202 -0.1253  0.1012
    7BDTP    S2 8092   3.567   3.356   7.910  0.0561 -0.0189 -0.0189
    8FTM     S1 8093   3.793   3.467   8.138  0.0052  0.1323 -0.1689
    8FTM     C1 8094   3.759   3.600   8.255  0.1985 -0.0493  0.0968
    8FTM     C2 8095   3.661   3.561   8.342  0.3716 -0.1996  0.2258
    8FTM     C3 8096   3.609   3.429   8.323  0.3647 -0.1830  0.1278
    8FTM     C4 8097   3.668   3.364   8.219  0.1802 -0.0145 -0.0829
    8FTM     F1 8098   3.614   3.642   8.443  0.5466 -0.3608  0.4396
    8FTM     C5 8099   3.837   3.731   8.247  0.0005  0.5739  0.3736
    8FTM     C6 8100   3.785   3.880   8.287 -0.6245  0.2554  0.1562
    8FTM     C7 8101   3.671   3.937   8.200  0.5265 -0.1485  0.5651
    8FTM     C8 8102   3.692   3.919   8.046 -0.0728  0.3438 -1.0244
    8FTM     C9 8103   3.584   3.994   7.967 -0.0646  0.1873 -0.5169
    8FTM    C10 8104   3.593   3.965   7.822  0.5609 -0.6803 -0.2599
    8FTM    C11 8105   3.770   3.924   8.432 -0.3678  1.2517  0.2514
    8FTM    C12 8106   3.886   3.895   8.526 -0.1250 -0.3238 -0.2285
    9FTM     S1 8107   3.403   2.816   7.896  0.3892  0.4163  0.1856
    9FTM     C1 8108   3.460   2.649   7.860 -0.0018  0.1466  0.7987
    9FTM     C2 8109   3.581   2.628   7.919 -0.2339 -0.0641  1.2128
    9FTM     C3 8110   3.636   2.738   7.993 -0.1244 -0.0296  1.0817
    9FTM     C4 8111   3.554   2.847   7.991  0.2020  0.2156  0.5501
    9FTM     F1 8112   3.650   2.508   7.909 -0.5592 -0.3007  1.7351
    9FTM     C5 8113   3.369   2.559   7.778 -0.4420  0.7603 -0.0642
    9FTM     C6 8114   3.327   2.418   7.820  0.0029 -0.4393 -0.0836
    9FTM     C7 8115   3.248   2.339   7.716  0.1244  0.0675  0.1279
    9FTM     C8 8116   3.300   2.308   7.569 -0.1064 -0.3743  0.2629
    9FTM     C9 8117   3.211   2.222   7.488  0.1702  0.0726  0.0945
    9FTM    C10 8118   3.267   2.207   7.344  0.3727 -0.5504 -0.6836
    9FTM    C11 8119   3.286   2.392   7.967  0.0214  0.1846  0.4028
    9FTM    C12 8120   3.156   2.445   8.017  0.3076 -0.5713  0.2990
   10TPM     C1 8121   3.469   3.277   7.660 -0.0031  0.1368  0.2188
   10TPM     C2 8122   3.428   3.210   7.548 -0.1522 -0.0622  0.3899
   10TPM     C3 8123   3.390   3.296   7.440 -0.3999 -0.2541  0.3239
   10TPM     C4 8124   3.400   3.429   7.469 -0.4396 -0.2014  0.1023
   10TPM     S1 8125   3.461   3.455   7.637 -0.1652  0.0969 -0.0412
   11BDD     C1 8126   3.408   3.772   7.280 -0.0411 -0.1880  0.0353
   11BDD     C2 8127   3.337   3.691   7.196 -0.0390 -0.1543  0.0007
   11BDD     C3 8128   3.321   3.556   7.247 -0.1597 -0.1363  0.0110
   11BDD     C4 8129   3.380   3.536   7.368 -0.2521 -0.1565  0.0531
   11BDD     S1 8130   3.461   3.685   7.427 -0.1944 -0.1994  0.0830
   11BDD     C5 8131   3.280   3.735   7.067  0.0741 -0.1374 -0.0428
   11BDD     C6 8132   3.247   3.451   7.173 -0.1790 -0.0999 -0.0215
   11BDD     O1 8133   3.233   3.335   7.217 -0.2831 -0.0844 -0.0126
   11BDD     O2 8134   3.294   3.851   7.023  0.1783 -0.1529 -0.0517
   11BDD     C7 8135   3.190   3.495   7.043 -0.0660 -0.0831 -0.0652
   11BDD     C8 8136   3.206   3.630   6.993  0.0548 -0.1010 -0.0755
   11BDD     C9 8137   3.147   3.650   6.871  0.1472 -0.0808 -0.1177
   11BDD     S2 8138   3.067   3.501   6.812  0.0894 -0.0380 -0.1475
   11BDD    C10 8139   3.119   3.414   6.960 -0.0638 -0.0495 -0.0998
   11BDD    C11 8140   3.093   3.269   6.960  1.1124  0.2252  0.3184
   11BDD    C12 8141   2.950   3.221   6.941  0.3774  0.2770  0.1682
   11BDD    C13 8142   2.942   3.064   6.928 -0.0079  0.1617  0.7881
   11BDD    C14 8143   3.028   2.998   6.822  0.2441  0.4286 -0.2139
   11BDD    C15 8144   3.006   2.848   6.825  0.7034 -0.0130 -1.2694
   11BDD    C16 8145   3.103   2.759   6.747  0.2787  0.0757 -0.7271
   11BDD    C17 8146   2.844   3.280   7.034  0.0926  0.1983  0.6303
   11BDD    C18 8147   2.689   3.243   7.014 -0.6857 -0.4286 -0.2986
   11BDD    C19 8148   3.128   3.768   6.779 -0.9925 -0.2498  0.1273
   11BDD    C20 8149   2.982   3.821   6.760  0.2820  0.7199 -0.3382
   11BDD    C21 8150   2.904   3.852   6.888  0.2200 -0.4105 -0.4218
   11BDD    C22 8151   2.967   3.943   6.999  0.1395  0.2299 -0.6709
   11BDD    C23 8152   2.879   3.958   7.126 -0.0491  0.9493  0.3245
   11BDD    C24 8153   2.878   3.838   7.219 -0.2675  0.2878  0.9687
   11BDD    C25 8154   2.973   3.930   6.661  0.0143  0.5215  0.6698
   11BDD    C26 8155   3.014   3.898   6.518 -0.9268 -0.0094  0.3309
   12TPM     C1 8156   3.452   3.912   7.283 -0.4656  0.1422  0.5066
   12TPM     C2 8157   3.362   4.013   7.264 -0.7325  0.0523  1.2480
   12TPM     C3 8158   3.409   4.142   7.307 -0.6849  0.0271  1.2720
   12TPM     C4 8159   3.535   4.140   7.358 -0.3816  0.0976  0.5491
   12TPM     S1 8160   3.605   3.973   7.356 -0.1306  0.2024 -0.2243
   13BDTP    C1 8161   3.791   4.657   7.598  0.0135 -0.2216  0.1224
   13BDTP    C2 8162   3.906   4.575   7.577  0.0126 -0.1862 -0.0228
   13BDTP    C3 8163   3.898   4.447   7.526 -0.0010 -0.1428 -0.1290
   13BDTP    C4 8164   3.771   4.396   7.494 -0.0142 -0.1345 -0.0905
   13BDTP    C5 8165   3.656   4.478   7.515 -0.0133 -0.1700  0.0550
   13BDTP    C6 8166   3.664   4.606   7.566  0.0003 -0.2129  0.1612
   13BDTP    C7 8167   3.738   4.266   7.439 -0.0296 -0.0927 -0.1818
   13BDTP    C8 8168   3.606   4.246   7.419 -0.0401 -0.0949 -0.1129
   13BDTP    S1 8169   3.504   4.390   7.465 -0.0320 -0.1502  0.0775
   13BDTP    C9 8170   3.824   4.787   7.653  0.0288 -0.2633  0.2139
   13BDTP   C10 8171   3.957   4.807   7.673  0.0393 -0.2613  0.1448
   13BDTP    S2 8172   4.058   4.663   7.627  0.0313 -0.2057 -0.0452
   14FTM     S1 8173   4.045   4.198   7.538 -0.2763  0.0137 -0.0294
   14FTM     C1 8174   4.184   4.189   7.424 -0.0903 -0.0962  0.2021
   14FTM     C2 8175   4.199   4.308   7.360  0.0678 -0.1295  0.1757
   14FTM     C3 8176   4.105   4.411   7.395  0.0545 -0.0730 -0.0216
   14FTM     C4 8177   4.016   4.369   7.489 -0.1199  0.0062 -0.1504
   14FTM     F1 8178   4.298   4.332   7.265  0.2340 -0.2129  0.3287
   14FTM     C5 8179   4.247   4.057   7.381  0.0161 -0.2135 -0.5768
   14FTM     C6 8180   4.156   3.939   7.356  0.2352  0.3880 -0.6222
   14FTM     C7 8181   4.226   3.799   7.359 -0.1808 -0.4553  0.1107
   14FTM     C8 8182   4.236   3.729   7.497 -0.5368  0.0987  0.2270
   14FTM     C9 8183   4.282   3.585   7.502  0.5154  0.1544 -0.6726
   14FTM    C10 8184   4.295   3.532   7.644  0.2174  0.8141  0.2564
   14FTM    C11 8185   4.053   3.970   7.250 -0.5975  0.3811 -0.3740
   14FTM    C12 8186   3.932   3.876   7.236  0.1366 -0.6091 -0.5918
   15FTM     S1 8187   3.479   4.737   7.741  0.1138  0.1291 -0.0062
   15FTM     C1 8188   3.343   4.823   7.660 -0.0485  0.1009  0.2324
   15FTM     C2 8189   3.353   4.808   7.525 -0.4978 -0.2171  0.2322
   15FTM     C3 8190   3.464   4.730   7.478 -0.7374 -0.4525  0.0505
   15FTM     C4 8191   3.541   4.684   7.580 -0.4626 -0.3098 -0.0927
   15FTM     F1 8192   3.262   4.863   7.436 -0.7187 -0.3138  0.3964
   15FTM     C5 8193   3.233   4.899   7.733 -0.4737  0.6220 -0.7472
   15FTM     C6 8194   3.174   4.855   7.867 -0.4287  0.1261 -0.1710
   15FTM     C7 8195   3.127   4.709   7.877 -0.3906 -0.0976  0.6627
   15FTM     C8 8196   2.989   4.671   7.827  0.4862 -0.4577  0.3292
   15FTM     C9 8197   2.877   4.750   7.900  0.1636  0.7621  0.9718
   15FTM    C10 8198   2.750   4.686   7.875 -0.3261 -0.0022  0.4899
   15FTM    C11 8199   3.251   4.907   7.985  0.1107  0.4976 -0.9762
   15FTM    C12 8200   3.186   4.907   8.123  0.2539 -0.2474 -0.1701
   16TPM     C1 8201   4.015   4.922   7.735 -0.2088 -0.0432  0.5978
   16TPM     C2 8202   4.147   4.950   7.755 -0.2222 -0.3365  1.1379
   16TPM     C3 8203   4.171   5.079   7.814 -0.1653 -0.2729  0.9755
   16TPM     C4 8204   4.057   5.150   7.839 -0.1086  0.0688  0.3118
   16TPM     S1 8205   3.910   5.058   7.790 -0.1226  0.3392 -0.1634
   17BDD     C1 8206   3.988   5.412   8.121  0.1852  0.1327  0.0139
   17BDD     C2 8207   4.070   5.476   8.032  0.1565  0.1111 -0.0286
   17BDD     C3 8208   4.114   5.391   7.922  0.1415  0.0771 -0.0080
   17BDD     C4 8209   4.064   5.263   7.930  0.1587  0.0736  0.0495
   17BDD     S1 8210   3.960   5.241   8.074  0.1952  0.1124  0.0820
   17BDD     C5 8211   4.112   5.617   8.044  0.1421  0.1206 -0.0889
   17BDD     C6 8212   4.203   5.438   7.815  0.1104  0.0494 -0.0463
   17BDD     O1 8213   4.241   5.365   7.721  0.0974  0.0201 -0.0287
   17BDD     O2 8214   4.074   5.691   8.138  0.1551  0.1498 -0.1063
   17BDD     C7 8215   4.245   5.580   7.827  0.0960  0.0590 -0.1067
   17BDD     C8 8216   4.201   5.665   7.936  0.1111  0.0930 -0.1270
   17BDD     C9 8217   4.251   5.792   7.929  0.0937  0.0966 -0.1842
   17BDD     S2 8218   4.355   5.814   7.785  0.0572  0.0578 -0.2167
   17BDD    C10 8219   4.327   5.643   7.738  0.0671  0.0372 -0.1487
   17BDD    C11 8220   4.411   5.599   7.618  0.0371  1.0601  0.1484
   17BDD    C12 8221   4.364   5.625   7.476  0.3643  0.4504  0.6970
   17BDD    C13 8222   4.473   5.585   7.368  0.2531  0.0557  0.2790
   17BDD    C14 8223   4.612   5.653   7.358  0.3639 -0.4915 -0.5290
   17BDD    C15 8224   4.599   5.798   7.315 -0.1703 -0.4061  0.5866
   17BDD    C16 8225   4.724   5.851   7.263 -0.2288 -0.5417  0.5760
   17BDD    C17 8226   4.215   5.569   7.456  0.1334 -0.2203 -0.0988
   17BDD    C18 8227   4.165   5.605   7.324  0.1721  0.2550 -0.1913
   17BDD    C19 8228   4.228   5.921   8.017  0.1259 -0.5770 -0.1279
   17BDD    C20 8229   4.312   6.051   7.986 -0.4992  0.1922 -0.6139
   17BDD    C21 8230   4.254   6.144   7.874 -0.0517 -0.3534 -0.5729
   17BDD    C22 8231   4.289   6.292   7.888  0.2094  0.6345 -0.2029
   17BDD    C23 8232   4.265   6.370   7.762  0.6555 -0.1547 -0.0237
   17BDD    C24 8233   4.276   6.516   7.778  0.5870  0.2982 -0.2488
   17BDD    C25 8234   4.468   6.057   8.004 -0.0856 -0.1838  0.3785
   17BDD    C26 8235   4.525   6.000   8.132  0.0218  0.0189 -0.0732
   18TPM     C1 8236   3.920   5.450   8.242 -0.0957  0.6278  0.1330
   18TPM     C2 8237   3.971   5.525   8.344 -0.3386  0.6319  0.2525
   18TPM     C3 8238   3.893   5.520   8.465 -0.3213  0.1855  0.2460
   18TPM     C4 8239   3.783   5.440   8.456 -0.0653 -0.1595  0.1217
   18TPM     S1 8240   3.769   5.365   8.292  0.1756  0.0548  0.0015
   19BDTP    C1 8241   3.360   5.367   8.914  0.0103  0.1025 -0.0110
   19BDTP    C2 8242   3.361   5.239   8.851 -0.0255  0.1338 -0.0753
   19BDTP    C3 8243   3.440   5.210   8.741 -0.0302  0.1652 -0.0873
   19BDTP    C4 8244   3.524   5.312   8.691  0.0018  0.1656 -0.0331
   19BDTP    C5 8245   3.523   5.440   8.754  0.0376  0.1345  0.0310
   19BDTP    C6 8246   3.443   5.469   8.864  0.0423  0.1031  0.0431
   19BDTP    C7 8247   3.615   5.305   8.579  0.0038  0.1951 -0.0336
   19BDTP    C8 8248   3.682   5.420   8.554  0.0389  0.1873  0.0269
   19BDTP    S1 8249   3.639   5.554   8.671  0.0744  0.1421  0.0925
   19BDTP    C9 8250   3.269   5.374   9.026  0.0084  0.0733 -0.0107
   19BDTP   C10 8251   3.202   5.259   9.051 -0.0268  0.0808 -0.0710
   19BDTP    S2 8252   3.245   5.126   8.934 -0.0622  0.1262 -0.1365
   20FTM     S1 8253   3.479   4.934   8.812 -0.0962 -0.2141  0.0899
   20FTM     C1 8254   3.464   4.814   8.678  0.0866  0.0960 -0.2111
   20FTM     C2 8255   3.441   4.879   8.560 -0.1581  0.3493 -0.0265
   20FTM     C3 8256   3.434   5.022   8.567 -0.4945  0.3185  0.3510
   20FTM     C4 8257   3.452   5.068   8.694 -0.5079  0.0322  0.4592
   20FTM     F1 8258   3.425   4.813   8.440 -0.0920  0.6242 -0.1888
   20FTM     C5 8259   3.473   4.665   8.705  0.3749  0.8081  0.7942
   20FTM     C6 8260   3.406   4.586   8.829 -0.1860  0.0362  0.8654
   20FTM     C7 8261   3.469   4.629   8.958 -0.3534 -0.0731  0.0990
   20FTM     C8 8262   3.620   4.593   8.981 -0.1843  0.6264  0.0096
   20FTM     C9 8263   3.667   4.600   9.124  0.6506 -0.0632 -0.0314
   20FTM    C10 8264   3.816   4.599   9.136  0.0301  0.1055 -0.8441
   20FTM    C11 8265   3.252   4.606   8.855  0.2378  0.0887 -0.1251
   20FTM    C12 8266   3.154   4.551   8.757  0.1276 -0.3618  0.1737
   21FTM     S1 8267   3.468   5.620   9.108  0.0503  0.0637 -0.0618
   21FTM     C1 8268   3.459   5.799   9.091  0.0326  0.0876  0.1864
   21FTM     C2 8269   3.444   5.832   8.960  0.1674  0.2726  0.2162
   21FTM     C3 8270   3.437   5.723   8.867  0.2899  0.4041  0.0520
   21FTM     C4 8271   3.449   5.602   8.929  0.2474  0.3166 -0.1091
   21FTM     F1 8272   3.434   5.963   8.916  0.1882  0.3341  0.3943
   21FTM     C5 8273   3.475   5.876   9.220  0.3652  0.0267 -0.1320
   21FTM     C6 8274   3.370   5.976   9.275  0.0093  0.1530  0.8953
   21FTM     C7 8275   3.244   5.913   9.327  0.5161  0.5444  0.7612
   21FTM     C8 8276   3.261   5.838   9.455 -0.2147  0.1357 -0.3870
   21FTM     C9 8277   3.137   5.751   9.490  0.3491  0.0446  0.7898
   21FTM    C10 8278   3.155   5.645   9.599 -0.0870  0.0198  0.0414
   21FTM    C11 8279   3.352   6.101   9.178 -0.7692  0.7899  0.4724
   21FTM    C12 8280   3.287   6.220   9.249 -0.0345 -0.1920  0.1954
   22TPM     C1 8281   3.093   5.230   9.149  0.2428  0.0831  0.1724
   22TPM     C2 8282   3.000   5.131   9.155  0.5440 -0.1992  0.2217
   22TPM     C3 8283   2.916   5.136   9.272  0.4501 -0.3268  0.1612
   22TPM     C4 8284   2.945   5.240   9.356  0.0775 -0.1419  0.0659
   22TPM     S1 8285   3.082   5.340   9.292 -0.1859  0.2104  0.0448
   23BDD     C1 8286   2.918   5.258   9.748 -0.0846  0.2780  0.0164
   23BDD     C2 8287   2.788   5.250   9.706 -0.0471  0.1570 -0.0750
   23BDD     C3 8288   2.775   5.244   9.562  0.0703 -0.0546 -0.0775
   23BDD     C4 8289   2.895   5.248   9.496  0.1207 -0.0918  0.0119
   23BDD     S1 8290   3.032   5.259   9.610  0.0247  0.1354  0.1054
   23BDD     C5 8291   2.671   5.247   9.797 -0.1180  0.2314 -0.1632
   23BDD     C6 8292   2.644   5.234   9.494  0.1283 -0.2121 -0.1686
   23BDD     O1 8293   2.632   5.229   9.369  0.2295 -0.3945 -0.1707
   23BDD     O2 8294   2.683   5.252   9.921 -0.2192  0.4138 -0.1610
   23BDD     C7 8295   2.527   5.231   9.585  0.0575 -0.1377 -0.2570
   23BDD     C8 8296   2.540   5.237   9.729 -0.0600  0.0738 -0.2543
   23BDD     C9 8297   2.420   5.233   9.795 -0.1104  0.1110 -0.3437
   23BDD     S2 8298   2.283   5.222   9.680 -0.0143 -0.1163 -0.4373
   23BDD    C10 8299   2.397   5.223   9.542  0.0949 -0.2588 -0.3483
   23BDD    C11 8300   2.328   5.220   9.410  0.5241 -0.9252  0.4502
   23BDD    C12 8301   2.280   5.356   9.348 -0.4932 -0.0026  0.2821
   23BDD    C13 8302   2.158   5.416   9.420 -0.3672  0.0750  0.5598
   23BDD    C14 8303   2.029   5.330   9.440 -0.0819 -0.0917 -0.2335
   23BDD    C15 8304   1.951   5.368   9.560  0.5408 -0.1370 -0.0108
   23BDD    C16 8305   1.836   5.273   9.573 -0.5122  0.3824  0.0369
   23BDD    C17 8306   2.387   5.452   9.307  0.1225  0.4307  0.2605
   23BDD    C18 8307   2.349   5.564   9.217  0.3577  0.2937  0.0033
   23BDD    C19 8308   2.374   5.232   9.943  0.0148  0.6231  0.5023
   23BDD    C20 8309   2.378   5.095  10.013  0.1304 -0.0282  0.1232
   23BDD    C21 8310   2.341   5.101  10.161 -0.0843 -0.0533  0.2706
   23BDD    C22 8311   2.431   5.184  10.251  0.4583 -0.0903 -0.7516
   23BDD    C23 8312   2.579   5.164  10.242 -0.0038 -0.3714  0.2862
   23BDD    C24 8313   2.625   5.023  10.266  0.0955 -0.0949  0.6340
   23BDD    C25 8314   2.298   4.984   9.941 -0.1859  0.1289 -0.0052
   23BDD    C26 8315   2.306   4.840   9.998 -0.3246  0.1115 -0.2814
   24TPM     C1 8316   2.979   5.270   9.880  0.2166  0.0042 -0.0059
   24TPM     C2 8317   3.027   5.394   9.913 -0.0554  0.0764  0.1303
   24TPM     C3 8318   3.119   5.393  10.024  0.0506  0.1349  0.0442
   24TPM     C4 8319   3.140   5.269  10.077  0.4034  0.1075 -0.1577
   24TPM     S1 8320   3.046   5.143   9.989  0.6309  0.0048 -0.2554
   25BDTP    C1 8321   3.555   5.137  10.528  0.0048 -0.1974  0.1890
   25BDTP    C2 8322   3.448   5.050  10.564  0.0274 -0.2425  0.1480
   25BDTP    C3 8323   3.329   5.045  10.492  0.0400 -0.2606  0.1286
   25BDTP    C4 8324   3.315   5.129  10.380  0.0297 -0.2331  0.1505
   25BDTP    C5 8325   3.423   5.215  10.345  0.0069 -0.1881  0.1915
   25BDTP    C6 8326   3.541   5.221  10.417 -0.0055 -0.1699  0.2110
   25BDTP    C7 8327   3.202   5.141  10.291  0.0392 -0.2444  0.1368
   25BDTP    C8 8328   3.218   5.231  10.192  0.0250 -0.2104  0.1652
   25BDTP    S1 8329   3.380   5.314  10.197 -0.0025 -0.1595  0.2132
   25BDTP    C9 8330   3.669   5.124  10.618 -0.0048 -0.1862  0.2027
   25BDTP   C10 8331   3.652   5.034  10.717  0.0094 -0.2201  0.1743
   25BDTP    S2 8332   3.490   4.952  10.712  0.0370 -0.2710  0.1264
   26FTM     S1 8333   3.153   5.053  10.715 -0.1435  0.1669 -0.0006
   26FTM     C1 8334   3.002   4.955  10.707 -0.1465  0.1735 -0.0236
   26FTM     C2 8335   3.002   4.880  10.593 -0.0802  0.0886  0.0321
   26FTM     C3 8336   3.116   4.894  10.508 -0.0244  0.0151  0.0945
   26FTM     C4 8337   3.207   4.983  10.558 -0.0488  0.0445  0.0864
   26FTM     F1 8338   2.898   4.794  10.560 -0.0661  0.0727  0.0298
   26FTM     C5 8339   2.918   4.966  10.828  0.4599  0.7841  0.3023
   26FTM     C6 8340   2.764   4.952  10.824  0.1259  0.4445 -0.0058
   26FTM     C7 8341   2.684   5.045  10.732 -0.0800  0.0025 -0.7043
   26FTM     C8 8342   2.530   5.050  10.750 -0.2582  0.2844 -0.4216
   26FTM     C9 8343   2.443   5.142  10.665  0.9440 -0.3086  0.3703
   26FTM    C10 8344   2.484   5.292  10.663 -0.5265  0.0301  0.2766
   26FTM    C11 8345   2.718   4.806  10.808  0.9531  0.6111  0.3605
   26FTM    C12 8346   2.752   4.701  10.916 -0.2959  0.4016  0.0402
   27FTM     S1 8347   3.714   5.437  10.506 -0.2339  0.0785  0.0855
   27FTM     C1 8348   3.834   5.497  10.385 -0.1918  0.0229  0.0996
   27FTM     C2 8349   3.815   5.433  10.266 -0.0492 -0.1445  0.1665
   27FTM     C3 8350   3.710   5.336  10.262  0.0340 -0.2373  0.2099
   27FTM     C4 8351   3.645   5.326  10.382 -0.0475 -0.1380  0.1750
   27FTM     F1 8352   3.893   5.458  10.154  0.0144 -0.2235  0.1925
   27FTM     C5 8353   3.929   5.609  10.420 -0.1028 -0.0035 -0.1683
   27FTM     C6 8354   4.067   5.578  10.482 -0.5130  0.0668 -0.0952
   27FTM     C7 8355   4.166   5.513  10.376 -0.2225  0.4634  0.1978
   27FTM     C8 8356   4.218   5.599  10.265 -0.2976 -0.2135 -0.1010
   27FTM     C9 8357   4.290   5.516  10.159 -0.1072 -0.3505  0.0514
   27FTM    C10 8358   4.312   5.595  10.028 -0.3805 -0.8144  0.4045
   27FTM    C11 8359   4.061   5.500  10.619 -0.0506 -0.3291  0.1333
   27FTM    C12 8360   4.028   5.352  10.609 -0.3031  0.0751  0.2894
   28TPM     C1 8361   3.752   4.992  10.811  0.2301  0.0510  0.1172
   28TPM     C2 8362   3.736   4.889  10.899  0.0247  0.3905  0.4834
   28TPM     C3 8363   3.852   4.862  10.979  0.0247  0.3458  0.4687
   28TPM     C4 8364   3.957   4.945  10.953  0.2298 -0.0275  0.0914
   28TPM     S1 8365   3.917   5.064  10.823  0.4408 -0.3543 -0.2774
   29BDD     C1 8366   4.223   4.853  11.232  0.1393  0.0802  0.0324
   29BDD     C2 8367   4.281   4.956  11.164  0.0985  0.0865  0.0069
   29BDD     C3 8368   4.199   5.007  11.055  0.0423  0.0829  0.0476
   29BDD     C4 8369   4.079   4.943  11.043  0.0415  0.0738  0.1034
   29BDD     S1 8370   4.061   4.814  11.166  0.1107  0.0690  0.1089
   29BDD     C5 8371   4.415   5.011  11.195  0.1092  0.0963 -0.0556
   29BDD     C6 8372   4.243   5.118  10.968 -0.0082  0.0887  0.0297
   29BDD     O1 8373   4.172   5.162  10.875 -0.0566  0.0856  0.0647
   29BDD     O2 8374   4.486   4.967  11.289  0.1574  0.0994 -0.0907
   29BDD     C7 8375   4.376   5.173  10.999  0.0025  0.0985 -0.0329
   29BDD     C8 8376   4.458   5.122  11.108  0.0584  0.1022 -0.0736
   29BDD     C9 8377   4.578   5.187  11.120  0.0594  0.1112 -0.1293
   29BDD     S2 8378   4.597   5.316  10.997 -0.0100  0.1160 -0.1348
   29BDD    C10 8379   4.435   5.276  10.931 -0.0385  0.1049 -0.0582
   29BDD    C11 8380   4.382   5.381  10.833  0.1082 -0.4008 -0.1458
   29BDD    C12 8381   4.465   5.402  10.705 -0.1916  0.5095 -0.6186
   29BDD    C13 8382   4.441   5.535  10.632 -0.7909  0.2289 -0.0638
   29BDD    C14 8383   4.458   5.670  10.706 -0.2025  0.2505 -0.2278
   29BDD    C15 8384   4.598   5.706  10.755  0.4099  0.5653 -0.3561
   29BDD    C16 8385   4.613   5.833  10.838  0.5587 -0.5628 -0.3444
   29BDD    C17 8386   4.494   5.279  10.614 -0.2703  0.7570 -0.2125
   29BDD    C18 8387   4.386   5.225  10.519 -0.1365  0.0777 -0.1917
   29BDD    C19 8388   4.697   5.182  11.217  0.0534  0.0420  0.7709
   29BDD    C20 8389   4.792   5.061  11.193  0.3101 -0.9473  0.6310
   29BDD    C21 8390   4.912   5.055  11.294  0.1406 -0.1357 -0.1468
   29BDD    C22 8391   4.901   5.107  11.436 -0.3090  0.2567 -0.3794
   29BDD    C23 8392   4.780   5.065  11.523 -0.0039  1.0058 -0.0634
   29BDD    C24 8393   4.755   4.915  11.553  0.2064 -0.1286  0.1763
   29BDD    C25 8394   4.834   5.017  11.053  0.1608 -0.7046  0.0461
   29BDD    C26 8395   4.928   5.119  10.982  0.3311 -0.4593 -0.1011
   30TPM     C1 8396   4.254   4.762  11.344  0.1342 -0.4962  0.0154
   30TPM     C2 8397   4.378   4.736  11.394  0.0370 -0.5447  0.2328
   30TPM     C3 8398   4.379   4.636  11.498 -0.2569 -0.1382  0.6346
   30TPM     C4 8399   4.256   4.586  11.527 -0.3833  0.2200  0.7236
   30TPM     S1 8400   4.128   4.662  11.424 -0.1395  0.0708  0.3036
   31BDTP    C1 8401   4.114   4.101  11.897 -0.0061 -0.0683 -0.0613
   31BDTP    C2 8402   3.997   4.114  11.816 -0.0986  0.0352  0.0873
   31BDTP    C3 8403   3.983   4.212  11.719 -0.1608  0.0852  0.1467
   31BDTP    C4 8404   4.089   4.303  11.701 -0.1304  0.0312  0.0556
   31BDTP    C5 8405   4.206   4.290  11.782 -0.0379 -0.0719 -0.0931
   31BDTP    C6 8406   4.220   4.192  11.879  0.0242 -0.1223 -0.1526
   31BDTP    C7 8407   4.098   4.412  11.607 -0.1823  0.0673  0.0926
   31BDTP    C8 8408   4.214   4.482  11.613 -0.1338 -0.0032 -0.0196
   31BDTP    S1 8409   4.329   4.418  11.739 -0.0155 -0.1249 -0.1880
   31BDTP    C9 8410   4.105   3.992  11.991  0.0458 -0.1042 -0.0985
   31BDTP   C10 8411   3.989   3.922  11.985 -0.0029 -0.0336  0.0138
   31BDTP    S2 8412   3.874   3.986  11.859 -0.1210  0.0879  0.1821
   32FTM     S1 8413   3.841   4.228  11.468 -0.3976  0.0733 -0.0185
   32FTM     C1 8414   3.661   4.223  11.478 -0.3779  0.0687  0.3775
   32FTM     C2 8415   3.622   4.223  11.608 -0.0915  0.0632  0.4653
   32FTM     C3 8416   3.727   4.225  11.706  0.1246  0.0620  0.2356
   32FTM     C4 8417   3.850   4.228  11.648 -0.0002  0.0672 -0.0370
   32FTM     F1 8418   3.489   4.220  11.646 -0.0082  0.0585  0.7589
   32FTM     C5 8419   3.575   4.236  11.355  0.0848  0.4304 -0.6744
   32FTM     C6 8420   3.608   4.334  11.239  1.1297  0.1379 -1.0262
   32FTM     C7 8421   3.510   4.333  11.118  0.3218 -0.3989  0.5371
   32FTM     C8 8422   3.446   4.195  11.067 -0.7372 -0.5992 -0.4290
   32FTM     C9 8423   3.548   4.086  11.034 -0.6106 -0.4474 -0.2736
   32FTM    C10 8424   3.475   3.977  10.975 -0.2316  0.4758 -0.0912
   32FTM    C11 8425   3.676   4.462  11.274  0.0996  0.4097 -0.6982
   32FTM    C12 8426   3.736   4.552  11.165  0.1253 -0.5320 -0.0946
   33FTM     S1 8427   4.351   4.161  12.136  0.1921  0.1932 -0.1232
   33FTM     C1 8428   4.526   4.121  12.129  0.1958  0.2525 -0.3651
   33FTM     C2 8429   4.569   4.123  11.999 -0.0658 -0.0933 -0.4589
   33FTM     C3 8430   4.470   4.155  11.901 -0.2799 -0.4178 -0.3513
   33FTM     C4 8431   4.347   4.178  11.956 -0.1791 -0.3170 -0.1688
   33FTM     F1 8432   4.700   4.096  11.963 -0.1268 -0.1370 -0.6480
   33FTM     C5 8433   4.609   4.095  12.256 -0.0332 -0.1091  0.1173
   33FTM     C6 8434   4.605   3.977  12.355  0.9009 -0.2500 -0.0884
   33FTM     C7 8435   4.463   3.935  12.416  1.2708 -0.3253 -0.2663
   33FTM     C8 8436   4.387   4.043  12.497 -0.0643 -0.7640 -0.3538
   33FTM     C9 8437   4.244   4.008  12.540  0.9863  0.6390 -0.0913
   33FTM    C10 8438   4.144   4.122  12.583 -0.9928  1.1217 -0.9591
   33FTM    C11 8439   4.720   3.974  12.450 -0.2203 -0.4827  0.0432
   33FTM    C12 8440   4.740   3.852  12.533  0.4468  0.4963 -0.2511
   34TPM     C1 8441   3.965   3.808  12.066  0.0945 -0.0570  0.3428
   34TPM     C2 8442   4.037   3.761  12.172  0.3579 -0.3708  0.0317
   34TPM     C3 8443   3.987   3.636  12.224  0.4998 -0.5347 -0.2271
   34TPM     C4 8444   3.879   3.588  12.156  0.3447 -0.3460 -0.1132
   34TPM     S1 8445   3.830   3.698  12.022  0.0047  0.0565  0.3331
   35BDD     C1 8446   3.575   3.344  12.206 -0.1513 -0.0654 -0.0859
   35BDD     C2 8447   3.680   3.284  12.270 -0.0804 -0.0436 -0.1800
   35BDD     C3 8448   3.803   3.359  12.262 -0.0907 -0.0419 -0.3342
   35BDD     C4 8449   3.792   3.476  12.192 -0.1691 -0.0625 -0.3555
   35BDD     S1 8450   3.625   3.500  12.131 -0.2355 -0.0854 -0.1839
   35BDD     C5 8451   3.669   3.154  12.341 -0.0008 -0.0235 -0.1316
   35BDD     C6 8452   3.929   3.312  12.325 -0.0223 -0.0200 -0.4548
   35BDD     O1 8453   4.036   3.377  12.318 -0.0311 -0.0186 -0.5877
   35BDD     O2 8454   3.562   3.089  12.347  0.0080 -0.0250  0.0013
   35BDD     C7 8455   3.919   3.183  12.395  0.0573  0.0001 -0.4064
   35BDD     C8 8456   3.795   3.108  12.403  0.0675 -0.0016 -0.2522
   35BDD     C9 8457   3.807   2.991  12.473  0.1460  0.0189 -0.2309
   35BDD     S2 8458   3.974   2.967  12.534  0.2123  0.0418 -0.4025
   35BDD    C10 8459   4.023   3.122  12.460  0.1281  0.0218 -0.5004
   35BDD    C11 8460   4.168   3.145  12.466  0.0547  0.0177  0.2590
   35BDD    C12 8461   4.260   3.057  12.374 -0.2891  0.0228  0.3272
   35BDD    C13 8462   4.408   3.059  12.421 -0.5479 -0.3968  0.0722
   35BDD    C14 8463   4.511   2.965  12.360  0.1555  0.1052  0.1576
   35BDD    C15 8464   4.496   2.818  12.399  0.2632  1.2576  0.5141
   35BDD    C16 8465   4.607   2.731  12.349 -0.5964  0.3539  0.0345
   35BDD    C17 8466   4.222   3.071  12.224  0.4323  0.2360 -0.3327
   35BDD    C18 8467   4.258   3.192  12.145 -0.5927 -0.5073 -0.1979
   35BDD    C19 8468   3.701   2.890  12.518 -0.0653  0.4737  0.1673
   35BDD    C20 8469   3.694   2.859  12.668 -0.5156  0.2187  0.4117
   35BDD    C21 8470   3.692   2.987  12.749 -0.1581 -0.1294 -0.2563
   35BDD    C22 8471   3.750   2.992  12.889  0.0832  0.4896  0.0236
   35BDD    C23 8472   3.764   3.135  12.949 -0.3484  0.1491  0.8100
   35BDD    C24 8473   3.826   3.148  13.089  0.1541  0.1784 -0.2889
   35BDD    C25 8474   3.578   2.764  12.709  0.5830  0.0797 -0.5114
   35BDD    C26 8475   3.429   2.807  12.693 -0.6126  0.1083 -0.3827
   36TPM     C1 8476   3.431   3.315  12.181  0.1160 -0.1296  0.3555
   36TPM     C2 8477   3.365   3.387  12.086  0.2007 -0.1284  0.2970
   36TPM     C3 8478   3.235   3.335  12.054  0.2406 -0.1456  0.1579
   36TPM     C4 8479   3.201   3.223  12.125  0.1864 -0.1597  0.1105
   36TPM     S1 8480   3.333   3.175  12.238  0.0798 -0.1525  0.2387
   37BDTP    C1 8481   2.660   2.924  12.028  0.0555  0.1882  0.0008
   37BDTP    C2 8482   2.712   2.859  12.144  0.0796  0.0594 -0.0820
   37BDTP    C3 8483   2.834   2.895  12.201  0.0954 -0.0096 -0.0723
   37BDTP    C4 8484   2.907   2.999  12.142  0.0868  0.0510  0.0234
   37BDTP    C5 8485   2.855   3.064  12.026  0.0628  0.1798  0.1061
   37BDTP    C6 8486   2.733   3.028  11.969  0.0470  0.2489  0.0964
   37BDTP    C7 8487   3.035   3.053  12.184  0.0997 -0.0011  0.0516
   37BDTP    C8 8488   3.081   3.154  12.106  0.0866  0.0812  0.1503
   37BDTP    S1 8489   2.968   3.195  11.969  0.0561  0.2366  0.2214
   37BDTP    C9 8490   2.532   2.870  11.987  0.0426  0.2404 -0.0275
   37BDTP   C10 8491   2.487   2.769  12.065  0.0558  0.1580 -0.1262
   37BDTP    S2 8492   2.599   2.728  12.202  0.0863  0.0028 -0.1972
   38FTM     S1 8493   3.048   2.727  12.303  0.0052 -0.0132  0.4565
   38FTM     C1 8494   3.029   2.668  12.473 -0.5027 -0.5476  0.2215
   38FTM     C2 8495   2.909   2.709  12.522 -0.9221 -1.2265 -0.2092
   38FTM     C3 8496   2.826   2.786  12.434 -0.8751 -1.3692 -0.3784
   38FTM     C4 8497   2.885   2.805  12.313 -0.4045 -0.7803 -0.0673
   38FTM     F1 8498   2.867   2.678  12.651 -1.3734 -1.7593 -0.4755
   38FTM     C5 8499   3.126   2.569  12.526 -0.2966 -0.5868  0.0148
   38FTM     C6 8500   3.114   2.417  12.518 -0.0003 -0.1366  0.2894
   38FTM     C7 8501   2.994   2.362  12.600  0.3098  0.2938 -0.3233
   38FTM     C8 8502   3.011   2.350  12.753  0.3900 -0.4851 -0.4928
   38FTM     C9 8503   3.095   2.234  12.815 -0.1157 -0.6703 -0.3921
   38FTM    C10 8504   3.093   2.244  12.965  0.4091 -0.2410  0.0320
   38FTM    C11 8505   3.112   2.353  12.381 -0.1653  0.1002  0.7315
   38FTM    C12 8506   3.226   2.379  12.281  0.0477 -0.0297  0.4829
   39FTM     S1 8507   2.516   3.140  11.812 -0.0554 -0.1368 -0.1827
   39FTM     C1 8508   2.557   3.190  11.644  0.0336  0.1634 -0.0741
   39FTM     C2 8509   2.690   3.174  11.621  0.0526  0.2450 -0.0181
   39FTM     C3 8510   2.767   3.124  11.731  0.0004  0.0827 -0.0553
   39FTM     C4 8511   2.690   3.100  11.841 -0.0606 -0.1299 -0.1426
   39FTM     F1 8512   2.750   3.204  11.500  0.1184  0.4712  0.0702
   39FTM     C5 8513   2.447   3.234  11.548 -0.0836 -0.0923 -0.9331
   39FTM     C6 8514   2.373   3.138  11.455 -0.3418 -0.7101 -0.4448
   39FTM     C7 8515   2.285   3.037  11.530  0.2183 -0.2899 -0.2766
   39FTM     C8 8516   2.202   3.079  11.648 -0.3956  0.3300 -0.5759
   39FTM     C9 8517   2.140   2.963  11.721  0.1848 -0.6837  0.3009
   39FTM    C10 8518   2.033   3.008  11.818  0.5857 -0.1635 -0.0264
   39FTM    C11 8519   2.464   3.082  11.350 -0.6912 -0.3640 -0.0916
   39FTM    C12 8520   2.399   2.999  11.237  0.1609 -0.2527 -0.1734
   40TPM     C1 8521   2.367   2.690  12.054  0.2749  0.2695  0.5188
   40TPM     C2 8522   2.267   2.707  11.963  0.2942  0.6204  0.5614
   40TPM     C3 8523   2.168   2.603  11.964  0.2679  0.6359  0.1750
   40TPM     C4 8524   2.191   2.506  12.058  0.2286  0.2968 -0.1622
   40TPM     S1 8525   2.342   2.539  12.151  0.2217 -0.0711 -0.0169
   41BDD     C1 8526   2.078   2.136  12.135 -0.0638  0.0279 -0.0344
   41BDD     C2 8527   1.978   2.185  12.057 -0.0955  0.0169 -0.0005
   41BDD     C3 8528   1.999   2.323  12.016 -0.2152  0.0809  0.1482
   41BDD     C4 8529   2.116   2.376  12.063 -0.2730  0.1399  0.2255
   41BDD     S1 8530   2.207   2.257  12.162 -0.1815  0.1190  0.1175
   41BDD     C5 8531   1.858   2.108  12.017 -0.0171 -0.0526 -0.1035
   41BDD     C6 8532   1.904   2.397  11.931 -0.2679  0.0815  0.2081
   41BDD     O1 8533   1.922   2.515  11.895 -0.3711  0.1367  0.3363
   41BDD     O2 8534   1.839   1.990  12.053  0.0861 -0.1079 -0.2316
   41BDD     C7 8535   1.784   2.320  11.891 -0.1895  0.0119  0.1052
   41BDD     C8 8536   1.762   2.182  11.932 -0.0698 -0.0522 -0.0435
   41BDD     C9 8537   1.645   2.129  11.885 -0.0121 -0.1109 -0.1208
   41BDD     S2 8538   1.554   2.248  11.786 -0.1036 -0.0902 -0.0127
   41BDD    C10 8539   1.683   2.370  11.813 -0.2213  0.0010  0.1391
   41BDD    C11 8540   1.674   2.499  11.738 -0.2117  0.2317 -0.1942
   41BDD    C12 8541   1.771   2.512  11.622 -0.1087  0.7198  0.7990
   41BDD    C13 8542   1.780   2.655  11.553  0.3259 -0.0151  0.3715
   41BDD    C14 8543   1.887   2.691  11.445  0.0335  0.1797 -0.3443
   41BDD    C15 8544   2.035   2.683  11.497  0.6156 -0.3535 -0.7510
   41BDD    C16 8545   2.121   2.709  11.377 -0.9971  0.3757  0.0563
   41BDD    C17 8546   1.814   2.382  11.540 -0.2414  0.1014 -0.1346
   41BDD    C18 8547   1.718   2.333  11.434 -0.7500 -0.4471  0.1026
   41BDD    C19 8548   1.567   2.000  11.889  0.1052  0.0577  0.2760
   41BDD    C20 8549   1.621   1.878  11.813 -0.3342 -0.2761 -0.0267
   41BDD    C21 8550   1.663   1.906  11.665  0.1112 -0.4994 -0.5292
   41BDD    C22 8551   1.564   1.939  11.557  0.6883 -0.2485 -0.0686
   41BDD    C23 8552   1.628   1.931  11.420  0.4871  0.2259  0.7898
   41BDD    C24 8553   1.543   1.962  11.302  0.2058  0.0759 -0.1945
   41BDD    C25 8554   1.549   1.743  11.824  0.5888  0.1830  0.4879
   41BDD    C26 8555   1.524   1.687  11.965 -0.5431 -0.3748 -0.0340
   42TPM     C1 8556   2.095   2.016  12.215 -0.1907 -0.2482 -0.1205
   42TPM     C2 8557   2.096   1.893  12.156 -0.6331 -0.5006  0.3826
   42TPM     C3 8558   2.145   1.789  12.242 -0.6339 -0.2555  0.6847
   42TPM     C4 8559   2.181   1.832  12.366 -0.1920  0.1838  0.4119
   42TPM     S1 8560   2.156   2.010  12.384  0.2630  0.3230 -0.2529
   43BDTP    C1 8561   2.326   1.475  12.860  0.1541 -0.0580 -0.0170
   43BDTP    C2 8562   2.274   1.381  12.767  0.2591 -0.0883 -0.0457
   43BDTP    C3 8563   2.227   1.417  12.641  0.1983 -0.0978 -0.0262
   43BDTP    C4 8564   2.233   1.552  12.605  0.0256 -0.0765  0.0240
   43BDTP    C5 8565   2.286   1.647  12.698 -0.0794 -0.0462  0.0528
   43BDTP    C6 8566   2.332   1.611  12.824 -0.0185 -0.0367  0.0332
   43BDTP    C7 8567   2.191   1.613  12.480 -0.0659 -0.0810  0.0523
   43BDTP    C8 8568   2.210   1.747  12.475 -0.2326 -0.0559  0.1004
   43BDTP    S1 8569   2.282   1.815  12.627 -0.2969 -0.0231  0.1165
   43BDTP    C9 8570   2.368   1.415  12.985  0.2457 -0.0535 -0.0452
   43BDTP   C10 8571   2.349   1.281  12.990  0.4123 -0.0785 -0.0933
   43BDTP    S2 8572   2.277   1.212  12.838  0.4767 -0.1114 -0.1095
   44FTM     S1 8573   2.252   1.290  12.387 -0.0080  0.1232 -0.0015
   44FTM     C1 8574   2.118   1.181  12.337 -0.0885  0.1742  0.1014
   44FTM     C2 8575   2.024   1.174  12.435  0.0712  0.0688  0.2460
   44FTM     C3 8576   2.051   1.251  12.553  0.2614 -0.0550  0.2845
   44FTM     C4 8577   2.169   1.319  12.545  0.2468 -0.0442  0.1656
   44FTM     F1 8578   1.909   1.097  12.424  0.0546  0.0783  0.3520
   44FTM     C5 8579   2.135   1.123  12.196 -0.4126 -0.1109 -0.0243
   44FTM     C6 8580   2.152   1.211  12.071  0.6459  0.2122 -0.1225
   44FTM     C7 8581   2.032   1.312  12.078 -0.1087  0.1374  0.9791
   44FTM     C8 8582   2.044   1.428  11.973  0.1660 -0.1281 -0.5790
   44FTM     C9 8583   1.926   1.530  11.976 -0.1120  0.6641  0.3215
   44FTM    C10 8584   1.952   1.647  11.879  0.1356 -0.0388 -0.5832
   44FTM    C11 8585   2.175   1.136  11.937 -0.0227  0.5732 -0.0053
   44FTM    C12 8586   2.064   1.053  11.870  0.3448  0.5562  0.4405
   45FTM     S1 8587   2.539   1.810  12.849  0.1664 -0.1145 -0.0547
   45FTM     C1 8588   2.564   1.873  13.016 -0.3764  0.6234 -0.2430
   45FTM     C2 8589   2.478   1.812  13.102 -0.7984  1.1522 -0.2758
   45FTM     C3 8590   2.390   1.715  13.046 -0.7271  1.0191 -0.1590
   45FTM     C4 8591   2.409   1.700  12.911 -0.2344  0.3670 -0.0329
   45FTM     F1 8592   2.475   1.841  13.238 -1.2743  1.7883 -0.4133
   45FTM     C5 8593   2.659   1.984  13.051 -0.3719  0.0100 -0.5622
   45FTM     C6 8594   2.762   2.047  12.948  0.3331  0.1528 -0.5236
   45FTM     C7 8595   2.705   2.118  12.826  0.1758  0.5611 -0.8263
   45FTM     C8 8596   2.595   2.224  12.854 -0.1782  0.4702  0.4898
   45FTM     C9 8597   2.595   2.326  12.746 -0.0342  0.5160  0.7467
   45FTM    C10 8598   2.522   2.294  12.616  0.3133 -0.6177 -0.3150
   45FTM    C11 8599   2.850   1.946  12.891 -0.6817 -0.2113 -0.2448
   45FTM    C12 8600   2.939   1.859  12.985  0.2223 -0.2575 -0.4582
   46TPM     C1 8601   2.385   1.183  13.096 -0.0057  0.0799 -0.2812
   46TPM     C2 8602   2.477   1.198  13.196  0.4112  0.1070 -0.6635
   46TPM     C3 8603   2.488   1.083  13.282  0.7390  0.1460 -0.6498
   46TPM     C4 8604   2.404   0.981  13.248  0.5721  0.1487 -0.2572
   46TPM     S1 8605   2.304   1.022  13.103 -0.0167  0.1017  0.1287
   47BDD     C1 8606   2.189   0.742  13.470  0.0080  0.1514 -0.2054
   47BDD     C2 8607   2.318   0.714  13.506  0.0032  0.1347 -0.2009
   47BDD     C3 8608   2.416   0.796  13.436  0.0210  0.0623 -0.2611
   47BDD     C4 8609   2.359   0.885  13.348  0.0390  0.0249 -0.3106
   47BDD     S1 8610   2.180   0.872  13.347  0.0350  0.0776 -0.2853
   47BDD     C5 8611   2.356   0.612  13.605 -0.0178  0.1847 -0.1413
   47BDD     C6 8612   2.561   0.783  13.459  0.0194  0.0329 -0.2674
   47BDD     O1 8613   2.645   0.854  13.399  0.0347 -0.0295 -0.3193
   47BDD     O2 8614   2.272   0.542  13.665 -0.0331  0.2471 -0.0893
   47BDD     C7 8615   2.599   0.681  13.558 -0.0016  0.0829 -0.2076
   47BDD     C8 8616   2.502   0.599  13.628 -0.0194  0.1553 -0.1473
   47BDD     C9 8617   2.558   0.511  13.716 -0.0375  0.1927 -0.0979
   47BDD     S2 8618   2.737   0.523  13.717 -0.0335  0.1399 -0.1232
   47BDD    C10 8619   2.729   0.654  13.594 -0.0064  0.0662 -0.2031
   47BDD    C11 8620   2.862   0.690  13.533 -0.1340  1.2167 -0.4190
   47BDD    C12 8621   2.936   0.804  13.589  0.0963 -0.2611 -0.0977
   47BDD    C13 8622   3.051   0.838  13.494  0.3603 -0.7074 -0.0393
   47BDD    C14 8623   3.108   0.983  13.482 -0.5471 -0.0173 -0.0378
   47BDD    C15 8624   3.020   1.072  13.405 -0.0331 -0.3542  0.0916
   47BDD    C16 8625   3.082   1.206  13.387  0.4174 -0.4737 -0.4479
   47BDD    C17 8626   2.980   0.824  13.737  0.3279 -0.2037  0.0857
   47BDD    C18 8627   3.086   0.727  13.797 -0.1339 -0.2906 -0.0134
   47BDD    C19 8628   2.495   0.421  13.822  0.5681  0.1696  0.6673
   47BDD    C20 8629   2.531   0.271  13.814 -0.2249  0.2072  0.2418
   47BDD    C21 8630   2.515   0.203  13.950  0.0551  0.2533 -0.3316
   47BDD    C22 8631   2.369   0.182  14.008 -0.1659 -0.5820  0.2476
   47BDD    C23 8632   2.361   0.158  14.160 -0.5052  0.1594  0.6923
   47BDD    C24 8633   2.216   0.140  14.205 -0.4582 -0.1043 -0.5351
   47BDD    C25 8634   2.495   0.192  13.688  0.4328 -0.3315 -0.1393
   47BDD    C26 8635   2.572   0.061  13.665  0.5976  0.4170 -0.1001
   48TPM     C1 8636   2.052   0.692  13.506 -0.1760 -0.2134 -0.3347
   48TPM     C2 8637   1.945   0.739  13.437 -0.3964 -0.1705  0.0345
   48TPM     C3 8638   1.822   0.670  13.466 -0.3508 -0.0439  0.5466
   48TPM     C4 8639   1.836   0.569  13.557 -0.0958  0.0097  0.5680
   48TPM     S1 8640   2.007   0.554  13.613  0.1083 -0.0963 -0.0620
   49BDTP    C1 8641   1.354   0.253  13.807 -0.3497 -0.0573  0.0855
   49BDTP    C2 8642   1.292   0.346  13.718 -0.3572 -0.1421  0.0011
   49BDTP    C3 8643   1.363   0.436  13.641 -0.3665 -0.1709 -0.0410
   49BDTP    C4 8644   1.504   0.434  13.650 -0.3687 -0.1134  0.0023
   49BDTP    C5 8645   1.566   0.341  13.738 -0.3613 -0.0286  0.0867
   49BDTP    C6 8646   1.495   0.251  13.816 -0.3519  0.0002  0.1286
   49BDTP    C7 8647   1.599   0.517  13.580 -0.3779 -0.1287 -0.0281
   49BDTP    C8 8648   1.728   0.492  13.610 -0.3777 -0.0602  0.0287
   49BDTP    S1 8649   1.748   0.359  13.733 -0.3659  0.0332  0.1285
   49BDTP    C9 8650   1.259   0.170  13.877 -0.3406 -0.0420  0.1158
   49BDTP   C10 8651   1.129   0.195  13.847 -0.3408 -0.1105  0.0591
   49BDTP    S2 8652   1.110   0.328  13.724 -0.3526 -0.2038 -0.0408
   50FTM     S1 8653   1.336   0.553  13.381 -0.1212  0.1788  0.0911
   50FTM     C1 8654   1.213   0.684  13.366 -0.6081 -0.3042 -0.2549
   50FTM     C2 8655   1.153   0.705  13.486 -0.6060 -0.1361 -0.2832
   50FTM     C3 8656   1.197   0.623  13.594 -0.2345  0.3665 -0.0434
   50FTM     C4 8657   1.295   0.535  13.556  0.0573  0.5905  0.1756
   50FTM     F1 8658   1.055   0.801  13.505 -0.9403 -0.4272 -0.5279
   50FTM     C5 8659   1.214   0.762  13.241 -0.7772 -0.4613  0.1462
   50FTM     C6 8660   1.225   0.919  13.250  0.6845  0.0727 -0.5229
   50FTM     C7 8661   1.194   1.005  13.117 -0.0621 -0.0143 -0.7309
   50FTM     C8 8662   1.068   0.969  13.048 -0.1657  0.5423 -0.0301
   50FTM     C9 8663   1.041   1.031  12.914  0.2051 -0.2123 -0.6051
   50FTM    C10 8664   0.892   1.024  12.896  0.4279 -0.4115  0.2426
   50FTM    C11 8665   1.318   0.988  13.344 -0.2215 -0.5905 -1.0117
   50FTM    C12 8666   1.468   0.957  13.327  0.7560 -0.2513 -0.0369
   51FTM     S1 8667   1.538  -0.020  13.879 -0.1216  0.2153  0.0756
   51FTM     C1 8668   1.669  -0.058  13.996  0.0641  0.3521 -0.0859
   51FTM     C2 8669   1.727   0.057  14.041 -0.0132  0.4137 -0.1433
   51FTM     C3 8670   1.674   0.179  13.988 -0.2166  0.3595 -0.0671
   51FTM     C4 8671   1.572   0.157  13.900 -0.2977  0.2526  0.0526
   51FTM     F1 8672   1.831   0.058  14.132  0.0956  0.5231 -0.2683
   51FTM     C5 8673   1.692  -0.206  14.025 -0.5946  0.4596  0.7694
   51FTM     C6 8674   1.663  -0.271  14.159  0.6835  0.5032 -0.3117
   51FTM     C7 8675   1.732  -0.217  14.291  0.8359  0.7967  0.4159
   51FTM     C8 8676   1.879  -0.232  14.292  0.0912  0.1217 -0.4783
   51FTM     C9 8677   1.932  -0.188  14.430 -0.9928  0.4228  0.2602
   51FTM    C10 8678   2.080  -0.183  14.445  0.0858 -0.0603 -0.1979
   51FTM    C11 8679   1.515  -0.272  14.190 -0.0842 -0.3039  0.0042
   51FTM    C12 8680   1.416  -0.347  14.099 -0.1705 -0.0084 -0.1624
   52TPM     C1 8681   1.020   0.118  13.903  0.1128 -0.5014 -0.3404
   52TPM     C2 8682   0.893   0.103  13.856  0.2732 -0.9515 -0.6528
   52TPM     C3 8683   0.817   0.003  13.926  0.2896 -0.8491 -0.4882
   52TPM     C4 8684   0.886  -0.059  14.026  0.1417 -0.3209 -0.0504
   52TPM     S1 8685   1.054   0.005  14.040 -0.0311  0.0912  0.1900
   53BDD     C1 8686   0.880  -0.415  14.187  0.0656 -0.0295 -0.2718
   53BDD     C2 8687   0.748  -0.380  14.183  0.0605 -0.0381 -0.1816
   53BDD     C3 8688   0.725  -0.250  14.124  0.0133 -0.0293 -0.1436
   53BDD     C4 8689   0.839  -0.187  14.084 -0.0169 -0.0138 -0.2054
   53BDD     S1 8690   0.984  -0.287  14.117  0.0117 -0.0093 -0.3154
   53BDD     C5 8691   0.638  -0.466  14.234  0.0989 -0.0548 -0.1270
   53BDD     C6 8692   0.589  -0.192  14.110 -0.0001 -0.0362 -0.0473
   53BDD     O1 8693   0.569  -0.080  14.059 -0.0408 -0.0288 -0.0145
   53BDD     O2 8694   0.659  -0.578  14.285  0.1396 -0.0627 -0.1597
   53BDD     C7 8695   0.480  -0.277  14.160  0.0382 -0.0532  0.0072
   53BDD     C8 8696   0.503  -0.408  14.220  0.0854 -0.0622 -0.0309
   53BDD     C9 8697   0.389  -0.470  14.260  0.1157 -0.0777  0.0308
   53BDD     S2 8698   0.243  -0.370  14.227  0.0871 -0.0823  0.1408
   53BDD    C10 8699   0.348  -0.242  14.157  0.0332 -0.0622  0.0972
   53BDD    C11 8700   0.280  -0.113  14.121 -0.0883  0.5686 -0.6069
   53BDD    C12 8701   0.207  -0.093  13.991 -0.2465  0.1339 -0.4053
   53BDD    C13 8702   0.192   0.055  13.949  0.6824 -0.2069  0.1206
   53BDD    C14 8703   0.307   0.159  13.949 -0.1858  0.4297 -0.2952
   53BDD    C15 8704   0.421   0.145  13.855  0.1650  0.6259 -0.3951
   53BDD    C16 8705   0.535   0.239  13.893  0.1371  0.3571  0.8566
   53BDD    C17 8706   0.089  -0.184  13.957  0.6329  0.3534  0.1937
   53BDD    C18 8707  -0.048  -0.162  14.022 -0.0734 -0.9822  0.0120
   53BDD    C19 8708   0.364  -0.600  14.331  0.1824  0.0829  0.1255
   53BDD    C20 8709   0.307  -0.586  14.473  0.8440 -0.1680 -0.5838
   53BDD    C21 8710   0.378  -0.480  14.562  0.2903  0.4591  0.7857
   53BDD    C22 8711   0.521  -0.496  14.602  0.1557 -0.2308 -0.2899
   53BDD    C23 8712   0.563  -0.358  14.676 -0.1091  0.1478 -0.2178
   53BDD    C24 8713   0.711  -0.357  14.718  0.0423 -0.2772 -0.7213
   53BDD    C25 8714   0.269  -0.716  14.549 -0.1643 -0.6421  0.2217
   53BDD    C26 8715   0.169  -0.805  14.479 -0.7680 -0.1937  0.3323
   54TPM     C1 8716   0.967  -0.537  14.220 -0.2369 -0.1707 -0.1305
   54TPM     C2 8717   1.102  -0.530  14.198 -0.2104  0.2594  0.1426
   54TPM     C3 8718   1.175  -0.643  14.251  0.0564  0.5367  0.3715
   54TPM     C4 8719   1.096  -0.735  14.313  0.2334  0.3184  0.2729
   54TPM     S1 8720   0.922  -0.687  14.309  0.0755 -0.2587 -0.1196
   55BDTP    C1 8721   1.196  -1.274  14.624  0.0292  0.0162  0.3085
   55BDTP    C2 8722   1.328  -1.237  14.585  0.0285 -0.0551  0.2378
   55BDTP    C3 8723   1.356  -1.121  14.513  0.0491 -0.0858  0.1965
   55BDTP    C4 8724   1.248  -1.038  14.477  0.0716 -0.0439  0.2263
   55BDTP    C5 8725   1.116  -1.075  14.516  0.0724  0.0277  0.2971
   55BDTP    C6 8726   1.089  -1.190  14.588  0.0517  0.0578  0.3383
   55BDTP    C7 8727   1.252  -0.913  14.403  0.0954 -0.0642  0.1937
   55BDTP    C8 8728   1.131  -0.856  14.385  0.1138 -0.0114  0.2360
   55BDTP    S1 8729   0.995  -0.951  14.459  0.1035  0.0701  0.3233
   55BDTP    C9 8730   1.193  -1.398  14.698  0.0055  0.0360  0.3413
   55BDTP   C10 8731   1.314  -1.456  14.716 -0.0129 -0.0162  0.2989
   55BDTP    S2 8732   1.450  -1.360  14.642 -0.0026 -0.0982  0.2117
   56FTM     S1 8733   1.573  -0.934  14.484 -0.0392  0.1578 -0.0832
   56FTM     C1 8734   1.715  -0.988  14.387  0.2473  0.3550  0.2256
   56FTM     C2 8735   1.698  -1.117  14.348  0.5466  0.3066  0.2517
   56FTM     C3 8736   1.577  -1.180  14.390  0.5708  0.1175  0.0381
   56FTM     C4 8737   1.498  -1.097  14.463  0.2806  0.0182 -0.1575
   56FTM     F1 8738   1.792  -1.185  14.273  0.8164  0.4306  0.4702
   56FTM     C5 8739   1.821  -0.888  14.354  0.5450  0.6390  0.4868
   56FTM     C6 8740   1.801  -0.746  14.289 -0.7816  0.0315  0.2330
   56FTM     C7 8741   1.742  -0.634  14.378  0.0159 -0.4450 -0.4409
   56FTM     C8 8742   1.811  -0.604  14.509 -1.3915 -1.1035  0.5543
   56FTM     C9 8743   1.956  -0.554  14.503  0.4479 -0.8120 -0.2006
   56FTM    C10 8744   2.005  -0.512  14.643 -0.1211 -0.6403 -0.4336
   56FTM    C11 8745   1.733  -0.745  14.146  0.3693 -0.0450  0.1877
   56FTM    C12 8746   1.573  -0.764  14.128 -0.5978 -0.4405  0.0204
   57FTM     S1 8747   0.834  -1.093  14.704 -0.3996  0.1540  0.1590
   57FTM     C1 8748   0.708  -1.221  14.723 -0.3636  0.1486  0.3577
   57FTM     C2 8749   0.760  -1.343  14.692 -0.3795  0.1373  0.3743
   57FTM     C3 8750   0.898  -1.344  14.651 -0.4197  0.1326  0.2370
   57FTM     C4 8751   0.953  -1.219  14.652 -0.4351  0.1404  0.1110
   57FTM     F1 8752   0.687  -1.460  14.697 -0.3587  0.1307  0.5151
   57FTM     C5 8753   0.571  -1.190  14.763  0.4899 -0.4722 -0.3567
   57FTM     C6 8754   0.490  -1.089  14.677 -0.1891  0.1807  0.2933
   57FTM     C7 8755   0.442  -1.137  14.536 -0.2453 -0.1136 -0.6959
   57FTM     C8 8756   0.342  -1.252  14.546 -0.2334  0.7511  0.3419
   57FTM     C9 8757   0.281  -1.289  14.412  0.7573  0.2106  0.0477
   57FTM    C10 8758   0.168  -1.391  14.442  0.6706 -0.1198  0.5949
   57FTM    C11 8759   0.537  -0.947  14.683 -0.8337 -0.2161 -0.1119
   57FTM    C12 8760   0.533  -0.880  14.824  0.2647 -0.0628  0.0576
   58TPM     C1 8761   1.342  -1.585  14.777 -0.3523  0.1368  0.3327
   58TPM     C2 8762   1.462  -1.647  14.788 -0.4239 -0.0206  0.2396
   58TPM     C3 8763   1.456  -1.776  14.852 -0.5996 -0.1942 -0.1203
   58TPM     C4 8764   1.330  -1.812  14.890 -0.6620 -0.1694 -0.3017
   58TPM     S1 8765   1.209  -1.685  14.848 -0.5025  0.0772 -0.0298
   59BDD     C1 8766   1.189  -2.049  15.166 -0.1979  0.0430 -0.1757
   59BDD     C2 8767   1.282  -2.125  15.101 -0.1436  0.1017 -0.1658
   59BDD     C3 8768   1.352  -2.053  14.996 -0.0748  0.1892 -0.0615
   59BDD     C4 8769   1.310  -1.923  14.982 -0.0776  0.1957  0.0067
   59BDD     S1 8770   1.180  -1.883  15.099 -0.1666  0.0931 -0.0550
   59BDD     C5 8771   1.312  -2.266  15.134 -0.1531  0.0798 -0.2520
   59BDD     C6 8772   1.457  -2.115  14.913 -0.0087  0.2629 -0.0335
   59BDD     O1 8773   1.517  -2.053  14.822  0.0506  0.3382  0.0565
   59BDD     O2 8774   1.252  -2.328  15.225 -0.2125  0.0044 -0.3420
   59BDD     C7 8775   1.486  -2.256  14.945 -0.0182  0.2408 -0.1196
   59BDD     C8 8776   1.417  -2.328  15.051 -0.0871  0.1535 -0.2239
   59BDD     C9 8777   1.459  -2.457  15.065 -0.0843  0.1469 -0.2921
   59BDD     S2 8778   1.588  -2.498  14.947  0.0047  0.2496 -0.2305
   59BDD    C10 8779   1.580  -2.332  14.881  0.0361  0.2996 -0.1098
   59BDD    C11 8780   1.670  -2.307  14.764 -0.4671  0.8225 -0.5454
   59BDD    C12 8781   1.618  -2.325  14.612 -0.1119 -0.0271 -1.0998
   59BDD    C13 8782   1.538  -2.452  14.587  0.8607  0.2783 -1.0644
   59BDD    C14 8783   1.613  -2.588  14.581  0.1007 -0.1733  1.0303
   59BDD    C15 8784   1.523  -2.705  14.586 -0.4284 -0.1827  0.1612
   59BDD    C16 8785   1.594  -2.826  14.531  0.5703  0.3907  0.3025
   59BDD    C17 8786   1.722  -2.304  14.504  0.5897  0.0306 -0.0980
   59BDD    C18 8787   1.822  -2.189  14.503  0.8287  0.3148  0.2029
   59BDD    C19 8788   1.423  -2.564  15.165  0.4678  0.0252  0.3538
   59BDD    C20 8789   1.310  -2.656  15.117  0.6529 -1.0030 -0.0383
   59BDD    C21 8790   1.334  -2.730  14.987 -0.4549 -0.2389 -0.3721
   59BDD    C22 8791   1.223  -2.796  14.909 -0.0517 -0.3826  0.3895
   59BDD    C23 8792   1.287  -2.864  14.787  0.3268 -0.1413 -0.0542
   59BDD    C24 8793   1.191  -2.971  14.734 -0.2392 -0.0196  0.1680
   59BDD    C25 8794   1.221  -2.727  15.225 -0.2480 -0.3817 -0.5203
   59BDD    C26 8795   1.175  -2.649  15.348 -0.1591  0.3986 -0.1838
   60TPM     C1 8796   1.087  -2.072  15.272  0.2049  0.1123 -0.2400
   60TPM     C2 8797   1.120  -2.130  15.390  0.3527  0.2469 -0.2149
   60TPM     C3 8798   1.021  -2.112  15.494  0.4649  0.3337 -0.1231
   60TPM     C4 8799   0.913  -2.040  15.454  0.4025  0.2651 -0.0782
   60TPM     S1 8800   0.927  -1.989  15.282  0.1957  0.0844 -0.1490
    1BDTP    C1 8801   2.448   7.940   1.072 -0.1245  0.0136  0.3774
    1BDTP    C2 8802   2.457   8.000   0.943 -0.1353 -0.1431  0.3043
    1BDTP    C3 8803   2.514   8.124   0.922 -0.0815 -0.1953  0.1397
    1BDTP    C4 8804   2.564   8.194   1.033 -0.0138 -0.0875  0.0425
    1BDTP    C5 8805   2.555   8.135   1.162 -0.0029  0.0689  0.1156
    1BDTP    C6 8806   2.498   8.010   1.183 -0.0568  0.1210  0.2801
    1BDTP    C7 8807   2.627   8.325   1.036  0.0500 -0.1145 -0.1305
    1BDTP    C8 8808   2.665   8.366   1.159  0.1075  0.0131 -0.1900
    1BDTP    S1 8809   2.626   8.245   1.289  0.0889  0.1845 -0.0353
    1BDTP    C9 8810   2.385   7.810   1.069 -0.1883  0.0404  0.5503
    1BDTP   C10 8811   2.347   7.769   0.946 -0.2457 -0.0871  0.6098
    1BDTP    S2 8812   2.386   7.890   0.816 -0.2271 -0.2589  0.4552
    2FTM     S1 8813   2.377   8.236   0.698 -0.0664  0.3237 -0.0024
    2FTM     C1 8814   2.483   8.313   0.573  0.1668  0.2990  0.1779
    2FTM     C2 8815   2.613   8.299   0.608  0.1150  0.0453  0.2761
    2FTM     C3 8816   2.639   8.230   0.731 -0.1041 -0.1411  0.2184
    2FTM     C4 8817   2.524   8.189   0.792 -0.2238 -0.0260  0.0713
    2FTM     F1 8818   2.717   8.348   0.531  0.2627 -0.0339  0.4239
    2FTM     C5 8819   2.416   8.390   0.462  0.0388 -0.0162  0.2910
    2FTM     C6 8820   2.337   8.325   0.347 -0.0648  0.2385 -0.6935
    2FTM     C7 8821   2.239   8.431   0.278 -0.4719  0.4943 -0.5503
    2FTM     C8 8822   2.132   8.484   0.363  0.7328 -0.4116 -0.1684
    2FTM     C9 8823   2.047   8.591   0.291  0.4347 -0.2335  0.3026
    2FTM    C10 8824   1.927   8.619   0.382  0.4565 -0.1293 -0.1428
    2FTM    C11 8825   2.412   8.227   0.257 -0.4186 -0.5848  0.6570
    2FTM    C12 8826   2.536   8.289   0.181  0.1088 -0.6146  0.3160
    3FTM     S1 8827   2.649   7.941   1.413  0.0268 -0.1042 -0.3145
    3FTM     C1 8828   2.553   7.899   1.559  0.2396 -0.3382 -0.2398
    3FTM     C2 8829   2.420   7.899   1.528  0.1978 -0.3417 -0.0596
    3FTM     C3 8830   2.387   7.931   1.393  0.0024 -0.1669  0.0291
    3FTM     C4 8831   2.497   7.956   1.317 -0.1089 -0.0249 -0.0869
    3FTM     F1 8832   2.322   7.871   1.622  0.3339 -0.5034  0.0356
    3FTM     C5 8833   2.615   7.878   1.696  0.1586 -0.1139 -0.3830
    3FTM     C6 8834   2.729   7.785   1.725  0.3793 -0.2564 -0.7589
    3FTM     C7 8835   2.796   7.810   1.864 -0.3034 -1.2026 -0.2752
    3FTM     C8 8836   2.861   7.944   1.882 -0.1073 -0.3047  0.0651
    3FTM     C9 8837   2.893   7.978   2.030 -0.0743  0.0152  0.3057
    3FTM    C10 8838   2.767   7.962   2.119 -0.4034 -0.0781 -0.3107
    3FTM    C11 8839   2.692   7.640   1.694 -0.2121  0.6603  0.0157
    3FTM    C12 8840   2.798   7.533   1.667  0.4879  0.2033  0.4413
    4TPM     C1 8841   2.285   7.644   0.906 -0.0693 -0.0487 -0.0728
    4TPM     C2 8842   2.240   7.614   0.781  0.1224 -0.2693 -0.0905
    4TPM     C3 8843   2.183   7.482   0.770  0.3403 -0.3715  0.0003
    4TPM     C4 8844   2.185   7.411   0.887  0.3148 -0.2290  0.0874
    4TPM     S1 8845   2.260   7.507   1.020  0.0111  0.0476  0.0611
    5BDD     C1 8846   2.014   7.068   0.792 -0.2284 -0.1349 -0.0066
    5BDD     C2 8847   2.088   7.041   0.904 -0.1987 -0.0882 -0.0152
    5BDD     C3 8848   2.156   7.158   0.956 -0.2023 -0.0614 -0.0694
    5BDD     C4 8849   2.133   7.272   0.884 -0.2347 -0.0884 -0.1014
    5BDD     S1 8850   2.024   7.240   0.745 -0.2629 -0.1489 -0.0658
    5BDD     C5 8851   2.099   6.908   0.966 -0.1659 -0.0663  0.0262
    5BDD     C6 8852   2.242   7.153   1.077 -0.1735 -0.0101 -0.0876
    5BDD     O1 8853   2.300   7.254   1.122 -0.1767  0.0131 -0.1344
    5BDD     O2 8854   2.040   6.807   0.921 -0.1627 -0.0893  0.0729
    5BDD     C7 8855   2.253   7.020   1.139 -0.1407  0.0119 -0.0463
    5BDD     C8 8856   2.185   6.903   1.086 -0.1371 -0.0149  0.0080
    5BDD     C9 8857   2.208   6.789   1.159 -0.1047  0.0119  0.0400
    5BDD     S2 8858   2.316   6.821   1.298 -0.0765  0.0726  0.0044
    5BDD    C10 8859   2.327   6.993   1.251 -0.1110  0.0588 -0.0548
    5BDD    C11 8860   2.423   7.069   1.329 -0.4368 -0.1611  0.1889
    5BDD    C12 8861   2.361   7.126   1.461 -0.5639 -0.0280  0.1345
    5BDD    C13 8862   2.449   7.230   1.533 -0.0945 -0.2700  0.2886
    5BDD    C14 8863   2.521   7.345   1.461  0.3547  0.6951  1.0148
    5BDD    C15 8864   2.439   7.439   1.365 -0.2234  0.2782 -0.2041
    5BDD    C16 8865   2.524   7.549   1.305  0.1365 -0.2157 -0.0794
    5BDD    C17 8866   2.302   7.030   1.572  0.2452  0.4224 -0.2787
    5BDD    C18 8867   2.379   6.919   1.643  0.0415 -0.2033 -0.0560
    5BDD    C19 8868   2.154   6.646   1.155  0.1072  0.4162  0.3717
    5BDD    C20 8869   2.006   6.638   1.210  0.3250  0.4531 -0.7178
    5BDD    C21 8870   1.967   6.696   1.353  0.2444  0.6387 -0.0297
    5BDD    C22 8871   1.967   6.841   1.379 -0.4345 -0.1778  0.5006
    5BDD    C23 8872   1.879   6.918   1.278 -0.1390  0.1574  0.0494
    5BDD    C24 8873   1.906   7.066   1.298  0.1915  0.7370 -0.0659
    5BDD    C25 8874   1.944   6.498   1.200 -0.1061 -0.4338  1.0592
    5BDD    C26 8875   1.946   6.416   1.073 -0.3968  0.0245  0.1521
    6TPM     C1 8876   1.929   6.993   0.697 -0.4032 -0.2257  0.1973
    6TPM     C2 8877   1.938   6.860   0.666 -0.4455 -0.2245  0.1785
    6TPM     C3 8878   1.863   6.822   0.549 -0.2515 -0.1349  0.0240
    6TPM     C4 8879   1.797   6.926   0.491 -0.0613 -0.0677 -0.0751
    6TPM     S1 8880   1.824   7.081   0.579 -0.1128 -0.1130  0.0198
    7BDTP    C1 8881   1.351   6.961   0.048 -0.1886 -0.0863  0.0703
    7BDTP    C2 8882   1.405   7.092   0.049 -0.1809 -0.0892  0.0232
    7BDTP    C3 8883   1.510   7.130   0.131 -0.1689 -0.0701 -0.0007
    7BDTP    C4 8884   1.565   7.033   0.217 -0.1645 -0.0468  0.0228
    7BDTP    C5 8885   1.511   6.901   0.216 -0.1723 -0.0439  0.0699
    7BDTP    C6 8886   1.405   6.863   0.134 -0.1841 -0.0632  0.0938
    7BDTP    C7 8887   1.674   7.048   0.311 -0.1524 -0.0242  0.0052
    7BDTP    C8 8888   1.705   6.935   0.380 -0.1509 -0.0049  0.0364
    7BDTP    S1 8889   1.599   6.794   0.336 -0.1643 -0.0124  0.0925
    7BDTP    C9 8890   1.241   6.946  -0.045 -0.2006 -0.1090  0.0877
    7BDTP   C10 8891   1.211   7.058  -0.114 -0.2022 -0.1284  0.0565
    7BDTP    S2 8892   1.317   7.199  -0.070 -0.1888 -0.1209  0.0009
    8FTM     S1 8893   1.726   7.332   0.136 -0.0417  0.1915 -0.1229
    8FTM     C1 8894   1.673   7.504   0.127 -0.0666  0.1768 -0.2538
    8FTM     C2 8895   1.537   7.510   0.119 -0.0767  0.1566 -0.0985
    8FTM     C3 8896   1.468   7.385   0.120 -0.0660  0.1513  0.1263
    8FTM     C4 8897   1.554   7.279   0.128 -0.0471  0.1681  0.1437
    8FTM     F1 8898   1.468   7.630   0.111 -0.0962  0.1415 -0.1507
    8FTM     C5 8899   1.779   7.613   0.142 -0.1313 -0.1595 -0.2862
    8FTM     C6 8900   1.822   7.719   0.038  0.1258  0.5671  0.7244
    8FTM     C7 8901   1.918   7.658  -0.064  0.0450  0.3162 -0.1005
    8FTM     C8 8902   2.068   7.651  -0.010 -0.3003 -0.2799 -0.1338
    8FTM     C9 8903   2.169   7.580  -0.107 -0.4754 -0.1740 -0.6550
    8FTM    C10 8904   2.308   7.558  -0.046  0.1677  0.4819  0.4069
    8FTM    C11 8905   1.709   7.801  -0.022  0.7011  0.1394  0.0231
    8FTM    C12 8906   1.634   7.894   0.072  0.0911 -0.0091 -0.2728
    9FTM     S1 8907   1.323   6.613   0.008 -0.0809 -0.4953  0.2744
    9FTM     C1 8908   1.243   6.496   0.119 -0.2322 -0.1598  0.5203
    9FTM     C2 8909   1.231   6.551   0.243 -0.2435  0.1497  0.3837
    9FTM     C3 8910   1.282   6.684   0.258 -0.1377  0.1448  0.0867
    9FTM     C4 8911   1.335   6.732   0.142 -0.0423 -0.1789 -0.0072
    9FTM     F1 8912   1.173   6.484   0.350 -0.3502  0.4556  0.5195
    9FTM     C5 8913   1.207   6.367   0.064  0.8228  0.0350 -0.6491
    9FTM     C6 8914   1.058   6.347   0.013  0.4989  0.0211  0.2519
    9FTM     C7 8915   1.027   6.200  -0.024  0.4802 -0.5474  0.0112
    9FTM     C8 8916   1.042   6.096   0.082  0.0967 -0.5535 -0.2467
    9FTM     C9 8917   0.929   6.108   0.189 -0.3007  0.6357 -0.0619
    9FTM    C10 8918   0.792   6.063   0.143  0.7589  0.0524 -0.1052
    9FTM    C11 8919   1.006   6.455  -0.086 -0.3564 -0.1842 -0.6220
    9FTM    C12 8920   0.873   6.443  -0.143  0.9685  0.0974 -0.2887
   10TPM     C1 8921   1.103   7.082  -0.202 -0.0708  0.2155  0.2471
   10TPM     C2 8922   1.075   7.205  -0.254  0.0080  0.0705 -0.1459
   10TPM     C3 8923   0.954   7.209  -0.331  0.1957 -0.1782 -0.4582
   10TPM     C4 8924   0.889   7.090  -0.338  0.2601 -0.2229 -0.3036
   10TPM     S1 8925   0.977   6.961  -0.247  0.0872  0.0481  0.2531
   11BDD     C1 8926   0.601   7.067  -0.603 -0.0387 -0.0132  0.0461
   11BDD     C2 8927   0.548   7.024  -0.484 -0.0742  0.0447  0.0515
   11BDD     C3 8928   0.644   7.026  -0.375 -0.1541  0.2584  0.1171
   11BDD     C4 8929   0.767   7.072  -0.411 -0.1784  0.3602  0.1604
   11BDD     S1 8930   0.773   7.114  -0.585 -0.1029  0.1959  0.1223
   11BDD     C5 8931   0.409   6.978  -0.467 -0.0359 -0.0943 -0.0029
   11BDD     C6 8932   0.608   6.984  -0.238 -0.2034  0.3537  0.1345
   11BDD     O1 8933   0.691   6.986  -0.143 -0.2723  0.5380  0.1905
   11BDD     O2 8934   0.327   6.976  -0.562  0.0330 -0.2786 -0.0594
   11BDD     C7 8935   0.469   6.938  -0.221 -0.1652  0.2148  0.0799
   11BDD     C8 8936   0.374   6.936  -0.330 -0.0852  0.0010  0.0143
   11BDD     C9 8937   0.250   6.891  -0.294 -0.0609 -0.1009 -0.0291
   11BDD     S2 8938   0.244   6.848  -0.119 -0.1364  0.0637  0.0088
   11BDD    C10 8939   0.416   6.895  -0.102 -0.2006  0.2728  0.0854
   11BDD    C11 8940   0.469   6.884   0.042  0.1468  0.3666  0.0188
   11BDD    C12 8941   0.533   6.748   0.078 -0.4766  0.0618  0.6866
   11BDD    C13 8942   0.440   6.628   0.056 -0.3275  0.3790  0.3793
   11BDD    C14 8943   0.490   6.491   0.105 -0.1635 -0.2148  0.4112
   11BDD    C15 8944   0.415   6.365   0.059  0.4008 -0.4478  0.4979
   11BDD    C16 8945   0.471   6.241   0.120  0.2769  0.1794  0.4229
   11BDD    C17 8946   0.681   6.725   0.035 -0.0844 -0.1085 -0.0802
   11BDD    C18 8947   0.777   6.818   0.101 -0.7047  0.1809  0.2982
   11BDD    C19 8948   0.125   6.871  -0.369  0.3409 -0.5155  0.3509
   11BDD    C20 8949   0.112   6.739  -0.449  0.1876  0.5376  0.0001
   11BDD    C21 8950   0.120   6.609  -0.364 -0.4363 -0.1645 -0.0442
   11BDD    C22 8951   0.021   6.586  -0.249 -0.3583  0.5336  0.2280
   11BDD    C23 8952   0.048   6.459  -0.177 -0.2805  0.4100 -0.2639
   11BDD    C24 8953  -0.022   6.451  -0.040 -0.2675  0.6002 -0.0969
   11BDD    C25 8954   0.001   6.740  -0.557 -0.8238 -0.0375 -0.2849
   11BDD    C26 8955  -0.012   6.859  -0.658  0.4045  0.4391  0.1083
   12TPM     C1 8956   0.553   7.085  -0.745 -0.1624 -0.3448 -0.0730
   12TPM     C2 8957   0.635   7.159  -0.824  0.0948 -0.4499  0.0911
   12TPM     C3 8958   0.577   7.191  -0.952  0.3085 -0.1931  0.0582
   12TPM     C4 8959   0.452   7.141  -0.970  0.2143  0.1075 -0.1305
   12TPM     S1 8960   0.395   7.049  -0.826 -0.1545  0.0901 -0.2827
   13BDTP    C1 8961   0.085   7.309  -1.455  0.0091 -0.2613 -0.1104
   13BDTP    C2 8962  -0.009   7.258  -1.360  0.0138 -0.1745 -0.0584
   13BDTP    C3 8963   0.029   7.205  -1.238  0.0240 -0.1068 -0.0329
   13BDTP    C4 8964   0.166   7.203  -1.206  0.0300 -0.1258 -0.0596
   13BDTP    C5 8965   0.260   7.255  -1.300  0.0253 -0.2127 -0.1118
   13BDTP    C6 8966   0.222   7.307  -1.423  0.0150 -0.2803 -0.1374
   13BDTP    C7 8967   0.229   7.154  -1.085  0.0407 -0.0666 -0.0413
   13BDTP    C8 8968   0.364   7.166  -1.084  0.0443 -0.1042 -0.0765
   13BDTP    S1 8969   0.430   7.241  -1.236  0.0345 -0.2202 -0.1380
   13BDTP    C9 8970   0.022   7.358  -1.575 -0.0017 -0.3206 -0.1290
   13BDTP   C10 8971  -0.113   7.347  -1.576 -0.0052 -0.2829 -0.0939
   13BDTP    S2 8972  -0.179   7.271  -1.425  0.0046 -0.1668 -0.0322
   14FTM     S1 8973  -0.209   7.273  -1.084 -0.4307 -0.1255 -0.1041
   14FTM     C1 8974  -0.270   7.142  -0.977  0.1656 -0.2629  0.0708
   14FTM     C2 8975  -0.186   7.035  -0.982  0.4694 -0.0197 -0.0522
   14FTM     C3 8976  -0.072   7.048  -1.068  0.2625  0.2809 -0.2844
   14FTM     C4 8977  -0.069   7.169  -1.130 -0.2157  0.2674 -0.3408
   14FTM     F1 8978  -0.207   6.919  -0.909  0.9534 -0.0550  0.0377
   14FTM     C5 8979  -0.421   7.149  -0.934 -0.5119 -0.8403 -0.1369
   14FTM     C6 8980  -0.539   7.111  -1.032 -0.5313  0.1718 -0.5881
   14FTM     C7 8981  -0.508   6.974  -1.103  0.0855  0.7812 -0.5791
   14FTM     C8 8982  -0.477   6.986  -1.255  0.2746  0.4310  0.3118
   14FTM     C9 8983  -0.584   7.065  -1.341 -0.3041 -0.3755 -0.1377
   14FTM    C10 8984  -0.560   7.048  -1.490 -0.6930  0.8622  0.1882
   14FTM    C11 8985  -0.682   7.136  -0.993 -0.1822 -0.0401 -0.5160
   14FTM    C12 8986  -0.721   7.274  -0.944 -0.9262 -0.0009  0.4466
   15FTM     S1 8987   0.458   7.247  -1.566 -0.1310 -0.4833 -0.1552
   15FTM     C1 8988   0.529   7.378  -1.667  0.2636 -0.2675  0.3962
   15FTM     C2 8989   0.453   7.490  -1.656  0.4456 -0.1670  0.6491
   15FTM     C3 8990   0.338   7.482  -1.571  0.2928 -0.2495  0.4349
   15FTM     C4 8991   0.325   7.358  -1.515 -0.0161 -0.4190  0.0040
   15FTM     F1 8992   0.484   7.608  -1.723  0.7612  0.0058  1.0895
   15FTM     C5 8993   0.664   7.361  -1.723 -0.2037  0.0218  0.2628
   15FTM     C6 8994   0.777   7.461  -1.723 -0.0136 -0.0793 -0.6725
   15FTM     C7 8995   0.831   7.515  -1.579  0.0570 -0.1239  0.5787
   15FTM     C8 8996   0.741   7.615  -1.512 -0.0293 -0.0026 -0.1597
   15FTM     C9 8997   0.729   7.753  -1.580  0.0779  0.5729  0.8775
   15FTM    C10 8998   0.615   7.825  -1.515  0.2589  0.0208 -0.0902
   15FTM    C11 8999   0.894   7.435  -1.823  0.5752  0.4367 -0.4411
   15FTM    C12 9000   1.016   7.523  -1.837  0.2245  0.4677 -1.1943
   16TPM     C1 9001  -0.211   7.386  -1.674 -0.1872  0.3676  0.3269
   16TPM     C2 9002  -0.319   7.323  -1.729 -0.0331  0.2325  0.1780
   16TPM     C3 9003  -0.382   7.397  -1.835  0.2270 -0.0012 -0.1450
   16TPM     C4 9004  -0.323   7.517  -1.861  0.2716 -0.0442 -0.2421
   16TPM     S1 9005  -0.181   7.545  -1.753 -0.0143  0.2091  0.0691
   17BDD     C1 9006  -0.323   7.774  -2.154 -0.0870  0.2767 -0.0345
   17BDD     C2 9007  -0.450   7.724  -2.152 -0.0491  0.1750 -0.1407
   17BDD     C3 9008  -0.471   7.624  -2.050  0.0131 -0.0228 -0.3203
   17BDD     C4 9009  -0.359   7.599  -1.975  0.0218 -0.0692 -0.3486
   17BDD     S1 9010  -0.220   7.699  -2.028 -0.0477  0.1315 -0.1523
   17BDD     C5 9011  -0.557   7.767  -2.245 -0.0684  0.2562 -0.0806
   17BDD     C6 9012  -0.601   7.556  -2.029  0.0622 -0.1585 -0.4574
   17BDD     O1 9013  -0.619   7.469  -1.941  0.1159 -0.3291 -0.6125
   17BDD     O2 9014  -0.539   7.854  -2.333 -0.1223  0.4268  0.0745
   17BDD     C7 9015  -0.708   7.599  -2.122  0.0424 -0.0774 -0.3976
   17BDD     C8 9016  -0.687   7.699  -2.224 -0.0200  0.1205 -0.2177
   17BDD     C9 9017  -0.799   7.725  -2.299 -0.0288  0.1671 -0.1893
   17BDD     S2 9018  -0.938   7.624  -2.246  0.0407 -0.0336 -0.3857
   17BDD    C10 9019  -0.835   7.549  -2.120  0.0801 -0.1787 -0.5035
   17BDD    C11 9020  -0.902   7.441  -2.033 -0.1172  0.3822  0.6260
   17BDD    C12 9021  -0.925   7.302  -2.104 -0.3917 -0.7928  0.1540
   17BDD    C13 9022  -1.047   7.286  -2.199  1.3714  0.1125  0.0925
   17BDD    C14 9023  -1.188   7.329  -2.144 -0.0932  0.6185 -0.2905
   17BDD    C15 9024  -1.301   7.277  -2.233  0.0520 -0.1400  0.4008
   17BDD    C16 9025  -1.428   7.311  -2.163  0.0953 -0.0310  0.9680
   17BDD    C17 9026  -0.794   7.252  -2.169 -0.0664  0.8481  0.5159
   17BDD    C18 9027  -0.788   7.099  -2.188  0.4006  0.2131 -0.0956
   17BDD    C19 9028  -0.828   7.822  -2.412 -0.2390  0.4143  0.8690
   17BDD    C20 9029  -0.929   7.935  -2.386  0.0975 -0.3907  0.1447
   17BDD    C21 9030  -1.073   7.894  -2.404 -0.3169 -0.0752  0.8523
   17BDD    C22 9031  -1.167   8.005  -2.425 -0.3864  0.0615  0.3855
   17BDD    C23 9032  -1.305   7.969  -2.378 -0.7107  0.6259 -0.3757
   17BDD    C24 9033  -1.398   7.903  -2.479 -0.5993 -0.3079  0.5396
   17BDD    C25 9034  -0.899   8.044  -2.269  0.2485  0.1523 -0.1903
   17BDD    C26 9035  -0.772   8.127  -2.278  0.1787  0.6157 -0.2142
   18TPM     C1 9036  -0.248   7.876  -2.224  0.3153 -0.1795  0.5445
   18TPM     C2 9037  -0.248   7.892  -2.360  0.1023 -0.7766  0.4681
   18TPM     C3 9038  -0.141   7.974  -2.409 -0.0703 -0.8509 -0.0496
   18TPM     C4 9039  -0.059   8.021  -2.311  0.0112 -0.3107 -0.3683
   18TPM     S1 9040  -0.111   7.964  -2.148  0.3145  0.3390 -0.0362
   19BDTP    C1 9041   0.499   8.302  -2.381  0.1124  0.3550  0.0633
   19BDTP    C2 9042   0.495   8.273  -2.242  0.0993  0.2372  0.0384
   19BDTP    C3 9043   0.386   8.213  -2.180  0.1330  0.0944 -0.0398
   19BDTP    C4 9044   0.275   8.181  -2.260  0.1819  0.0658 -0.0966
   19BDTP    C5 9045   0.279   8.210  -2.399  0.1950  0.1833 -0.0719
   19BDTP    C6 9046   0.388   8.270  -2.461  0.1613  0.3263  0.0065
   19BDTP    C7 9047   0.151   8.118  -2.219  0.2231 -0.0734 -0.1810
   19BDTP    C8 9048   0.062   8.100  -2.320  0.2661 -0.0660 -0.2204
   19BDTP    S1 9049   0.123   8.159  -2.480  0.2602  0.1180 -0.1559
   19BDTP    C9 9050   0.623   8.364  -2.422  0.0711  0.4938  0.1478
   19BDTP   C10 9051   0.712   8.383  -2.321  0.0282  0.4869  0.1870
   19BDTP    S2 9052   0.651   8.324  -2.161  0.0340  0.3024  0.1227
   20FTM     S1 9053   0.277   8.234  -1.919 -0.1615  0.0466 -0.0931
   20FTM     C1 9054   0.330   8.109  -1.801  0.0165  0.4127  0.2197
   20FTM     C2 9055   0.424   8.029  -1.858  0.1530  0.4222  0.4288
   20FTM     C3 9056   0.459   8.059  -1.994  0.1282  0.1523  0.3601
   20FTM     C4 9057   0.390   8.166  -2.042 -0.0326 -0.0716  0.0899
   20FTM     F1 9058   0.484   7.923  -1.791  0.3086  0.6763  0.6946
   20FTM     C5 9059   0.257   8.097  -1.673  0.6812 -0.4040 -0.1187
   20FTM     C6 9060   0.104   8.073  -1.664 -0.1557 -0.2563 -0.2130
   20FTM     C7 9061   0.013   8.195  -1.679 -0.0567  0.2180 -0.3053
   20FTM     C8 9062   0.037   8.297  -1.564 -0.0244  0.4372  0.0154
   20FTM     C9 9063  -0.014   8.436  -1.594  0.7628 -0.1730 -0.5854
   20FTM    C10 9064   0.001   8.529  -1.472 -0.2269 -0.8347  0.5563
   20FTM    C11 9065   0.048   7.944  -1.730 -0.2039 -0.6959 -0.2884
   20FTM    C12 9066   0.122   7.808  -1.706 -0.3360  0.4342 -0.1117
   21FTM     S1 9067   0.241   8.409  -2.663  0.2296  0.0145 -0.2422
   21FTM     C1 9068   0.306   8.396  -2.831  0.3985 -0.2841 -0.1557
   21FTM     C2 9069   0.418   8.319  -2.832  0.1076 -0.7179  0.0138
   21FTM     C3 9070   0.460   8.267  -2.705 -0.2554 -0.8414  0.0850
   21FTM     C4 9071   0.377   8.305  -2.604 -0.2421 -0.4909 -0.0337
   21FTM     F1 9072   0.489   8.292  -2.947  0.1529 -1.0290  0.1144
   21FTM     C5 9073   0.240   8.454  -2.951  0.3544 -0.5471 -0.2350
   21FTM     C6 9074   0.084   8.471  -2.962  0.1628  0.1283  0.2065
   21FTM     C7 9075  -0.004   8.346  -2.923 -0.2084 -0.6415  0.2189
   21FTM     C8 9076   0.034   8.211  -2.993 -0.0586  0.2425  0.3473
   21FTM     C9 9077  -0.070   8.106  -2.965  0.3386  0.4185  0.0250
   21FTM    C10 9078  -0.057   8.037  -2.830  0.3004 -0.0853  0.5628
   21FTM    C11 9079   0.033   8.545  -3.079  0.1613  0.1644  0.6102
   21FTM    C12 9080   0.078   8.690  -3.088  0.2074 -0.2895 -0.0383
   22TPM     C1 9081   0.848   8.437  -2.341  0.4008 -0.0964  0.4053
   22TPM     C2 9082   0.935   8.480  -2.245  0.4642  0.4065  0.1308
   22TPM     C3 9083   1.060   8.529  -2.298  0.1873  0.7246 -0.2402
   22TPM     C4 9084   1.068   8.524  -2.434 -0.0873  0.4643 -0.2483
   22TPM     S1 9085   0.917   8.456  -2.506 -0.0169 -0.2079  0.2155
   23BDD     C1 9086   1.260   8.756  -2.685  0.0016  0.0797 -0.0136
   23BDD     C2 9087   1.350   8.725  -2.587 -0.0079  0.0648 -0.0095
   23BDD     C3 9088   1.297   8.637  -2.484 -0.0241  0.0651 -0.0176
   23BDD     C4 9089   1.167   8.601  -2.506 -0.0267  0.0807 -0.0279
   23BDD     S1 9090   1.102   8.676  -2.656 -0.0091  0.0956 -0.0279
   23BDD     C5 9091   1.489   8.777  -2.583 -0.0025  0.0491  0.0020
   23BDD     C6 9092   1.378   8.591  -2.369 -0.0365  0.0498 -0.0149
   23BDD     O1 9093   1.332   8.515  -2.281 -0.0505  0.0501 -0.0218
   23BDD     O2 9094   1.535   8.853  -2.671  0.0115  0.0489  0.0088
   23BDD     C7 9095   1.516   8.642  -2.366 -0.0311  0.0346 -0.0033
   23BDD     C8 9096   1.569   8.731  -2.468 -0.0149  0.0343  0.0046
   23BDD     C9 9097   1.699   8.767  -2.447 -0.0123  0.0188  0.0149
   23BDD     S2 9098   1.765   8.692  -2.297 -0.0300  0.0035  0.0150
   23BDD    C10 9099   1.607   8.612  -2.268 -0.0407  0.0193  0.0008
   23BDD    C11 9100   1.595   8.547  -2.129 -0.0142 -0.0189  0.3375
   23BDD    C12 9101   1.638   8.634  -2.012  0.1075  0.1504  0.4557
   23BDD    C13 9102   1.575   8.774  -2.002 -0.9288 -0.2765  0.1162
   23BDD    C14 9103   1.639   8.890  -1.921 -0.4169  0.5686  0.1082
   23BDD    C15 9104   1.583   9.028  -1.914  0.2196 -0.6973  0.4328
   23BDD    C16 9105   1.459   9.035  -1.825 -0.4131  0.9203 -0.1165
   23BDD    C17 9106   1.634   8.569  -1.873 -0.0509 -0.1370 -0.7311
   23BDD    C18 9107   1.708   8.439  -1.836  0.1174  0.1746 -0.0714
   23BDD    C19 9108   1.790   8.874  -2.500  0.2813 -0.0577  0.1460
   23BDD    C20 9109   1.806   9.001  -2.416 -0.6960 -0.5951 -0.0281
   23BDD    C21 9110   1.932   9.088  -2.461  0.0529 -0.4464 -0.0592
   23BDD    C22 9111   2.069   9.030  -2.462 -0.1009  0.3397  0.0154
   23BDD    C23 9112   2.178   9.127  -2.486 -0.3113  0.4153  0.4497
   23BDD    C24 9113   2.305   9.045  -2.509 -0.6861  0.0580 -0.8458
   23BDD    C25 9114   1.684   9.085  -2.385  0.1344  0.0421 -0.2429
   23BDD    C26 9115   1.689   9.208  -2.294 -0.1536  0.3581 -0.0025
   24TPM     C1 9116   1.260   8.830  -2.816  0.2100  0.4472 -0.0679
   24TPM     C2 9117   1.364   8.833  -2.904  0.0990  1.1141 -0.1853
   24TPM     C3 9118   1.331   8.893  -3.031 -0.3173  1.2517 -0.0153
   24TPM     C4 9119   1.201   8.935  -3.039 -0.5237  0.6904  0.2318
   24TPM     S1 9120   1.110   8.902  -2.887 -0.2058 -0.0618  0.2691
   25BDTP    C1 9121   0.887   9.235  -3.499 -0.0226  0.0513  0.0468
   25BDTP    C2 9122   1.005   9.315  -3.485  0.0366 -0.0329  0.0335
   25BDTP    C3 9123   1.105   9.284  -3.394  0.0718 -0.1612 -0.0477
   25BDTP    C4 9124   1.090   9.170  -3.314  0.0477 -0.2086 -0.1193
   25BDTP    C5 9125   0.973   9.090  -3.328 -0.0116 -0.1240 -0.1062
   25BDTP    C6 9126   0.872   9.121  -3.419 -0.0468  0.0041 -0.0250
   25BDTP    C7 9127   1.181   9.119  -3.213  0.0756 -0.3373 -0.2095
   25BDTP    C8 9128   1.138   9.006  -3.152  0.0407 -0.3536 -0.2640
   25BDTP    S1 9129   0.976   8.949  -3.213 -0.0325 -0.2079 -0.2085
   25BDTP    C9 9130   0.797   9.286  -3.600 -0.0506  0.1802  0.1370
   25BDTP   C10 9131   0.840   9.399  -3.662 -0.0158  0.1965  0.1913
   25BDTP    S2 9132   1.001   9.456  -3.600  0.0575  0.0509  0.1358
   26FTM     S1 9133   1.198   9.541  -3.330 -0.0872  0.0749 -0.1381
   26FTM     C1 9134   1.376   9.569  -3.330 -0.0687 -0.0349  0.3680
   26FTM     C2 9135   1.441   9.454  -3.362 -0.0339 -0.1328  0.7695
   26FTM     C3 9136   1.358   9.340  -3.389 -0.0200 -0.1287  0.7097
   26FTM     C4 9137   1.226   9.369  -3.377 -0.0449 -0.0242  0.2470
   26FTM     F1 9138   1.579   9.445  -3.370 -0.0126 -0.2317  1.2152
   26FTM     C5 9139   1.445   9.700  -3.300 -0.0778  0.9730  0.2989
   26FTM     C6 9140   1.469   9.793  -3.418  0.1781 -0.0950  0.6557
   26FTM     C7 9141   1.584   9.890  -3.403 -0.0777 -0.0665  0.1078
   26FTM     C8 9142   1.727   9.841  -3.372  0.7051 -0.9037 -0.7791
   26FTM     C9 9143   1.780   9.739  -3.469 -0.3209 -0.5228 -0.4787
   26FTM    C10 9144   1.777   9.770  -3.618  0.3656  0.2811  0.2408
   26FTM    C11 9145   1.344   9.833  -3.503  0.0560  0.6248 -0.0760
   26FTM    C12 9146   1.361   9.909  -3.633 -0.4110  0.5973  0.2770
   27FTM     S1 9147   0.589   9.108  -3.455  0.0898  0.0909  0.2267
   27FTM     C1 9148   0.521   8.944  -3.486 -0.0399  0.2753 -0.4898
   27FTM     C2 9149   0.620   8.851  -3.479 -0.1108  0.1655 -0.9098
   27FTM     C3 9150   0.751   8.900  -3.450 -0.0696 -0.0629 -0.7051
   27FTM     C4 9151   0.753   9.035  -3.434  0.0363 -0.1305 -0.1087
   27FTM     F1 9152   0.597   8.716  -3.499 -0.2172  0.2656 -1.5047
   27FTM     C5 9153   0.369   8.934  -3.486  0.0092  0.4301  0.4173
   27FTM     C6 9154   0.278   8.819  -3.546  0.3153 -0.5455 -0.3921
   27FTM     C7 9155   0.324   8.740  -3.671 -0.4386  0.3558 -0.4858
   27FTM     C8 9156   0.369   8.828  -3.784 -0.0769 -0.1185 -0.0167
   27FTM     C9 9157   0.393   8.758  -3.921  0.1259 -0.0651 -0.6570
   27FTM    C10 9158   0.438   8.843  -4.034  0.0670  0.1533 -0.2694
   27FTM    C11 9159   0.126   8.839  -3.535 -0.0683 -0.0406  1.2364
   27FTM    C12 9160   0.067   8.875  -3.404 -0.6872  0.1009 -0.0557
   28TPM     C1 9161   0.779   9.471  -3.770  0.2321  0.1152 -0.0268
   28TPM     C2 9162   0.830   9.564  -3.855  0.2808  0.1900  0.0845
   28TPM     C3 9163   0.743   9.598  -3.964  0.3724  0.2341  0.0241
   28TPM     C4 9164   0.625   9.530  -3.962  0.3935  0.1924 -0.1333
   28TPM     S1 9165   0.615   9.417  -3.822  0.2986  0.0942 -0.2180
   29BDD     C1 9166   0.346   9.436  -4.219  0.0010  0.1314  0.0670
   29BDD     C2 9167   0.378   9.566  -4.250 -0.0192  0.1462  0.1068
   29BDD     C3 9168   0.483   9.621  -4.167 -0.0542  0.1495  0.1490
   29BDD     C4 9169   0.531   9.533  -4.074 -0.0601  0.1375  0.1412
   29BDD     S1 9170   0.447   9.374  -4.084 -0.0223  0.1216  0.0800
   29BDD     C5 9171   0.311   9.643  -4.357 -0.0072  0.1569  0.1073
   29BDD     C6 9172   0.533   9.759  -4.183 -0.0805  0.1643  0.1959
   29BDD     O1 9173   0.624   9.807  -4.112 -0.1107  0.1671  0.2323
   29BDD     O2 9174   0.220   9.595  -4.429  0.0230  0.1540  0.0708
   29BDD     C7 9175   0.467   9.837  -4.290 -0.0684  0.1752  0.1963
   29BDD     C8 9176   0.361   9.781  -4.373 -0.0335  0.1719  0.1541
   29BDD     C9 9177   0.313   9.870  -4.466 -0.0275  0.1838  0.1620
   29BDD     S2 9178   0.397  10.028  -4.456 -0.0654  0.1997  0.2231
   29BDD    C10 9179   0.498   9.966  -4.321 -0.0887  0.1898  0.2359
   29BDD    C11 9180   0.595  10.072  -4.270  0.3089  0.4292 -0.3278
   29BDD    C12 9181   0.554  10.223  -4.259  0.1309 -0.4024 -0.9563
   29BDD    C13 9182   0.421  10.259  -4.192  0.2652  0.9500 -0.4159
   29BDD    C14 9183   0.401  10.227  -4.043  0.6557  0.6710  0.0975
   29BDD    C15 9184   0.252  10.248  -4.016 -0.1113 -0.0191 -0.2603
   29BDD    C16 9185   0.219  10.223  -3.872 -0.6136 -0.1143 -0.1858
   29BDD    C17 9186   0.681  10.293  -4.205 -0.2666 -0.4904  0.4094
   29BDD    C18 9187   0.679  10.448  -4.198 -0.1903  0.0857  0.3063
   29BDD    C19 9188   0.216   9.852  -4.578 -0.4462  0.2840  0.0738
   29BDD    C20 9189   0.287   9.853  -4.717 -0.1281 -0.2854 -0.6473
   29BDD    C21 9190   0.197   9.891  -4.835 -0.5753 -0.0489  0.1224
   29BDD    C22 9191   0.102  10.011  -4.831 -0.3699  0.3906  0.9730
   29BDD    C23 9192   0.167  10.138  -4.782 -0.5260 -0.6189 -0.0709
   29BDD    C24 9193   0.088  10.258  -4.820 -1.0024 -0.0100  0.4648
   29BDD    C25 9194   0.388   9.740  -4.744  0.0741  0.5270  0.3247
   29BDD    C26 9195   0.329   9.597  -4.745  0.1127  0.1561  0.2690
   30TPM     C1 9196   0.261   9.337  -4.285  0.0289 -0.1175  0.2965
   30TPM     C2 9197   0.127   9.364  -4.291  0.0071 -0.2789 -0.0199
   30TPM     C3 9198   0.045   9.247  -4.299  0.1806 -0.3684 -0.5846
   30TPM     C4 9199   0.115   9.130  -4.299  0.3346 -0.2753 -0.6986
   30TPM     S1 9200   0.293   9.160  -4.290  0.2721 -0.0658 -0.0971
   31BDTP    C1 9201  -0.085   8.544  -4.422 -0.1206 -0.1822 -0.0592
   31BDTP    C2 9202  -0.179   8.626  -4.490 -0.1702 -0.1838  0.0075
   31BDTP    C3 9203  -0.174   8.765  -4.487 -0.2110 -0.1833  0.0600
   31BDTP    C4 9204  -0.071   8.826  -4.414 -0.2029 -0.1810  0.0464
   31BDTP    C5 9205   0.024   8.744  -4.346 -0.1533 -0.1791 -0.0203
   31BDTP    C6 9206   0.019   8.605  -4.349 -0.1124 -0.1799 -0.0728
   31BDTP    C7 9207  -0.045   8.967  -4.397 -0.2391 -0.1797  0.0927
   31BDTP    C8 9208   0.063   8.995  -4.321 -0.2197 -0.1774  0.0643
   31BDTP    S1 9209   0.148   8.846  -4.259 -0.1524 -0.1764 -0.0252
   31BDTP    C9 9210  -0.111   8.403  -4.439 -0.0842 -0.1833 -0.1055
   31BDTP   C10 9211  -0.219   8.375  -4.516 -0.1037 -0.1855 -0.0770
   31BDTP    S2 9212  -0.303   8.524  -4.577 -0.1709 -0.1866  0.0123
   32FTM     S1 9213  -0.348   8.988  -4.517  0.2967 -0.0756 -0.2114
   32FTM     C1 9214  -0.417   9.017  -4.680  0.1562 -0.4303 -0.2173
   32FTM     C2 9215  -0.377   8.919  -4.766  0.0658 -0.6275 -0.0365
   32FTM     C3 9216  -0.292   8.818  -4.711  0.0999 -0.5174  0.1141
   32FTM     C4 9217  -0.266   8.839  -4.578  0.2198 -0.2262  0.0463
   32FTM     F1 9218  -0.415   8.916  -4.899 -0.0522 -0.9193  0.0032
   32FTM     C5 9219  -0.489   9.148  -4.720  0.0710  0.1991 -0.4340
   32FTM     C6 9220  -0.612   9.193  -4.634  0.0130 -0.5706 -0.1179
   32FTM     C7 9221  -0.583   9.258  -4.499  0.1939 -0.0221 -0.5385
   32FTM     C8 9222  -0.498   9.383  -4.493  0.4894  0.8339 -0.5711
   32FTM     C9 9223  -0.468   9.429  -4.347 -0.3366  0.1050 -0.2589
   32FTM    C10 9224  -0.316   9.457  -4.326  0.4609  1.1688 -0.0673
   32FTM    C11 9225  -0.725   9.086  -4.621  0.1317  0.2078 -0.3196
   32FTM    C12 9226  -0.788   9.036  -4.748 -0.1214  0.1831  0.0555
   33FTM     S1 9227   0.215   8.385  -4.339 -0.0593 -0.3344 -0.0462
   33FTM     C1 9228   0.302   8.369  -4.182  0.1037 -0.0570 -0.1066
   33FTM     C2 9229   0.255   8.461  -4.094  0.2223  0.1245 -0.2319
   33FTM     C3 9230   0.151   8.548  -4.141  0.1943  0.0610 -0.2869
   33FTM     C4 9231   0.117   8.521  -4.270  0.0496 -0.1773 -0.2014
   33FTM     F1 9232   0.303   8.472  -3.964  0.3632  0.3593 -0.3040
   33FTM     C5 9233   0.408   8.268  -4.168 -0.2449 -0.1863 -0.3104
   33FTM     C6 9234   0.376   8.122  -4.146  0.6543  0.0997  0.3887
   33FTM     C7 9235   0.502   8.045  -4.136  0.1573  0.1568 -0.5431
   33FTM     C8 9236   0.610   8.041  -4.241  0.3042  0.2817  0.1198
   33FTM     C9 9237   0.704   7.925  -4.207  0.0147 -0.0231  0.2826
   33FTM    C10 9238   0.819   7.936  -4.303  0.4806  0.2559 -0.4024
   33FTM    C11 9239   0.272   8.079  -4.034 -1.1795 -0.3197  0.6816
   33FTM    C12 9240   0.303   8.102  -3.888 -0.3136  0.6916  0.0256
   34TPM     C1 9241  -0.270   8.244  -4.561 -0.4344 -0.1740  0.0773
   34TPM     C2 9242  -0.402   8.209  -4.563 -0.4168 -0.2263 -0.1837
   34TPM     C3 9243  -0.428   8.089  -4.639 -0.2463 -0.1302 -0.3989
   34TPM     C4 9244  -0.317   8.033  -4.694 -0.1342 -0.0040 -0.3017
   34TPM     S1 9245  -0.169   8.128  -4.655 -0.2355  0.0028  0.0717
   35BDD     C1 9246  -0.265   7.820  -5.016 -0.1890 -0.1250 -0.1844
   35BDD     C2 9247  -0.355   7.750  -4.940 -0.1831 -0.1056 -0.1594
   35BDD     C3 9248  -0.390   7.816  -4.816 -0.2933  0.0021 -0.2465
   35BDD     C4 9249  -0.326   7.935  -4.798 -0.3813  0.0632 -0.3370
   35BDD     S1 9250  -0.218   7.974  -4.936 -0.3326 -0.0099 -0.3192
   35BDD     C5 9251  -0.413   7.620  -4.980 -0.0763 -0.1854 -0.0540
   35BDD     C6 9252  -0.486   7.758  -4.719 -0.3073  0.0403 -0.2369
   35BDD     O1 9253  -0.516   7.815  -4.612 -0.4022  0.1332 -0.3121
   35BDD     O2 9254  -0.382   7.563  -5.088  0.0188 -0.2782  0.0211
   35BDD     C7 9255  -0.543   7.628  -4.759 -0.2000 -0.0393 -0.1317
   35BDD     C8 9256  -0.508   7.562  -4.884 -0.0896 -0.1471 -0.0446
   35BDD     C9 9257  -0.572   7.442  -4.902 -0.0014 -0.2081  0.0460
   35BDD     S2 9258  -0.680   7.404  -4.764 -0.0504 -0.1350  0.0282
   35BDD    C10 9259  -0.633   7.557  -4.684 -0.1941 -0.0199 -0.1065
   35BDD    C11 9260  -0.701   7.572  -4.547  0.2098 -0.0730 -0.3305
   35BDD    C12 9261  -0.641   7.504  -4.421 -0.8777  0.0699  0.3792
   35BDD    C13 9262  -0.489   7.538  -4.407 -0.5196  0.0588 -0.4881
   35BDD    C14 9263  -0.389   7.453  -4.321 -0.1760 -0.3631 -0.4964
   35BDD    C15 9264  -0.396   7.309  -4.338 -0.0316  0.2164  0.0467
   35BDD    C16 9265  -0.358   7.253  -4.477 -0.6273  0.1300 -0.2694
   35BDD    C17 9266  -0.721   7.516  -4.293  0.1217  0.2960  0.1338
   35BDD    C18 9267  -0.858   7.439  -4.289 -0.5054 -0.3732  0.4369
   35BDD    C19 9268  -0.574   7.327  -4.996 -0.4271 -0.2573  0.6958
   35BDD    C20 9269  -0.435   7.268  -5.044 -0.0722 -0.2349  0.7179
   35BDD    C21 9270  -0.342   7.232  -4.930 -0.0996  0.1422  0.6799
   35BDD    C22 9271  -0.202   7.163  -4.958  0.1493  0.6433 -0.3042
   35BDD    C23 9272  -0.089   7.256  -4.990  0.3119  0.1584 -0.3455
   35BDD    C24 9273   0.025   7.162  -5.005 -0.3725 -0.1785  0.2756
   35BDD    C25 9274  -0.435   7.166  -5.153 -0.1913 -0.2350 -0.0883
   35BDD    C26 9275  -0.514   7.200  -5.279 -0.4279 -0.4348  0.6918
   36TPM     C1 9276  -0.200   7.800  -5.143 -0.3043  0.3225  0.1022
   36TPM     C2 9277  -0.156   7.679  -5.188 -0.2475  0.3195  0.1649
   36TPM     C3 9278  -0.089   7.686  -5.315 -0.0715  0.3146  0.2570
   36TPM     C4 9279  -0.082   7.812  -5.367  0.0057  0.3136  0.2646
   36TPM     S1 9280  -0.161   7.933  -5.258 -0.1384  0.3190  0.1551
   37BDTP    C1 9281   0.141   8.070  -5.898 -0.0418  0.0410 -0.0654
   37BDTP    C2 9282   0.059   7.964  -5.947 -0.0681  0.0211  0.0207
   37BDTP    C3 9283  -0.010   7.877  -5.864 -0.0235  0.0546  0.0923
   37BDTP    C4 9284   0.003   7.895  -5.725  0.0505  0.1106  0.0786
   37BDTP    C5 9285   0.085   8.000  -5.675  0.0768  0.1307 -0.0076
   37BDTP    C6 9286   0.154   8.087  -5.759  0.0322  0.0969 -0.0792
   37BDTP    C7 9287  -0.059   7.817  -5.619  0.1072  0.1532  0.1425
   37BDTP    C8 9288  -0.027   7.859  -5.494  0.1736  0.2035  0.1090
   37BDTP    S1 9289   0.085   8.002  -5.493  0.1740  0.2038 -0.0085
   37BDTP    C9 9290   0.202   8.147  -6.004 -0.0983 -0.0014 -0.1293
   37BDTP   C10 9291   0.170   8.105  -6.129 -0.1649 -0.0517 -0.0957
   37BDTP    S2 9292   0.058   7.962  -6.130 -0.1653 -0.0521  0.0217
   38FTM     S1 9293  -0.125   7.612  -5.864  0.1448  0.1811 -0.3448
   38FTM     C1 9294  -0.266   7.584  -5.972  0.0529 -0.1729 -0.1348
   38FTM     C2 9295  -0.296   7.698  -6.041 -0.6001 -0.1184  0.2217
   38FTM     C3 9296  -0.212   7.811  -6.014 -1.0576  0.1948  0.3502
   38FTM     C4 9297  -0.116   7.783  -5.922 -0.7449  0.3860  0.0834
   38FTM     F1 9298  -0.400   7.706  -6.131 -0.8218 -0.3484  0.4529
   38FTM     C5 9299  -0.329   7.453  -5.997  0.5688  0.5972  0.0880
   38FTM     C6 9300  -0.271   7.353  -6.098 -0.4585  0.5378  0.3807
   38FTM     C7 9301  -0.129   7.290  -6.072  0.1198 -0.1740 -0.3945
   38FTM     C8 9302  -0.123   7.177  -5.965 -0.5455 -0.3735  0.1484
   38FTM     C9 9303   0.006   7.096  -5.946 -0.1543 -0.1628  0.6376
   38FTM    C10 9304   0.017   6.992  -5.827 -0.8882  0.2714  0.3097
   38FTM    C11 9305  -0.296   7.367  -6.252  0.5130 -0.2418  0.1741
   38FTM    C12 9306  -0.229   7.485  -6.323  0.4584  0.6545  0.0206
   39FTM     S1 9307   0.358   8.165  -5.571  0.0885  0.0989  0.2047
   39FTM     C1 9308   0.391   8.342  -5.569  0.0560  0.1056  0.1361
   39FTM     C2 9309   0.309   8.405  -5.657  0.1646  0.0367 -0.0150
   39FTM     C3 9310   0.218   8.322  -5.730  0.2771 -0.0248 -0.0851
   39FTM     C4 9311   0.231   8.190  -5.697  0.2538 -0.0019  0.0158
   39FTM     F1 9312   0.311   8.542  -5.677  0.1687  0.0246 -0.0989
   39FTM     C5 9313   0.502   8.397  -5.487 -0.3375 -0.3969 -0.6710
   39FTM     C6 9314   0.649   8.395  -5.528  0.1728 -0.4366  0.4790
   39FTM     C7 9315   0.717   8.255  -5.545 -0.4439 -0.0807  0.2402
   39FTM     C8 9316   0.729   8.183  -5.413  0.0070  0.3353  0.0146
   39FTM     C9 9317   0.792   8.038  -5.412  0.4434  0.5217 -0.0370
   39FTM    C10 9318   0.761   7.951  -5.292  0.0425  0.5401 -0.4694
   39FTM    C11 9319   0.692   8.482  -5.641  0.0142 -0.9759  0.3218
   39FTM    C12 9320   0.661   8.632  -5.637  0.2787 -0.1840  0.2701
   40TPM     C1 9321   0.190   8.172  -6.256  0.3513 -0.1827  0.0739
   40TPM     C2 9322   0.303   8.216  -6.318  0.1632 -0.3934 -0.4348
   40TPM     C3 9323   0.281   8.273  -6.448 -0.2910 -0.4978 -0.4054
   40TPM     C4 9324   0.150   8.273  -6.486 -0.4491 -0.3666  0.1259
   40TPM     S1 9325   0.044   8.201  -6.359 -0.0336 -0.0991  0.6342
   41BDD     C1 9326  -0.096   8.385  -6.768 -0.0838 -0.1023 -0.1481
   41BDD     C2 9327   0.027   8.385  -6.829 -0.0584 -0.0548 -0.0960
   41BDD     C3 9328   0.135   8.348  -6.740 -0.0725  0.0567 -0.0316
   41BDD     C4 9329   0.093   8.320  -6.613 -0.1086  0.0928 -0.0355
   41BDD     S1 9330  -0.084   8.339  -6.596 -0.1276 -0.0103 -0.1200
   41BDD     C5 9331   0.049   8.420  -6.971 -0.0198 -0.1106 -0.1037
   41BDD     C6 9332   0.276   8.341  -6.784 -0.0491  0.1235  0.0314
   41BDD     O1 9333   0.369   8.309  -6.707 -0.0613  0.2196  0.0869
   41BDD     O2 9334  -0.045   8.452  -7.048 -0.0074 -0.2067 -0.1592
   41BDD     C7 9335   0.298   8.376  -6.926 -0.0105  0.0675  0.0238
   41BDD     C8 9336   0.189   8.413  -7.015  0.0036 -0.0439 -0.0406
   41BDD     C9 9337   0.231   8.441  -7.143  0.0396 -0.0801 -0.0368
   41BDD     S2 9338   0.409   8.422  -7.160  0.0587  0.0231  0.0477
   41BDD    C10 9339   0.420   8.375  -6.987  0.0150  0.1149  0.0758
   41BDD    C11 9340   0.561   8.348  -6.935  0.6155 -0.2635  0.0298
   41BDD    C12 9341   0.612   8.209  -6.913 -0.7540  1.0716  0.0178
   41BDD    C13 9342   0.748   8.194  -6.842  0.0371  0.3820  0.2397
   41BDD    C14 9343   0.761   8.274  -6.717 -0.2518 -0.2698  0.1808
   41BDD    C15 9344   0.687   8.219  -6.595 -0.0806 -0.2954  0.3814
   41BDD    C16 9345   0.736   8.285  -6.469  0.5666 -0.6468 -0.3229
   41BDD    C17 9346   0.587   8.112  -7.031 -0.2726 -0.0063 -0.6101
   41BDD    C18 9347   0.680   8.117  -7.154 -0.2185 -0.2238 -0.0780
   41BDD    C19 9348   0.164   8.468  -7.276  0.6622  1.3374 -0.4806
   41BDD    C20 9349   0.186   8.598  -7.346  0.0922  0.2050 -0.5068
   41BDD    C21 9350   0.126   8.723  -7.277  0.1844  0.2461 -0.9276
   41BDD    C22 9351  -0.025   8.719  -7.246 -0.2035 -0.1595 -0.3128
   41BDD    C23 9352  -0.053   8.861  -7.195  0.1399 -0.4263 -0.0597
   41BDD    C24 9353  -0.202   8.881  -7.156 -0.2150 -0.0617 -0.3768
   41BDD    C25 9354   0.152   8.583  -7.496 -0.0825 -0.3268 -0.5529
   41BDD    C26 9355   0.185   8.709  -7.578 -0.1220  0.7677 -0.8012
   42TPM     C1 9356  -0.235   8.426  -6.805  0.0927  0.2391  0.3900
   42TPM     C2 9357  -0.346   8.357  -6.767  0.1450  0.1299  0.3457
   42TPM     C3 9358  -0.468   8.433  -6.781  0.0525 -0.0615  0.0966
   42TPM     C4 9359  -0.450   8.559  -6.829 -0.0703 -0.0984 -0.0492
   42TPM     S1 9360  -0.276   8.593  -6.861 -0.0786  0.1074  0.1184
   43BDTP    C1 9361  -0.863   8.994  -7.018 -0.0567 -0.0300 -0.0331
   43BDTP    C2 9362  -0.944   8.877  -7.010 -0.0441 -0.0389 -0.0364
   43BDTP    C3 9363  -0.894   8.754  -6.970 -0.0167 -0.0489 -0.1017
   43BDTP    C4 9364  -0.757   8.746  -6.937 -0.0010 -0.0501 -0.1668
   43BDTP    C5 9365  -0.676   8.863  -6.945 -0.0136 -0.0415 -0.1634
   43BDTP    C6 9366  -0.727   8.986  -6.985 -0.0410 -0.0313 -0.0981
   43BDTP    C7 9367  -0.683   8.629  -6.893  0.0279 -0.0595 -0.2408
   43BDTP    C8 9368  -0.552   8.653  -6.868  0.0372 -0.0584 -0.2924
   43BDTP    S1 9369  -0.504   8.826  -6.897  0.0110 -0.0448 -0.2546
   43BDTP    C9 9370  -0.937   9.110  -7.062 -0.0856 -0.0205  0.0409
   43BDTP   C10 9371  -1.069   9.087  -7.086 -0.0949 -0.0217  0.0926
   43BDTP    S2 9372  -1.116   8.914  -7.057 -0.0688 -0.0351  0.0548
   44FTM     S1 9373  -1.150   8.660  -6.882 -0.1022 -0.2656  0.0957
   44FTM     C1 9374  -1.200   8.498  -6.942  0.2601 -0.2908 -0.1491
   44FTM     C2 9375  -1.098   8.441  -7.012  0.4246 -0.0021 -0.1505
   44FTM     C3 9376  -0.978   8.517  -7.022  0.2823  0.2501  0.0342
   44FTM     C4 9377  -0.987   8.637  -6.959  0.0000  0.1513  0.1819
   44FTM     F1 9378  -1.109   8.315  -7.070  0.7133  0.0515 -0.3190
   44FTM     C5 9379  -1.335   8.434  -6.924  0.4732 -0.1577  0.3616
   44FTM     C6 9380  -1.456   8.514  -6.979 -0.0300 -0.0127 -0.1770
   44FTM     C7 9381  -1.504   8.631  -6.901 -0.1507 -1.0424 -0.1202
   44FTM     C8 9382  -1.599   8.613  -6.787  0.6100  0.1286  0.0186
   44FTM     C9 9383  -1.740   8.558  -6.833 -0.5662  0.0047  0.0275
   44FTM    C10 9384  -1.824   8.515  -6.717 -0.5174 -0.2920 -0.0471
   44FTM    C11 9385  -1.471   8.539  -7.127 -0.4117  0.6871  0.5507
   44FTM    C12 9386  -1.438   8.429  -7.227  0.0340 -0.2781  0.6481
   45FTM     S1 9387  -0.520   9.098  -7.142  0.1492 -0.2637  0.3145
   45FTM     C1 9388  -0.487   9.274  -7.117 -0.2472 -0.1627  0.1551
   45FTM     C2 9389  -0.564   9.322  -7.016 -0.6392 -0.1504 -0.1445
   45FTM     C3 9390  -0.652   9.228  -6.953 -0.6552 -0.2172 -0.2654
   45FTM     C4 9391  -0.642   9.103  -7.008 -0.2620 -0.2829 -0.0515
   45FTM     F1 9392  -0.559   9.454  -6.974 -1.0076 -0.0780 -0.3270
   45FTM     C5 9393  -0.394   9.342  -7.211  0.0911  0.1066  0.2553
   45FTM     C6 9394  -0.397   9.309  -7.360 -0.3379  0.3908 -0.1564
   45FTM     C7 9395  -0.532   9.288  -7.428  0.1579 -0.0387 -0.5176
   45FTM     C8 9396  -0.615   9.418  -7.422  0.0428  0.5204  0.1389
   45FTM     C9 9397  -0.759   9.390  -7.445  0.1074 -0.3094  0.0018
   45FTM    C10 9398  -0.845   9.515  -7.491  0.1140  0.7378  0.4197
   45FTM    C11 9399  -0.274   9.346  -7.439 -0.6094 -0.5467  0.3904
   45FTM    C12 9400  -0.233   9.247  -7.542  0.2544 -0.1449 -0.4024
   46TPM     C1 9401  -1.168   9.172  -7.133  0.0671  0.1850 -0.0376
   46TPM     C2 9402  -1.294   9.179  -7.082  0.3953  0.7739  0.7287
   46TPM     C3 9403  -1.375   9.282  -7.142  0.3979  0.9205  0.9730
   46TPM     C4 9404  -1.310   9.353  -7.239  0.0718  0.4435  0.3931
   46TPM     S1 9405  -1.141   9.295  -7.262 -0.2668 -0.2327 -0.5137
   47BDD     C1 9406  -1.527   9.524  -7.523  0.0872  0.2346 -0.2061
   47BDD     C2 9407  -1.442   9.621  -7.478  0.1135  0.1976 -0.1757
   47BDD     C3 9408  -1.358   9.577  -7.367  0.1345  0.1259 -0.2201
   47BDD     C4 9409  -1.381   9.447  -7.330  0.1246  0.1092 -0.2839
   47BDD     S1 9410  -1.508   9.371  -7.430  0.0875  0.1819 -0.2925
   47BDD     C5 9411  -1.434   9.757  -7.534  0.1199  0.2270 -0.1044
   47BDD     C6 9412  -1.258   9.665  -7.303  0.1643  0.0765 -0.1978
   47BDD     O1 9413  -1.186   9.627  -7.208  0.1824  0.0148 -0.2361
   47BDD     O2 9414  -1.506   9.795  -7.629  0.1016  0.2890 -0.0661
   47BDD     C7 9415  -1.251   9.801  -7.360  0.1705  0.1059 -0.1267
   47BDD     C8 9416  -1.335   9.845  -7.470  0.1490  0.1774 -0.0821
   47BDD     C9 9417  -1.312   9.975  -7.507  0.1590  0.1941 -0.0184
   47BDD     S2 9418  -1.184  10.051  -7.407  0.1962  0.1213 -0.0097
   47BDD    C10 9419  -1.165   9.898  -7.314  0.1960  0.0687 -0.0961
   47BDD    C11 9420  -1.065   9.892  -7.200 -0.3005 -0.4436  0.2022
   47BDD    C12 9421  -0.927   9.842  -7.241 -0.0982 -0.1343  0.7917
   47BDD    C13 9422  -0.852   9.929  -7.353  0.0672  0.5260 -0.8707
   47BDD    C14 9423  -0.806  10.068  -7.311 -0.1627 -0.3381 -0.3878
   47BDD    C15 9424  -0.734  10.148  -7.417 -0.2058 -0.2187 -0.5387
   47BDD    C16 9425  -0.659  10.270  -7.362  0.5348  0.5715 -0.3293
   47BDD    C17 9426  -0.846   9.807  -7.114 -0.0054 -0.6509  0.7641
   47BDD    C18 9427  -0.703   9.753  -7.144  0.5744  0.4251 -1.1531
   47BDD    C19 9428  -1.373  10.072  -7.613 -0.2059 -0.2543 -0.0318
   47BDD    C20 9429  -1.281  10.128  -7.711  0.2598  0.3118  0.5700
   47BDD    C21 9430  -1.199  10.027  -7.800  0.1800 -0.0902  0.0800
   47BDD    C22 9431  -1.068  10.077  -7.871  0.1903  1.0341  0.0801
   47BDD    C23 9432  -0.955  10.103  -7.775  0.1572  0.1191 -0.4099
   47BDD    C24 9433  -0.916  10.255  -7.783  0.4855 -0.0270  0.2836
   47BDD    C25 9434  -1.356  10.243  -7.785  0.4465 -0.7570  0.6508
   47BDD    C26 9435  -1.458  10.207  -7.890  0.0439 -0.3758 -0.6968
   48TPM     C1 9436  -1.611   9.502  -7.640 -0.6176 -0.2528  0.6636
   48TPM     C2 9437  -1.729   9.570  -7.645 -0.9800 -0.8199  1.1489
   48TPM     C3 9438  -1.828   9.509  -7.730 -0.8146 -0.9749  1.0661
   48TPM     C4 9439  -1.786   9.393  -7.789 -0.3256 -0.5265  0.5176
   48TPM     S1 9440  -1.616   9.353  -7.742 -0.0345  0.1319  0.0595
   49BDTP    C1 9441  -2.025   8.992  -8.209  0.0559  0.0660  0.0488
   49BDTP    C2 9442  -2.090   9.114  -8.244  0.1521  0.0992 -0.0173
   49BDTP    C3 9443  -2.071   9.232  -8.174  0.2159  0.1130 -0.0579
   49BDTP    C4 9444  -1.983   9.230  -8.064  0.1837  0.0935 -0.0323
   49BDTP    C5 9445  -1.918   9.109  -8.029  0.0875  0.0606  0.0338
   49BDTP    C6 9446  -1.937   8.990  -8.099  0.0236  0.0470  0.0744
   49BDTP    C7 9447  -1.947   9.340  -7.977  0.2367  0.1022 -0.0650
   49BDTP    C8 9448  -1.860   9.307  -7.879  0.1855  0.0777 -0.0271
   49BDTP    S1 9449  -1.810   9.132  -7.884  0.0632  0.0405  0.0552
   49BDTP    C9 9450  -2.061   8.882  -8.297  0.0029  0.0575  0.0815
   49BDTP   C10 9451  -2.148   8.915  -8.394  0.0539  0.0818  0.0437
   49BDTP    S2 9452  -2.198   9.090  -8.389  0.1764  0.1192 -0.0387
   50FTM     S1 9453  -2.172   9.407  -8.392  0.1594 -0.0402 -0.1480
   50FTM     C1 9454  -2.279   9.540  -8.335  0.4251  0.1086  0.0059
   50FTM     C2 9455  -2.287   9.537  -8.199  0.0415 -0.3290 -0.0232
   50FTM     C3 9456  -2.213   9.433  -8.133 -0.4699 -0.7961 -0.1635
   50FTM     C4 9457  -2.145   9.355  -8.221 -0.4782 -0.7123 -0.2445
   50FTM     F1 9458  -2.363   9.627  -8.127  0.1308 -0.3335  0.0755
   50FTM     C5 9459  -2.362   9.624  -8.425 -0.1373 -0.1497 -0.0533
   50FTM     C6 9460  -2.305   9.709  -8.540  0.5042 -0.5198  0.1338
   50FTM     C7 9461  -2.225   9.823  -8.484  0.2986 -0.2587  0.2220
   50FTM     C8 9462  -2.305   9.947  -8.446  0.0650 -0.2455  0.8642
   50FTM     C9 9463  -2.238  10.068  -8.380 -0.0941 -0.2283 -0.3406
   50FTM    C10 9464  -2.111  10.119  -8.460 -0.1758  0.6336 -0.3239
   50FTM    C11 9465  -2.243   9.626  -8.659 -0.0715 -0.6331 -0.4549
   50FTM    C12 9466  -2.182   9.696  -8.783 -0.6192  0.4935 -0.0485
   51FTM     S1 9467  -1.870   8.806  -7.881  0.1856  0.2198 -0.0217
   51FTM     C1 9468  -1.793   8.653  -7.936  0.3514  0.2038  0.2510
   51FTM     C2 9469  -1.785   8.651  -8.072  0.5512  0.0660  0.2635
   51FTM     C3 9470  -1.837   8.766  -8.140  0.5870 -0.0334  0.0666
   51FTM     C4 9471  -1.886   8.859  -8.053  0.4085  0.0306 -0.1023
   51FTM     F1 9472  -1.730   8.545  -8.143  0.7138  0.0212  0.4541
   51FTM     C5 9473  -1.759   8.543  -7.837  0.1995 -0.1277 -0.0307
   51FTM     C6 9474  -1.642   8.568  -7.736  0.3649 -0.0729 -0.0485
   51FTM     C7 9475  -1.643   8.458  -7.627 -0.2235  0.0838 -0.8356
   51FTM     C8 9476  -1.758   8.454  -7.525  0.1093  0.1973 -0.1178
   51FTM     C9 9477  -1.794   8.582  -7.456  0.6712 -0.1795 -0.3166
   51FTM    C10 9478  -1.920   8.562  -7.367 -0.2129 -0.5235 -0.2685
   51FTM    C11 9479  -1.510   8.592  -7.798 -0.7166 -0.5837 -0.6614
   51FTM    C12 9480  -1.400   8.632  -7.697 -0.3503 -0.1991  0.0562
   52TPM     C1 9481  -2.201   8.830  -8.498 -0.3658  0.0890 -0.2199
   52TPM     C2 9482  -2.272   8.861  -8.611 -0.5255 -0.0401 -0.1560
   52TPM     C3 9483  -2.305   8.747  -8.692 -0.3796 -0.1006 -0.1310
   52TPM     C4 9484  -2.260   8.629  -8.641 -0.1081 -0.0174 -0.1758
   52TPM     S1 9485  -2.171   8.653  -8.486 -0.0154  0.1451 -0.2537
   53BDD     C1 9486  -2.328   8.378  -8.935  0.0388  0.1233 -0.0315
   53BDD     C2 9487  -2.221   8.324  -8.870  0.0117  0.0827 -0.0203
   53BDD     C3 9488  -2.181   8.399  -8.752 -0.0265  0.0200  0.0326
   53BDD     C4 9489  -2.259   8.509  -8.729 -0.0281  0.0131  0.0610
   53BDD     S1 9490  -2.387   8.527  -8.853  0.0184  0.0846  0.0234
   53BDD     C5 9491  -2.151   8.201  -8.913  0.0200  0.1011 -0.0579
   53BDD     C6 9492  -2.068   8.358  -8.666 -0.0601 -0.0308  0.0531
   53BDD     O1 9493  -2.034   8.423  -8.564 -0.0930 -0.0851  0.0987
   53BDD     O2 9494  -2.185   8.136  -9.015  0.0529  0.1554 -0.1035
   53BDD     C7 9495  -1.998   8.235  -8.710 -0.0520 -0.0129  0.0155
   53BDD     C8 9496  -2.037   8.161  -8.827 -0.0137  0.0501 -0.0374
   53BDD     C9 9497  -1.960   8.050  -8.850 -0.0122  0.0570 -0.0658
   53BDD     S2 9498  -1.832   8.033  -8.726 -0.0585 -0.0147 -0.0282
   53BDD    C10 9499  -1.891   8.181  -8.644 -0.0789 -0.0529  0.0267
   53BDD    C11 9500  -1.819   8.211  -8.516 -0.1290 -0.3252 -0.4777
   53BDD    C12 9501  -1.685   8.285  -8.514 -0.7508 -0.2701 -0.1385
   53BDD    C13 9502  -1.571   8.227  -8.602  0.3846 -0.0041 -0.1053
   53BDD    C14 9503  -1.498   8.096  -8.577  0.3154  0.8924  0.2274
   53BDD    C15 9504  -1.393   8.101  -8.458  0.0212 -0.4819  0.8055
   53BDD    C16 9505  -1.267   8.189  -8.476  0.4813  1.1217 -0.2150
   53BDD    C17 9506  -1.658   8.324  -8.366  0.3332 -0.2729 -0.1462
   53BDD    C18 9507  -1.543   8.417  -8.352  0.4436 -0.4780 -0.0884
   53BDD    C19 9508  -1.961   7.942  -8.954  0.3068  0.4319  0.3255
   53BDD    C20 9509  -1.872   7.963  -9.079 -0.0741  0.1394  0.4935
   53BDD    C21 9510  -1.830   7.841  -9.157  0.7377  0.3808 -0.5502
   53BDD    C22 9511  -1.756   7.722  -9.096  0.2333  0.0045  0.3846
   53BDD    C23 9512  -1.617   7.761  -9.057 -0.3079 -0.0468 -0.0180
   53BDD    C24 9513  -1.530   7.639  -9.016  0.3680 -0.3420  0.0556
   53BDD    C25 9514  -1.923   8.073  -9.167 -0.0386  0.1106 -0.0256
   53BDD    C26 9515  -1.837   8.121  -9.285  0.6556  0.4347  0.0317
   54TPM     C1 9516  -2.403   8.350  -9.059 -0.1496 -0.2837 -0.2645
   54TPM     C2 9517  -2.452   8.227  -9.091 -0.0143 -0.2770 -0.4994
   54TPM     C3 9518  -2.550   8.230  -9.197  0.0954 -0.2015 -0.5993
   54TPM     C4 9519  -2.575   8.355  -9.245  0.0435 -0.1506 -0.4405
   54TPM     S1 9520  -2.477   8.480  -9.160 -0.1492 -0.1944 -0.1503
   55BDTP    C1 9521  -2.925   8.467  -9.761 -0.1464 -0.0737 -0.1495
   55BDTP    C2 9522  -2.942   8.587  -9.686 -0.0665 -0.0513 -0.1676
   55BDTP    C3 9523  -2.883   8.607  -9.562  0.0130 -0.0391 -0.2067
   55BDTP    C4 9524  -2.804   8.504  -9.509  0.0142 -0.0498 -0.2296
   55BDTP    C5 9525  -2.787   8.384  -9.584 -0.0657 -0.0725 -0.2117
   55BDTP    C6 9526  -2.846   8.364  -9.708 -0.1451 -0.0847 -0.1721
   55BDTP    C7 9527  -2.733   8.501  -9.382  0.0884 -0.0410 -0.2709
   55BDTP    C8 9528  -2.665   8.387  -9.359  0.0689 -0.0556 -0.2847
   55BDTP    S1 9529  -2.681   8.266  -9.494 -0.0467 -0.0825 -0.2470
   55BDTP    C9 9530  -2.996   8.470  -9.887 -0.2207 -0.0825 -0.1082
   55BDTP   C10 9531  -3.064   8.584  -9.911 -0.2009 -0.0682 -0.0947
   55BDTP    S2 9532  -3.048   8.705  -9.776 -0.0854 -0.0409 -0.1324
   56FTM     S1 9533  -2.775   8.815  -9.405 -0.1027  0.1331  0.2298
   56FTM     C1 9534  -2.889   8.936  -9.335 -0.1979  0.1729  0.0068
   56FTM     C2 9535  -3.016   8.909  -9.375 -0.1419  0.1562 -0.1600
   56FTM     C3 9536  -3.032   8.796  -9.461 -0.0243  0.1132 -0.1254
   56FTM     C4 9537  -2.914   8.733  -9.487  0.0106  0.0957  0.0745
   56FTM     F1 9538  -3.125   8.986  -9.337 -0.1935  0.1798 -0.3540
   56FTM     C5 9539  -2.842   9.031  -9.224  0.1067  0.1246 -0.5271
   56FTM     C6 9540  -2.720   9.007  -9.128 -0.4131  0.2351 -0.0343
   56FTM     C7 9541  -2.711   9.128  -9.030  0.0065 -0.1675  0.0134
   56FTM     C8 9542  -2.620   9.243  -9.081 -0.2204 -0.0558  0.1611
   56FTM     C9 9543  -2.629   9.364  -8.988 -0.1470 -0.1105 -0.1469
   56FTM    C10 9544  -2.586   9.486  -9.067 -0.0461 -0.8080 -0.5019
   56FTM    C11 9545  -2.707   8.867  -9.076 -0.4337  0.2650 -0.8779
   56FTM    C12 9546  -2.599   8.848  -8.968  0.5056 -0.0909 -0.3010
   57FTM     S1 9547  -2.941   8.139  -9.868 -0.0124  0.1237 -0.1236
   57FTM     C1 9548  -2.812   8.046  -9.952  0.0068  0.0466 -0.0099
   57FTM     C2 9549  -2.690   8.092  -9.913  0.0033 -0.1564  0.2465
   57FTM     C3 9550  -2.689   8.200  -9.818 -0.0138 -0.2623  0.3672
   57FTM     C4 9551  -2.815   8.237  -9.783 -0.0240 -0.1361  0.1977
   57FTM     F1 9552  -2.571   8.039  -9.961  0.0155 -0.2584  0.3870
   57FTM     C5 9553  -2.833   7.930 -10.047  0.5729  0.0154 -0.2663
   57FTM     C6 9554  -2.784   7.788 -10.025 -0.6158 -0.3694 -0.5932
   57FTM     C7 9555  -2.784   7.705 -10.158 -0.4343  0.8441  0.2058
   57FTM     C8 9556  -2.688   7.742 -10.285  0.1704 -0.0117 -0.5715
   57FTM     C9 9557  -2.551   7.810 -10.266  0.5867 -0.6255  0.0168
   57FTM    C10 9558  -2.493   7.864 -10.397 -0.0693  0.0515 -0.0373
   57FTM    C11 9559  -2.830   7.718  -9.900  0.1619 -0.5351 -1.0524
   57FTM    C12 9560  -2.971   7.666  -9.895  0.3443 -0.2352 -0.3399
   58TPM     C1 9561  -3.132   8.621 -10.029 -0.5323  0.0095  0.1320
   58TPM     C2 9562  -3.207   8.730 -10.063 -0.5512  0.0265  0.2260
   58TPM     C3 9563  -3.263   8.722 -10.196 -0.6093  0.0992  0.2463
   58TPM     C4 9564  -3.231   8.608 -10.263 -0.6344  0.1378  0.1678
   58TPM     S1 9565  -3.127   8.500 -10.163 -0.5864  0.0849  0.0609
   59BDD     C1 9566  -3.358   8.648 -10.630 -0.0805 -0.0554  0.1777
   59BDD     C2 9567  -3.368   8.513 -10.606 -0.0557 -0.0567  0.1814
   59BDD     C3 9568  -3.321   8.475 -10.474 -0.0607 -0.0427  0.1869
   59BDD     C4 9569  -3.277   8.581 -10.399 -0.0893 -0.0314  0.1875
   59BDD     S1 9570  -3.291   8.736 -10.489 -0.1121 -0.0370  0.1810
   59BDD     C5 9571  -3.419   8.415 -10.703 -0.0261 -0.0703  0.1795
   59BDD     C6 9572  -3.322   8.336 -10.426 -0.0367 -0.0410  0.1917
   59BDD     O1 9573  -3.282   8.303 -10.312 -0.0410 -0.0288  0.1967
   59BDD     O2 9574  -3.459   8.448 -10.817 -0.0217 -0.0825  0.1748
   59BDD     C7 9575  -3.374   8.237 -10.524 -0.0073 -0.0551  0.1898
   59BDD     C8 9576  -3.420   8.275 -10.656 -0.0023 -0.0691  0.1843
   59BDD     C9 9577  -3.464   8.170 -10.731  0.0265 -0.0808  0.1833
   59BDD     S2 9578  -3.451   8.015 -10.640  0.0492 -0.0750  0.1902
   59BDD    C10 9579  -3.383   8.103 -10.499  0.0176 -0.0563  0.1934
   59BDD    C11 9580  -3.357   8.013 -10.377 -0.1909  0.5907  0.1083
   59BDD    C12 9581  -3.236   7.917 -10.384  0.3216  0.0678  0.4761
   59BDD    C13 9582  -3.101   7.978 -10.430  0.2304  0.7895  0.2201
   59BDD    C14 9583  -3.032   8.070 -10.329 -0.6586 -0.7342  0.1851
   59BDD    C15 9584  -2.900   8.155 -10.362  0.6168  0.0836 -0.2369
   59BDD    C16 9585  -2.793   8.086 -10.437  0.1641  0.4988 -0.0362
   59BDD    C17 9586  -3.235   7.833 -10.263  0.1162  0.0052 -0.6097
   59BDD    C18 9587  -3.155   7.703 -10.264 -0.1277 -0.7103  0.2368
   59BDD    C19 9588  -3.533   8.167 -10.868 -0.0829  0.1546 -0.5145
   59BDD    C20 9589  -3.684   8.190 -10.866 -0.5549  0.3074  0.6880
   59BDD    C21 9590  -3.725   8.211 -11.012  0.0282  0.5028  0.4417
   59BDD    C22 9591  -3.856   8.279 -11.044 -0.4548  0.1079  0.1355
   59BDD    C23 9592  -3.877   8.298 -11.192  0.3567  0.2472  0.0824
   59BDD    C24 9593  -3.992   8.390 -11.233 -0.4351 -0.0241 -0.3535
   59BDD    C25 9594  -3.772   8.107 -10.775 -0.8109  0.2619  0.0920
   59BDD    C26 9595  -3.775   7.955 -10.765  0.3165 -0.3848  0.2896
   60TPM     C1 9596  -3.399   8.744 -10.741 -0.4626 -0.0193 -0.0960
   60TPM     C2 9597  -3.436   8.871 -10.707 -0.0809  0.0870 -0.0663
   60TPM     C3 9598  -3.493   8.945 -10.817 -0.0175  0.2260 -0.0055
   60TPM     C4 9599  -3.500   8.875 -10.933 -0.3508  0.2256  0.0109
   60TPM     S1 9600  -3.434   8.708 -10.914 -0.7740  0.0485 -0.0497
    1BDTP    C1 9601   8.513   5.543   7.155 -0.2551  0.1043  0.2553
    1BDTP    C2 9602   8.471   5.504   7.024 -0.0453  0.2127  0.1547
    1BDTP    C3 9603   8.404   5.590   6.938  0.0291  0.2613  0.1452
    1BDTP    C4 9604   8.377   5.721   6.983 -0.1094  0.2006  0.2394
    1BDTP    C5 9605   8.419   5.759   7.114 -0.3195  0.0925  0.3402
    1BDTP    C6 9606   8.486   5.673   7.200 -0.3937  0.0438  0.3496
    1BDTP    C7 9607   8.309   5.828   6.913 -0.0683  0.2338  0.2498
    1BDTP    C8 9608   8.298   5.943   6.983 -0.2351  0.1569  0.3518
    1BDTP    S1 9609   8.373   5.933   7.148 -0.4675  0.0314  0.4494
    1BDTP    C9 9610   8.581   5.436   7.225 -0.2964  0.0713  0.2450
    1BDTP   C10 9611   8.592   5.321   7.155 -0.1295  0.1483  0.1428
    1BDTP    S2 9612   8.517   5.331   6.989  0.1025  0.2737  0.0452
    2FTM     S1 9613   8.250   5.385   6.810  0.0817  0.0411  0.1817
    2FTM     C1 9614   8.205   5.413   6.638 -0.3080 -0.0748  0.2628
    2FTM     C2 9615   8.262   5.528   6.593 -0.2763 -0.1889  0.0073
    2FTM     C3 9616   8.343   5.599   6.688  0.0451 -0.1930 -0.2608
    2FTM     C4 9617   8.348   5.537   6.809  0.2667 -0.0784 -0.2088
    2FTM     F1 9618   8.245   5.576   6.464 -0.5367 -0.2962  0.0008
    2FTM     C5 9619   8.106   5.325   6.568  0.1114 -0.5015 -0.1602
    2FTM     C6 9620   8.148   5.201   6.499 -0.2311  1.0383 -0.6114
    2FTM     C7 9621   8.270   5.228   6.406 -0.7167 -0.5474 -0.3023
    2FTM     C8 9622   8.406   5.146   6.421 -0.0285  0.2128 -0.0373
    2FTM     C9 9623   8.510   5.192   6.320  0.4676 -0.6333  0.5196
    2FTM    C10 9624   8.512   5.104   6.196  0.7533  0.6835  0.0213
    2FTM    C11 9625   8.025   5.111   6.454 -0.7196 -0.1428 -0.0449
    2FTM    C12 9626   8.064   4.976   6.403  0.2086 -0.6837  0.3468
    3FTM     S1 9627   8.673   5.714   7.419  0.2727  0.3338 -0.2183
    3FTM     C1 9628   8.597   5.766   7.574  0.4838  0.2944 -0.1010
    3FTM     C2 9629   8.462   5.775   7.559  0.4854  0.5355  0.0155
    3FTM     C3 9630   8.411   5.742   7.429  0.3266  0.7597  0.0207
    3FTM     C4 9631   8.509   5.707   7.342  0.1989  0.6884 -0.0958
    3FTM     F1 9632   8.377   5.813   7.661  0.6309  0.5670  0.1246
    3FTM     C5 9633   8.678   5.805   7.696  0.7083 -0.3399  0.4193
    3FTM     C6 9634   8.784   5.713   7.761  0.6942  0.0076  1.0252
    3FTM     C7 9635   8.869   5.771   7.876 -0.8465 -0.0944  0.5365
    3FTM     C8 9636   8.929   5.909   7.842 -0.6693 -0.0701 -0.0772
    3FTM     C9 9637   9.049   5.945   7.932 -0.0077 -0.7059  0.6558
    3FTM    C10 9638   9.193   5.904   7.884  0.4235  0.2389  0.1175
    3FTM    C11 9639   8.736   5.562   7.775  0.6034 -0.8619 -0.5023
    3FTM    C12 9640   8.846   5.464   7.783 -0.4033 -0.6129 -0.5676
    4TPM     C1 9641   8.648   5.191   7.194  0.2574 -0.1757 -0.3256
    4TPM     C2 9642   8.642   5.079   7.117  0.0818 -0.3617 -0.0435
    4TPM     C3 9643   8.721   4.970   7.167 -0.1774 -0.3994  0.2924
    4TPM     C4 9644   8.788   4.998   7.282 -0.1997 -0.2424  0.2665
    4TPM     S1 9645   8.756   5.167   7.337  0.1076 -0.0328 -0.1880
    5BDD     C1 9646   8.973   4.664   7.361  0.3454  0.2987 -0.1443
    5BDD     C2 9647   9.020   4.750   7.455  0.2110  0.2062  0.0095
    5BDD     C3 9648   8.961   4.883   7.448 -0.0677  0.1005  0.3083
    5BDD     C4 9649   8.868   4.895   7.347 -0.1416  0.1138  0.3779
    5BDD     S1 9650   8.850   4.741   7.256  0.1326  0.2596  0.0740
    5BDD     C5 9651   9.123   4.715   7.556  0.3333  0.2117 -0.1122
    5BDD     C6 9652   8.997   4.992   7.540 -0.2506 -0.0100  0.5139
    5BDD     O1 9653   8.946   5.106   7.533 -0.4907 -0.1012  0.7715
    5BDD     O2 9654   9.174   4.601   7.563  0.5734  0.3029 -0.3697
    5BDD     C7 9655   9.099   4.957   7.641 -0.1278 -0.0045  0.3921
    5BDD     C8 9656   9.159   4.825   7.648  0.1507  0.1012  0.0935
    5BDD     C9 9657   9.251   4.813   7.749  0.2246  0.0877  0.0238
    5BDD     S2 9658   9.270   4.966   7.840 -0.0497 -0.0580  0.3277
    5BDD    C10 9659   9.147   5.043   7.735 -0.2623 -0.0972  0.5459
    5BDD    C11 9660   9.137   5.191   7.764 -0.3077  0.5227 -0.6518
    5BDD    C12 9661   9.249   5.285   7.704 -0.2817 -0.2176 -1.0077
    5BDD    C13 9662   9.258   5.282   7.552 -0.5380  0.5020 -0.6021
    5BDD    C14 9663   9.385   5.307   7.486 -0.0890  0.6039  0.3098
    5BDD    C15 9664   9.492   5.191   7.505 -0.0238  0.2489 -0.1361
    5BDD    C16 9665   9.613   5.221   7.414  0.8026  0.0423 -0.6121
    5BDD    C17 9666   9.267   5.425   7.767 -0.3142 -0.1436 -0.5058
    5BDD    C18 9667   9.269   5.447   7.918 -0.1554  0.4711  0.1913
    5BDD    C19 9668   9.338   4.699   7.807  0.2539  0.3950  0.1848
    5BDD    C20 9669   9.447   4.644   7.721 -0.2384  0.2006  0.7292
    5BDD    C21 9670   9.550   4.753   7.676  0.3334 -0.4176  0.3917
    5BDD    C22 9671   9.672   4.724   7.593  0.0075  0.0900  0.2443
    5BDD    C23 9672   9.757   4.846   7.559 -0.0143  0.3128 -0.0601
    5BDD    C24 9673   9.890   4.818   7.482  0.2859 -0.3987 -0.0035
    5BDD    C25 9674   9.494   4.509   7.782  0.0191  0.2752 -0.0342
    5BDD    C26 9675   9.573   4.406   7.705 -0.0745 -0.6239  0.5166
    6TPM     C1 9676   8.996   4.524   7.327  0.1661 -0.1057 -0.0805
    6TPM     C2 9677   9.121   4.474   7.305  0.1543  0.0511 -0.5264
    6TPM     C3 9678   9.122   4.348   7.236  0.0663  0.0738 -0.5692
    6TPM     C4 9679   8.998   4.301   7.204  0.0115 -0.0659 -0.1562
    6TPM     S1 9680   8.869   4.414   7.261  0.0670 -0.2379  0.3227
    7BDTP    C1 9681   8.851   3.783   6.877  0.1850  0.0508 -0.1869
    7BDTP    C2 9682   8.993   3.774   6.887  0.1824  0.0601 -0.1385
    7BDTP    C3 9683   9.069   3.870   6.951  0.1490  0.0387 -0.0672
    7BDTP    C4 9684   9.003   3.980   7.009  0.1171  0.0064 -0.0422
    7BDTP    C5 9685   8.861   3.989   6.999  0.1199 -0.0030 -0.0907
    7BDTP    C6 9686   8.785   3.893   6.934  0.1533  0.0185 -0.1619
    7BDTP    C7 9687   9.061   4.092   7.081  0.0797 -0.0201  0.0291
    7BDTP    C8 9688   8.971   4.183   7.125  0.0548 -0.0485  0.0366
    7BDTP    S1 9689   8.799   4.140   7.081  0.0749 -0.0458 -0.0457
    7BDTP    C9 9690   8.793   3.671   6.805  0.2222  0.0774 -0.2582
    7BDTP   C10 9691   8.883   3.581   6.761  0.2472  0.1058 -0.2656
    7BDTP    S2 9692   9.054   3.624   6.804  0.2272  0.1029 -0.1834
    8FTM     S1 9693   9.330   3.974   6.933  0.1066 -0.0937  0.6110
    8FTM     C1 9694   9.464   3.867   6.989  0.2590 -0.1882  0.0817
    8FTM     C2 9695   9.412   3.750   7.036  0.3977 -0.3394 -0.1450
    8FTM     C3 9696   9.270   3.737   7.030  0.3934 -0.3899  0.0738
    8FTM     C4 9697   9.210   3.847   6.978  0.2472 -0.2734  0.4813
    8FTM     F1 9698   9.492   3.648   7.086  0.5364 -0.4411 -0.5641
    8FTM     C5 9699   9.604   3.913   6.982 -0.2889  0.4024 -0.2960
    8FTM     C6 9700   9.696   3.853   6.870 -0.2053 -0.5619 -0.3080
    8FTM     C7 9701   9.842   3.877   6.896 -0.0046  0.6337  0.3487
    8FTM     C8 9702   9.909   3.823   7.027 -0.0381 -0.3541  0.0143
    8FTM     C9 9703   9.917   3.670   7.040  0.1469  0.4928 -0.1219
    8FTM    C10 9704   9.952   3.633   7.186  0.3256  0.2213 -0.6395
    8FTM    C11 9705   9.649   3.870   6.724  0.5698  0.0898 -0.8777
    8FTM    C12 9706   9.701   3.772   6.620  0.1351  0.6028  0.6964
    9FTM     S1 9707   8.546   3.935   6.778 -0.0689  0.1768  0.1481
    9FTM     C1 9708   8.391   3.933   6.871 -0.0530 -0.2167  0.1693
    9FTM     C2 9709   8.417   3.915   7.003 -0.0219 -0.6423  0.1088
    9FTM     C3 9710   8.555   3.902   7.040 -0.0091 -0.6872  0.0441
    9FTM     C4 9711   8.638   3.911   6.932 -0.0309 -0.2828  0.0551
    9FTM     F1 9712   8.317   3.910   7.099 -0.0036 -1.0164  0.1086
    9FTM     C5 9713   8.254   3.923   6.802 -0.2512 -0.4509 -0.2972
    9FTM     C6 9714   8.168   3.796   6.820  0.3309 -0.6201 -0.5895
    9FTM     C7 9715   8.032   3.812   6.748 -0.3284  0.4219 -0.2144
    9FTM     C8 9716   7.933   3.905   6.812  0.5077  0.3290  0.7355
    9FTM     C9 9717   7.866   3.840   6.931  0.8767  0.4937  0.2319
    9FTM    C10 9718   7.782   3.927   7.025  0.1434 -0.2328 -0.0244
    9FTM    C11 9719   8.236   3.666   6.789 -0.5365  0.3411  0.5580
    9FTM    C12 9720   8.294   3.637   6.644  0.5668 -0.1298 -0.5247
   10TPM     C1 9721   8.868   3.456   6.693  0.1793  0.3343  0.0242
   10TPM     C2 9722   8.758   3.404   6.631  0.0393  0.3273  0.2776
   10TPM     C3 9723   8.778   3.271   6.579 -0.0975  0.2964  0.3029
   10TPM     C4 9724   8.903   3.222   6.601 -0.0620  0.2800  0.0688
   10TPM     S1 9725   9.007   3.340   6.690  0.1485  0.3024 -0.2039
   11BDD     C1 9726   8.922   2.827   6.574  0.0667  0.0945  0.2580
   11BDD     C2 9727   9.049   2.873   6.551  0.0522  0.0779  0.1432
   11BDD     C3 9728   9.058   3.018   6.549  0.0417  0.0770 -0.0206
   11BDD     C4 9729   8.939   3.080   6.571  0.0483  0.0929 -0.0285
   11BDD     S1 9730   8.806   2.962   6.595  0.0687  0.1103  0.1688
   11BDD     C5 9731   9.166   2.785   6.530  0.0472  0.0622  0.1800
   11BDD     C6 9732   9.186   3.089   6.526  0.0253  0.0603 -0.1636
   11BDD     O1 9733   9.194   3.214   6.525  0.0162  0.0595 -0.3049
   11BDD     O2 9734   9.158   2.660   6.531  0.0563  0.0629  0.3213
   11BDD     C7 9735   9.303   3.001   6.505  0.0200  0.0446 -0.1267
   11BDD     C8 9736   9.293   2.857   6.506  0.0305  0.0455  0.0372
   11BDD     C9 9737   9.413   2.794   6.485  0.0241  0.0296  0.0449
   11BDD     S2 9738   9.546   2.913   6.460  0.0035  0.0124 -0.1524
   11BDD    C10 9739   9.429   3.048   6.482  0.0057  0.0280 -0.2415
   11BDD    C11 9740   9.477   3.184   6.456  0.8491 -0.0270  0.0166
   11BDD    C12 9741   9.588   3.210   6.359 -0.1321  0.4574 -0.0601
   11BDD    C13 9742   9.571   3.147   6.216  0.4474 -0.3871  0.6187
   11BDD    C14 9743   9.704   3.151   6.136 -0.1753  0.3124 -0.0786
   11BDD    C15 9744   9.813   3.045   6.166  0.6312 -0.6157  0.3111
   11BDD    C16 9745   9.766   2.904   6.158  0.0238  0.4352 -0.5034
   11BDD    C17 9746   9.627   3.359   6.361 -0.3868 -0.0266  0.1122
   11BDD    C18 9747   9.680   3.426   6.491  0.6212 -0.1360  0.2270
   11BDD    C19 9748   9.446   2.645   6.480  0.6415 -0.0783 -0.4449
   11BDD    C20 9749   9.558   2.590   6.578  0.4637 -0.4527 -0.3283
   11BDD    C21 9750   9.560   2.651   6.717  0.3173  0.2349  0.0457
   11BDD    C22 9751   9.699   2.641   6.791  0.1904 -0.1610  0.6683
   11BDD    C23 9752   9.726   2.722   6.913  0.1998 -0.7012  0.3007
   11BDD    C24 9753   9.876   2.732   6.951  0.1563 -0.1918  0.3601
   11BDD    C25 9754   9.597   2.447   6.566 -0.6009  0.4884  0.3047
   11BDD    C26 9755   9.503   2.334   6.626 -0.1712  0.0201 -0.1134
   12TPM     C1 9756   8.848   2.696   6.581 -0.1143  0.2658 -0.4930
   12TPM     C2 9757   8.904   2.577   6.617  0.1156  0.2014 -1.0382
   12TPM     C3 9758   8.808   2.471   6.635  0.2539  0.0980 -0.9038
   12TPM     C4 9759   8.679   2.510   6.613  0.1298  0.0835 -0.2560
   12TPM     S1 9760   8.669   2.684   6.566 -0.1744  0.2004  0.2385
   13BDTP    C1 9761   8.138   2.177   6.589  0.1934 -0.1219 -0.1262
   13BDTP    C2 9762   8.093   2.312   6.601  0.1688 -0.1185 -0.2563
   13BDTP    C3 9763   8.179   2.420   6.611  0.1488 -0.0948 -0.3378
   13BDTP    C4 9764   8.317   2.394   6.609  0.1533 -0.0734 -0.2891
   13BDTP    C5 9765   8.363   2.260   6.597  0.1779 -0.0769 -0.1589
   13BDTP    C6 9766   8.277   2.152   6.587  0.1975 -0.1007 -0.0773
   13BDTP    C7 9767   8.426   2.490   6.619  0.1358 -0.0470 -0.3551
   13BDTP    C8 9768   8.549   2.434   6.614  0.1457 -0.0307 -0.2818
   13BDTP    S1 9769   8.546   2.253   6.598  0.1791 -0.0465 -0.1189
   13BDTP    C9 9770   8.030   2.082   6.580  0.2110 -0.1484 -0.0601
   13BDTP   C10 9771   7.906   2.137   6.584  0.2010 -0.1647 -0.1334
   13BDTP    S2 9772   7.910   2.318   6.601  0.1674 -0.1488 -0.2964
   14FTM     S1 9773   8.046   2.586   6.798 -0.0206 -0.1219 -0.3204
   14FTM     C1 9774   8.008   2.754   6.746 -0.3825 -0.2058 -0.3297
   14FTM     C2 9775   8.052   2.774   6.619  0.1035  0.0609 -0.1247
   14FTM     C3 9776   8.116   2.663   6.556  0.7706  0.3400  0.0478
   14FTM     C4 9777   8.122   2.554   6.637  0.7967  0.2853 -0.0274
   14FTM     F1 9778   8.036   2.895   6.553 -0.0269  0.0681 -0.0814
   14FTM     C5 9779   7.933   2.846   6.837 -0.6769 -0.2457 -0.1313
   14FTM     C6 9780   7.829   2.805   6.943 -0.1879  0.0053 -0.4115
   14FTM     C7 9781   7.897   2.749   7.067  0.2301  0.1166 -0.1665
   14FTM     C8 9782   7.971   2.839   7.168 -0.0196 -0.5445  0.2160
   14FTM     C9 9783   8.044   2.766   7.283  0.1015 -0.0428 -0.0054
   14FTM    C10 9784   8.109   2.856   7.385  0.1342 -0.2681 -0.1509
   14FTM    C11 9785   7.707   2.722   6.913 -0.1165  0.7255  0.0699
   14FTM    C12 9786   7.628   2.754   6.792  0.9951 -0.3223  0.3560
   15FTM     S1 9787   8.300   1.884   6.672  0.1556  0.0290  0.0001
   15FTM     C1 9788   8.378   1.772   6.554  0.2479  0.1317 -0.0374
   15FTM     C2 9789   8.418   1.840   6.444  0.2656  0.2153  0.0207
   15FTM     C3 9790   8.391   1.981   6.444  0.2098  0.2049  0.0961
   15FTM     C4 9791   8.328   2.022   6.558  0.1471  0.1101  0.0957
   15FTM     F1 9792   8.481   1.780   6.336  0.3335  0.3063  0.0091
   15FTM     C5 9793   8.396   1.631   6.592 -0.2241 -0.6095 -1.0431
   15FTM     C6 9794   8.301   1.524   6.547 -0.1313  0.3392  0.3380
   15FTM     C7 9795   8.353   1.386   6.586 -0.1401 -0.6596  0.4639
   15FTM     C8 9796   8.478   1.333   6.510  0.2328  0.2049  0.5355
   15FTM     C9 9797   8.512   1.202   6.580  0.4267 -0.4793  0.7889
   15FTM    C10 9798   8.637   1.137   6.520  1.0439 -0.0777  0.3447
   15FTM    C11 9799   8.156   1.540   6.592  0.5514 -0.3417  0.1653
   15FTM    C12 9800   8.127   1.538   6.744  0.1882 -0.7493 -0.1295
   16TPM     C1 9801   7.779   2.067   6.574 -0.0782  0.2806 -0.8502
   16TPM     C2 9802   7.653   2.119   6.573 -0.1017  0.2381 -1.6147
   16TPM     C3 9803   7.550   2.020   6.555 -0.0069  0.0540 -1.1775
   16TPM     C4 9804   7.597   1.893   6.542  0.0890 -0.0439 -0.0795
   16TPM     S1 9805   7.777   1.888   6.551  0.0667  0.0899  0.4917
   17BDD     C1 9806   7.437   1.537   6.561  0.0312  0.1051 -0.0953
   17BDD     C2 9807   7.357   1.605   6.473 -0.0063  0.0649 -0.0921
   17BDD     C3 9808   7.399   1.742   6.452 -0.0744  0.0852 -0.0963
   17BDD     C4 9809   7.510   1.777   6.523 -0.0879  0.1405 -0.1024
   17BDD     S1 9810   7.570   1.640   6.623 -0.0161  0.1710 -0.1036
   17BDD     C5 9811   7.239   1.546   6.406  0.0187  0.0065 -0.0855
   17BDD     C6 9812   7.327   1.833   6.361 -0.1240  0.0489 -0.0939
   17BDD     O1 9813   7.363   1.952   6.342 -0.1826  0.0664 -0.0974
   17BDD     O2 9814   7.203   1.427   6.425  0.0775 -0.0110 -0.0820
   17BDD     C7 9815   7.209   1.775   6.293 -0.0987 -0.0096 -0.0869
   17BDD     C8 9816   7.167   1.637   6.315 -0.0305 -0.0298 -0.0830
   17BDD     C9 9817   7.056   1.602   6.244 -0.0173 -0.0851 -0.0769
   17BDD     S2 9818   6.996   1.739   6.144 -0.0891 -0.1156 -0.0756
   17BDD    C10 9819   7.129   1.842   6.206 -0.1363 -0.0498 -0.0839
   17BDD    C11 9820   7.135   1.986   6.160  0.5787 -0.2677 -0.8974
   17BDD    C12 9821   7.022   2.092   6.189 -0.4887 -0.4034  0.2458
   17BDD    C13 9822   6.969   2.097   6.330 -0.6163  0.7571 -0.0201
   17BDD    C14 9823   7.053   2.171   6.440 -0.1453 -0.4373  0.0459
   17BDD    C15 9824   6.978   2.126   6.564  0.3954  0.0090  0.0966
   17BDD    C16 9825   7.055   2.159   6.695 -0.5463 -0.0391  0.5855
   17BDD    C17 9826   7.046   2.221   6.111  0.2353 -0.5144 -0.1265
   17BDD    C18 9827   6.927   2.320   6.125  0.0137  0.1190 -1.0969
   17BDD    C19 9828   6.959   1.480   6.241 -0.6217 -0.2371 -0.9146
   17BDD    C20 9829   6.989   1.366   6.150  0.0126  0.0166  0.0314
   17BDD    C21 9830   7.023   1.390   6.002  0.2559 -0.6642  0.1825
   17BDD    C22 9831   7.095   1.280   5.930 -0.5954  0.7154 -0.3522
   17BDD    C23 9832   7.128   1.303   5.783  0.1788 -0.1630  0.0336
   17BDD    C24 9833   7.189   1.437   5.743 -0.5504  0.1282  0.0332
   17BDD    C25 9834   6.891   1.245   6.161 -0.0531 -0.0267 -0.6297
   17BDD    C26 9835   6.836   1.204   6.296 -0.6259  0.9813  0.9359
   18TPM     C1 9836   7.436   1.402   6.609  0.1559  0.5109  0.1641
   18TPM     C2 9837   7.328   1.336   6.661  0.0727  0.5527  0.0476
   18TPM     C3 9838   7.361   1.211   6.723 -0.0646  0.4716 -0.0432
   18TPM     C4 9839   7.494   1.180   6.717 -0.0861  0.3679  0.0044
   18TPM     S1 9840   7.588   1.309   6.633  0.0666  0.3647  0.1686
   19BDTP    C1 9841   7.817   0.664   6.874 -0.2025 -0.0400  0.1612
   19BDTP    C2 9842   7.683   0.614   6.871 -0.1813 -0.0910  0.0747
   19BDTP    C3 9843   7.574   0.694   6.841 -0.1947 -0.1293  0.0200
   19BDTP    C4 9844   7.597   0.830   6.814 -0.2306 -0.1168  0.0519
   19BDTP    C5 9845   7.730   0.880   6.817 -0.2519 -0.0658  0.1380
   19BDTP    C6 9846   7.840   0.800   6.847 -0.2386 -0.0275  0.1928
   19BDTP    C7 9847   7.499   0.932   6.781 -0.2504 -0.1500  0.0070
   19BDTP    C8 9848   7.553   1.055   6.760 -0.2849 -0.1267  0.0552
   19BDTP    S1 9849   7.733   1.059   6.779 -0.2974 -0.0594  0.1638
   19BDTP    C9 9850   7.914   0.562   6.907 -0.1829 -0.0069  0.2059
   19BDTP   C10 9851   7.861   0.439   6.928 -0.1483 -0.0302  0.1577
   19BDTP    S2 9852   7.680   0.436   6.910 -0.1357 -0.0975  0.0492
   20FTM     S1 9853   7.310   0.679   6.960 -0.0231  0.3485 -0.4747
   20FTM     C1 9854   7.191   0.576   6.873 -0.0941  0.1657 -0.1662
   20FTM     C2 9855   7.247   0.525   6.760  0.0157 -0.5803  0.2092
   20FTM     C3 9856   7.383   0.563   6.735  0.1584 -1.0441  0.2779
   20FTM     C4 9857   7.433   0.644   6.832  0.1577 -0.6400 -0.0555
   20FTM     F1 9858   7.179   0.443   6.672 -0.0064 -0.8876  0.5126
   20FTM     C5 9859   7.054   0.569   6.936  0.0761 -0.1868  0.6577
   20FTM     C6 9860   7.026   0.453   7.038 -0.2996 -0.4069  0.4004
   20FTM     C7 9861   6.879   0.416   7.064 -0.2330  0.0225 -0.0250
   20FTM     C8 9862   6.771   0.419   6.953 -0.3447 -0.4292 -0.1590
   20FTM     C9 9863   6.641   0.399   7.020  0.6854  0.4829  0.0083
   20FTM    C10 9864   6.527   0.382   6.919  0.4065  0.2657  0.3402
   20FTM    C11 9865   7.113   0.453   7.164  0.3424  0.2520  0.0271
   20FTM    C12 9866   7.073   0.543   7.289 -0.5260  0.1136 -0.0255
   21FTM     S1 9867   8.117   0.781   6.764  0.2332  0.0068  0.3231
   21FTM     C1 9868   8.224   0.914   6.820  0.0768  0.3106 -0.0866
   21FTM     C2 9869   8.152   1.006   6.891 -0.0331  0.4509 -0.3790
   21FTM     C3 9870   8.012   0.978   6.905 -0.0031  0.3336 -0.3040
   21FTM     C4 9871   7.976   0.862   6.843  0.1346  0.0957  0.0575
   21FTM     F1 9872   8.208   1.119   6.946 -0.1676  0.6940 -0.7317
   21FTM     C5 9873   8.375   0.904   6.787  0.7736 -1.1087 -0.2712
   21FTM     C6 9874   8.445   0.780   6.818 -0.5216  0.0696 -0.2156
   21FTM     C7 9875   8.587   0.756   6.758  0.0328  0.3611  0.2377
   21FTM     C8 9876   8.592   0.723   6.603  0.1223 -0.1033 -0.2480
   21FTM     C9 9877   8.717   0.642   6.563 -0.3051 -0.4625  0.2515
   21FTM    C10 9878   8.702   0.607   6.419 -0.2764  0.7136 -0.4203
   21FTM    C11 9879   8.431   0.733   6.969 -0.3257 -0.3005  0.1328
   21FTM    C12 9880   8.484   0.599   7.009  0.6454  0.0842  0.2521
   22TPM     C1 9881   7.926   0.316   6.972 -0.1252  0.1664  0.2243
   22TPM     C2 9882   7.856   0.205   7.010 -0.2302  0.2166  0.1791
   22TPM     C3 9883   7.934   0.110   7.086 -0.2528  0.0028 -0.0595
   22TPM     C4 9884   8.063   0.150   7.106 -0.1653 -0.2104 -0.1962
   22TPM     S1 9885   8.096   0.310   7.030 -0.0461 -0.1573 -0.0331
   23BDD     C1 9886   8.201  -0.100   7.379 -0.0769 -0.0729  0.0548
   23BDD     C2 9887   8.266   0.018   7.404 -0.0398 -0.0806 -0.0060
   23BDD     C3 9888   8.232   0.124   7.311  0.0572 -0.1419 -0.1125
   23BDD     C4 9889   8.141   0.085   7.216  0.0934 -0.1802 -0.1315
   23BDD     S1 9890   8.092  -0.086   7.238  0.0079 -0.1426 -0.0173
   23BDD     C5 9891   8.363   0.038   7.514 -0.0932 -0.0317  0.0318
   23BDD     C6 9892   8.290   0.259   7.319  0.1106 -0.1600 -0.1916
   23BDD     O1 9893   8.260   0.351   7.238  0.1948 -0.2129 -0.2835
   23BDD     O2 9894   8.393  -0.054   7.594 -0.1769  0.0210  0.1237
   23BDD     C7 9895   8.386   0.279   7.429  0.0579 -0.1109 -0.1538
   23BDD     C8 9896   8.421   0.173   7.522 -0.0393 -0.0496 -0.0472
   23BDD     C9 9897   8.512   0.212   7.617 -0.0751 -0.0112 -0.0284
   23BDD     S2 9898   8.561   0.383   7.595  0.0104 -0.0489 -0.1426
   23BDD    C10 9899   8.451   0.397   7.454  0.0949 -0.1183 -0.2147
   23BDD    C11 9900   8.440   0.531   7.379 -0.0126  0.5984  0.3185
   23BDD    C12 9901   8.410   0.651   7.463  0.1187  0.6271 -0.0901
   23BDD    C13 9902   8.268   0.655   7.532  0.2399 -0.5597  0.2539
   23BDD    C14 9903   8.142   0.655   7.440 -0.0981 -0.0452 -0.2891
   23BDD    C15 9904   8.138   0.761   7.329  0.3258  0.1907 -0.2752
   23BDD    C16 9905   8.053   0.709   7.214 -0.7723  0.1422 -0.0956
   23BDD    C17 9906   8.472   0.772   7.402 -0.3756 -0.2509 -0.0475
   23BDD    C18 9907   8.487   0.895   7.484 -0.1622 -0.3555 -0.0017
   23BDD    C19 9908   8.568   0.150   7.742  0.3417 -0.5866  0.1172
   23BDD    C20 9909   8.483   0.132   7.865  0.8886 -0.2551 -0.2788
   23BDD    C21 9910   8.556   0.069   7.986 -0.1111  0.1236  0.6100
   23BDD    C22 9911   8.609  -0.076   7.978  0.5001  0.5467  0.6034
   23BDD    C23 9912   8.502  -0.189   7.942 -0.5262 -0.6709 -0.7680
   23BDD    C24 9913   8.541  -0.328   7.998  0.1226  0.1151  0.4395
   23BDD    C25 9914   8.407   0.262   7.894  0.4493  0.1133 -0.6647
   23BDD    C26 9915   8.296   0.254   8.007 -0.1401 -0.4334  0.7140
   24TPM     C1 9916   8.195  -0.230   7.439 -0.0922  0.0392  0.2146
   24TPM     C2 9917   8.192  -0.257   7.573 -0.3917 -0.0696  0.1875
   24TPM     C3 9918   8.150  -0.391   7.604 -0.4275 -0.1070 -0.0172
   24TPM     C4 9919   8.121  -0.467   7.494 -0.1550 -0.0267 -0.1462
   24TPM     S1 9920   8.145  -0.374   7.342  0.1705  0.1038 -0.0181
   25BDTP    C1 9921   7.766  -0.969   7.381 -0.0440  0.2162  0.0215
   25BDTP    C2 9922   7.772  -0.969   7.523 -0.0012  0.0248  0.0205
   25BDTP    C3 9923   7.846  -0.875   7.595  0.0618 -0.1023  0.1233
   25BDTP    C4 9924   7.916  -0.777   7.523  0.0834 -0.0374  0.2321
   25BDTP    C5 9925   7.910  -0.777   7.380  0.0404  0.1540  0.2331
   25BDTP    C6 9926   7.836  -0.871   7.309 -0.0225  0.2810  0.1305
   25BDTP    C7 9927   7.999  -0.670   7.575  0.1464 -0.1429  0.3499
   25BDTP    C8 9928   8.054  -0.591   7.480  0.1528 -0.0408  0.4381
   25BDTP    S1 9929   8.009  -0.641   7.311  0.0796  0.2031  0.3844
   25BDTP    C9 9930   7.683  -1.076   7.329 -0.1070  0.3216 -0.0962
   25BDTP   C10 9931   7.628  -1.155   7.424 -0.1134  0.2196 -0.1845
   25BDTP    S2 9932   7.673  -1.105   7.593 -0.0405 -0.0244 -0.1307
   26FTM     S1 9933   7.791  -0.719   7.822  0.1850 -0.0047 -0.2973
   26FTM     C1 9934   7.784  -0.800   7.983 -0.2894  0.0458 -0.2897
   26FTM     C2 9935   7.813  -0.932   7.970 -0.3940  0.0107 -0.1812
   26FTM     C3 9936   7.842  -0.977   7.837 -0.1183 -0.0556 -0.0993
   26FTM     C4 9937   7.835  -0.877   7.746  0.2081 -0.0721 -0.1468
   26FTM     F1 9938   7.816  -1.020   8.078 -0.7458  0.0367 -0.1493
   26FTM     C5 9939   7.749  -0.723   8.113 -0.2307  0.2168  0.8336
   26FTM     C6 9940   7.796  -0.573   8.124  0.0839  0.1227 -0.2040
   26FTM     C7 9941   7.731  -0.498   8.238  0.8862 -0.3619 -0.7009
   26FTM     C8 9942   7.736  -0.548   8.391  0.9103 -0.8772  0.5157
   26FTM     C9 9943   7.658  -0.443   8.464 -0.1279  0.3971 -0.3525
   26FTM    C10 9944   7.632  -0.485   8.612  0.2056 -0.5939  0.4720
   26FTM    C11 9945   7.945  -0.553   8.108 -0.7840 -0.0963 -0.3959
   26FTM    C12 9946   7.985  -0.406   8.090  0.1007 -0.2068  0.2103
   27FTM     S1 9947   7.871  -0.994   7.037  0.1657  0.2083 -0.1397
   27FTM     C1 9948   7.798  -0.896   6.905 -0.1485  0.1317 -0.0238
   27FTM     C2 9949   7.748  -0.781   6.956 -0.5499 -0.1018  0.1184
   27FTM     C3 9950   7.763  -0.762   7.097 -0.6354 -0.2320  0.1453
   27FTM     C4 9951   7.827  -0.866   7.157 -0.2881 -0.0936  0.0196
   27FTM     F1 9952   7.685  -0.685   6.878 -0.8637 -0.2115  0.2327
   27FTM     C5 9953   7.778  -0.947   6.768  0.4200 -0.2131  0.8783
   27FTM     C6 9954   7.901  -0.964   6.676  0.8773 -0.0127 -0.0900
   27FTM     C7 9955   7.974  -0.840   6.632  0.5494 -0.3590 -0.1655
   27FTM     C8 9956   7.898  -0.747   6.540 -0.3124 -1.0125  0.0636
   27FTM     C9 9957   7.980  -0.641   6.462  0.1880 -0.4098 -0.3181
   27FTM    C10 9958   7.908  -0.585   6.338  0.5151 -0.1370 -0.1548
   27FTM    C11 9959   7.999  -1.071   6.729  0.1972 -0.1467 -0.0496
   27FTM    C12 9960   8.113  -1.119   6.645 -0.1007 -0.2268  0.4578
   28TPM     C1 9961   7.537  -1.267   7.411  0.2845 -0.0408 -0.0571
   28TPM     C2 9962   7.546  -1.364   7.316  0.5435 -0.0150 -0.0592
   28TPM     C3 9963   7.445  -1.466   7.327  0.5724 -0.0720 -0.3026
   28TPM     C4 9964   7.358  -1.446   7.430  0.3353 -0.1406 -0.4857
   28TPM     S1 9965   7.398  -1.296   7.522  0.0551 -0.1392 -0.3645
   29BDD     C1 9966   7.098  -1.682   7.608  0.0726 -0.2169  0.0435
   29BDD     C2 9967   7.056  -1.673   7.478  0.0509 -0.1030  0.0584
   29BDD     C3 9968   7.139  -1.586   7.397 -0.1082  0.1681  0.1808
   29BDD     C4 9969   7.243  -1.531   7.465 -0.2055  0.2574  0.2575
   29BDD     S1 9970   7.244  -1.583   7.637 -0.1047  0.0076  0.1817
   29BDD     C5 9971   6.937  -1.743   7.425  0.1756 -0.2394 -0.0392
   29BDD     C6 9972   7.112  -1.562   7.253 -0.1581  0.3290  0.2174
   29BDD     O1 9973   7.184  -1.487   7.183 -0.2953  0.5631  0.3229
   29BDD     O2 9974   6.865  -1.818   7.495  0.3129 -0.4731 -0.1448
   29BDD     C7 9975   6.994  -1.632   7.200 -0.0335  0.1929  0.1199
   29BDD     C8 9976   6.910  -1.719   7.281  0.1258 -0.0782 -0.0025
   29BDD     C9 9977   6.806  -1.774   7.213  0.2229 -0.1674 -0.0790
   29BDD     S2 9978   6.805  -1.722   7.041  0.1221  0.0824 -0.0032
   29BDD    C10 9979   6.951  -1.623   7.070 -0.0553  0.3068  0.1349
   29BDD    C11 9980   6.999  -1.531   6.952 -0.1107  0.5259  0.2168
   29BDD    C12 9981   7.018  -1.596   6.806  0.4215 -0.3973 -0.3480
   29BDD    C13 9982   7.104  -1.721   6.810  0.1869  0.5766 -0.2701
   29BDD    C14 9983   7.095  -1.830   6.703  0.4407 -0.3075 -0.3365
   29BDD    C15 9984   7.205  -1.930   6.713 -0.1460 -0.0620  0.2524
   29BDD    C16 9985   7.217  -1.989   6.576 -0.2289 -0.0985 -0.3581
   29BDD    C17 9986   7.053  -1.505   6.687  0.2255  0.2386  0.3445
   29BDD    C18 9987   6.955  -1.393   6.668  0.2534  0.0887  0.7546
   29BDD    C19 9988   6.677  -1.840   7.264  0.1058 -0.6342 -0.0685
   29BDD    C20 9989   6.662  -1.992   7.233 -0.1085 -0.5831 -0.3036
   29BDD    C21 9990   6.537  -2.047   7.295  0.2708  0.1105 -0.1903
   29BDD    C22 9991   6.397  -1.985   7.264 -0.2682 -0.1729  0.0494
   29BDD    C23 9992   6.324  -2.023   7.131  0.0381 -0.2871 -0.0199
   29BDD    C24 9993   6.184  -1.964   7.124 -0.4774 -0.5414 -0.1730
   29BDD    C25 9994   6.778  -2.082   7.273  0.3656  0.4368  0.1046
   29BDD    C26 9995   6.797  -2.209   7.186 -0.0202 -0.1177 -0.5207
   30TPM     C1 9996   7.060  -1.759   7.726 -0.7608 -0.0237  0.0416
   30TPM     C2 9997   7.014  -1.886   7.715 -1.3037  0.1234  0.5041
   30TPM     C3 9998   7.023  -1.962   7.837 -0.9509  0.3083  0.5966
   30TPM     C4 9999   7.076  -1.892   7.942 -0.1390  0.3020  0.2048
   30TPM     S110000   7.119  -1.724   7.893  0.2459  0.0603 -0.3157
   31BDTP    C110001   7.163  -2.181   8.493 -0.0254 -0.1510 -0.1960
   31BDTP    C210002   7.214  -2.051   8.518  0.0564 -0.1850 -0.1848
   31BDTP    C310003   7.215  -1.951   8.422  0.1662 -0.1928 -0.1917
   31BDTP    C410004   7.163  -1.980   8.295  0.1969 -0.1657 -0.2108
   31BDTP    C510005   7.112  -2.111   8.269  0.1150 -0.1316 -0.2217
   31BDTP    C610006   7.111  -2.211   8.365  0.0052 -0.1240 -0.2148
   31BDTP    C710007   7.154  -1.893   8.180  0.3053 -0.1677 -0.2211
   31BDTP    C810008   7.099  -1.951   8.070  0.3088 -0.1369 -0.2389
   31BDTP    S110009   7.051  -2.124   8.098  0.1751 -0.1013 -0.2453
   31BDTP    C910010   7.172  -2.269   8.608 -0.1339 -0.1493 -0.1853
   31BDTP   C1010011   7.227  -2.211   8.717 -0.1372 -0.1801 -0.1674
   31BDTP    S210012   7.275  -2.038   8.690 -0.0037 -0.2153 -0.1611
   32FTM     S110013   7.407  -1.759   8.349 -0.0588 -0.0574  0.2137
   32FTM     C110014   7.385  -1.594   8.418  0.0374  0.1184 -0.1760
   32FTM     C210015   7.281  -1.594   8.505 -0.1234  0.4439 -0.3645
   32FTM     C310016   7.214  -1.719   8.524 -0.3264  0.5736 -0.2213
   32FTM     C410017   7.268  -1.818   8.449 -0.3208  0.3395  0.0872
   32FTM     F110018   7.240  -1.480   8.573 -0.0964  0.6442 -0.6783
   32FTM     C510019   7.460  -1.471   8.373 -0.0177 -0.5702  0.0006
   32FTM     C610020   7.504  -1.446   8.222  0.2400  0.4646  0.1333
   32FTM     C710021   7.606  -1.336   8.199  0.0919 -0.5905  0.2809
   32FTM     C810022   7.602  -1.191   8.265 -0.2053  0.1080 -0.1465
   32FTM     C910023   7.467  -1.115   8.244  0.5906  0.0869 -0.5519
   32FTM    C1010024   7.466  -0.981   8.307 -0.0411 -0.4844  0.6797
   32FTM    C1110025   7.394  -1.476   8.118 -0.7028 -0.1751 -0.4481
   32FTM    C1210026   7.419  -1.453   7.968  0.2317 -0.7272  0.0105
   33FTM     S110027   7.141  -2.492   8.315  0.0052 -0.1158 -0.3995
   33FTM     C110028   6.990  -2.586   8.290 -0.0464 -0.0509 -0.3318
   33FTM     C210029   6.882  -2.503   8.296 -0.0240 -0.0434 -0.0503
   33FTM     C310030   6.910  -2.364   8.322  0.0335 -0.0865  0.1261
   33FTM     C410031   7.044  -2.341   8.334  0.0558 -0.1284 -0.0261
   33FTM     F110032   6.752  -2.547   8.280 -0.0542  0.0029  0.0651
   33FTM     C510033   6.983  -2.735   8.253  0.0793 -0.0565  0.1629
   33FTM     C610034   7.064  -2.849   8.315 -0.8482 -0.9224  0.1097
   33FTM     C710035   7.055  -2.850   8.471 -0.0425 -0.6860  0.7475
   33FTM     C810036   6.942  -2.949   8.501 -0.0486  0.4222 -0.3940
   33FTM     C910037   6.887  -2.975   8.638  0.0282 -0.4495  0.2672
   33FTM    C1010038   6.991  -3.012   8.744 -0.1123  0.7065  0.1136
   33FTM    C1110039   7.211  -2.834   8.263  0.0627 -0.3192 -0.5202
   33FTM    C1210040   7.302  -2.952   8.300  0.0602  0.3562  0.1038
   34TPM     C110041   7.252  -2.280   8.840  0.3935 -0.3090 -0.4744
   34TPM     C210042   7.330  -2.237   8.943  0.3710 -0.2148 -0.4969
   34TPM     C310043   7.352  -2.336   9.045  0.0627 -0.0150 -0.2308
   34TPM     C410044   7.291  -2.456   9.019 -0.1499  0.0431 -0.0051
   34TPM     S110045   7.201  -2.452   8.863  0.0240 -0.1513 -0.1122
   35BDD     C110046   7.208  -2.791   9.211  0.0748 -0.0477  0.0387
   35BDD     C210047   7.338  -2.762   9.244  0.0604 -0.0286  0.0782
   35BDD     C310048   7.386  -2.638   9.184  0.0715 -0.0396  0.0644
   35BDD     C410049   7.292  -2.575   9.107  0.0939 -0.0671  0.0143
   35BDD     S110050   7.137  -2.666   9.104  0.1026 -0.0808 -0.0188
   35BDD     C510051   7.422  -2.847   9.330  0.0364  0.0002  0.1299
   35BDD     C610052   7.523  -2.588   9.206  0.0596 -0.0228  0.1009
   35BDD     O110053   7.564  -2.481   9.155  0.0691 -0.0323  0.0889
   35BDD     O210054   7.381  -2.953   9.382  0.0269  0.0097  0.1421
   35BDD     C710055   7.607  -2.673   9.293  0.0353  0.0063  0.1526
   35BDD     C810056   7.559  -2.796   9.352  0.0242  0.0173  0.1667
   35BDD     C910057   7.653  -2.860   9.429  0.0018  0.0446  0.2165
   35BDD     S210058   7.808  -2.769   9.432 -0.0069  0.0584  0.2496
   35BDD    C1010059   7.737  -2.644   9.325  0.0211  0.0254  0.1922
   35BDD    C1110060   7.813  -2.511   9.328 -0.4651  0.1454  0.0227
   35BDD    C1210061   7.931  -2.476   9.232  0.4572  0.8818  0.7548
   35BDD    C1310062   7.886  -2.482   9.074  0.2215  0.6524 -0.1277
   35BDD    C1410063   7.982  -2.420   8.972 -0.0766  0.2319  0.0150
   35BDD    C1510064   7.940  -2.421   8.822  0.1915  0.4397  0.0905
   35BDD    C1610065   7.931  -2.559   8.758 -0.0287 -0.0732  0.4317
   35BDD    C1710066   8.067  -2.544   9.256  0.2876 -0.3447  0.3946
   35BDD    C1810067   8.122  -2.526   9.396 -0.1487  0.5067 -0.0982
   35BDD    C1910068   7.654  -2.972   9.526 -0.0650  0.2282 -0.1730
   35BDD    C2010069   7.644  -3.118   9.472  0.4519  0.0065 -0.0691
   35BDD    C2110070   7.748  -3.145   9.363  0.0658  0.3261 -0.0634
   35BDD    C2210071   7.890  -3.152   9.412 -0.0550  0.2699 -0.4309
   35BDD    C2310072   7.979  -3.191   9.298  0.1546 -0.8176  0.7285
   35BDD    C2410073   8.126  -3.182   9.335  0.2638 -0.7647  0.7179
   35BDD    C2510074   7.633  -3.233   9.581 -0.0656  0.1867  0.2861
   35BDD    C2610075   7.517  -3.228   9.682  0.7084 -0.1552  0.0828
   36TPM     C110076   7.113  -2.906   9.219 -0.0050  0.1809 -0.1216
   36TPM     C210077   7.018  -2.927   9.123 -0.0373  0.3910 -0.1345
   36TPM     C310078   6.941  -3.046   9.142 -0.1065  0.4070 -0.3085
   36TPM     C410079   6.976  -3.117   9.253 -0.1271  0.2095 -0.4277
   36TPM     S110080   7.111  -3.038   9.343 -0.0599 -0.0141 -0.3289
   37BDTP    C110081   6.664  -3.629   9.430  0.0314 -0.1442 -0.0045
   37BDTP    C210082   6.772  -3.628   9.523 -0.0249 -0.0467  0.0610
   37BDTP    C310083   6.870  -3.530   9.524 -0.0820  0.0104  0.0837
   37BDTP    C410084   6.862  -3.427   9.428 -0.0833 -0.0305  0.0401
   37BDTP    C510085   6.754  -3.428   9.335 -0.0271 -0.1281 -0.0257
   37BDTP    C610086   6.656  -3.526   9.335  0.0302 -0.1851 -0.0484
   37BDTP    C710087   6.951  -3.315   9.410 -0.1369  0.0144  0.0522
   37BDTP    C810088   6.917  -3.232   9.308 -0.1233 -0.0439 -0.0002
   37BDTP    S110089   6.765  -3.285   9.222 -0.0411 -0.1640 -0.0725
   37BDTP    C910090   6.574  -3.741   9.449  0.0849 -0.1892 -0.0169
   37BDTP   C1010091   6.609  -3.824   9.550  0.0715 -0.1309  0.0353
   37BDTP    S210092   6.760  -3.771   9.636 -0.0107 -0.0107  0.1079
   38FTM     S110093   7.009  -3.418   9.733  0.2238  0.2484  0.0445
   38FTM     C110094   7.158  -3.503   9.788  0.2217 -0.0326 -0.3730
   38FTM     C210095   7.182  -3.611   9.709 -0.2526 -0.1309 -0.3887
   38FTM     C310096   7.088  -3.633   9.603 -0.6343  0.0031 -0.0844
   38FTM     C410097   6.989  -3.540   9.601 -0.4460  0.2106  0.1727
   38FTM     F110098   7.290  -3.695   9.727 -0.3695 -0.3481 -0.6795
   38FTM     C510099   7.236  -3.467   9.913 -0.9201 -0.4415 -0.3131
   38FTM     C610100   7.217  -3.532  10.052  0.7911  0.0792  0.0026
   38FTM     C710101   7.298  -3.658  10.087  0.4379 -0.8634  0.5310
   38FTM     C810102   7.447  -3.648  10.115 -0.3479 -0.2249  0.3502
   38FTM     C910103   7.500  -3.532  10.212  0.0643  0.2947 -0.0345
   38FTM    C1010104   7.489  -3.583  10.355 -0.2040  0.0777 -0.4074
   38FTM    C1110105   7.076  -3.522  10.115 -0.1422  0.4383 -0.3070
   38FTM    C1210106   7.059  -3.550  10.268 -0.0133 -0.1111 -0.2131
   39FTM     S110107   6.593  -3.525   9.050  0.0718 -0.5722 -0.1638
   39FTM     C110108   6.422  -3.479   9.016  0.1910 -0.0506 -0.0725
   39FTM     C210109   6.353  -3.470   9.133  0.2615  0.0796 -0.0410
   39FTM     C310110   6.428  -3.497   9.253  0.2280 -0.2112 -0.0854
   39FTM     C410111   6.558  -3.528   9.227  0.1287 -0.5762 -0.1524
   39FTM     F110112   6.219  -3.436   9.139  0.3608  0.4699  0.0296
   39FTM     C510113   6.376  -3.438   8.878  0.4590 -0.4590 -0.1390
   39FTM     C610114   6.354  -3.282   8.848  0.0467  0.1998 -0.4402
   39FTM     C710115   6.280  -3.273   8.710 -0.0616 -0.1572 -0.4104
   39FTM     C810116   6.144  -3.341   8.697  0.1726 -0.5031  0.0953
   39FTM     C910117   6.091  -3.345   8.553 -0.4989 -0.4220  0.1259
   39FTM    C1010118   6.028  -3.223   8.499  0.0288 -0.1694  0.6833
   39FTM    C1110119   6.482  -3.190   8.850  0.3208  0.6497  0.1222
   39FTM    C1210120   6.586  -3.223   8.731 -0.1137  0.0578 -0.8671
   40TPM     C110121   6.534  -3.944   9.584 -0.0723  0.3662  0.2300
   40TPM     C210122   6.581  -4.072   9.590  0.1510  0.4387  0.0789
   40TPM     C310123   6.482  -4.167   9.634  0.2961  0.2031 -0.1023
   40TPM     C410124   6.361  -4.112   9.662  0.1833 -0.0490 -0.0895
   40TPM     S110125   6.361  -3.934   9.633 -0.1169 -0.0081  0.1545
   41BDD     C110126   6.001  -4.260   9.643  0.0848  0.1036 -0.0044
   41BDD     C210127   6.069  -4.344   9.726  0.0674  0.0896 -0.0041
   41BDD     C310128   6.207  -4.303   9.749  0.0743  0.0641  0.0002
   41BDD     C410129   6.241  -4.188   9.682  0.0969  0.0593  0.0030
   41BDD     S110130   6.103  -4.124   9.587  0.1112  0.0859  0.0005
   41BDD     C510131   6.011  -4.465   9.788  0.0436  0.0994 -0.0076
   41BDD     C610132   6.300  -4.379   9.835  0.0581  0.0460  0.0013
   41BDD     O110133   6.418  -4.344   9.854  0.0640  0.0238  0.0050
   41BDD     O210134   5.893  -4.500   9.769  0.0377  0.1214 -0.0112
   41BDD     C710135   6.241  -4.500   9.897  0.0345  0.0553 -0.0022
   41BDD     C810136   6.104  -4.541   9.875  0.0277  0.0809 -0.0065
   41BDD     C910137   6.070  -4.655   9.941  0.0050  0.0862 -0.0093
   41BDD     S210138   6.208  -4.720  10.036 -0.0093  0.0594 -0.0068
   41BDD    C1010139   6.310  -4.584   9.980  0.0170  0.0416 -0.0018
   41BDD    C1110140   6.448  -4.575  10.040  0.6020  0.0931 -0.0643
   41BDD    C1210141   6.576  -4.601   9.952  0.2011 -0.1336  0.0954
   41BDD    C1310142   6.707  -4.572  10.034  0.8119 -0.3929 -0.4598
   41BDD    C1410143   6.841  -4.560   9.961  0.6969  0.3065 -0.0057
   41BDD    C1510144   6.848  -4.447   9.860 -0.8718  0.0114 -0.1893
   41BDD    C1610145   6.969  -4.447   9.764 -0.4110  0.0953  0.3110
   41BDD    C1710146   6.582  -4.723   9.852 -0.5574  0.1386 -0.1587
   41BDD    C1810147   6.590  -4.868   9.900 -0.4344  0.1333 -0.2241
   41BDD    C1910148   5.947  -4.747   9.930 -0.0348  0.0565  0.5816
   41BDD    C2010149   5.943  -4.836   9.798 -0.7056 -0.1394 -0.2965
   41BDD    C2110150   6.075  -4.919   9.779  0.0309 -0.1960  0.0901
   41BDD    C2210151   6.094  -5.014   9.667 -0.3714 -0.2117  0.5449
   41BDD    C2310152   6.239  -5.066   9.664  0.5759  0.8415  0.5758
   41BDD    C2410153   6.259  -5.170   9.556  0.5448 -0.6233  0.9002
   41BDD    C2510154   5.811  -4.924   9.797 -0.0084 -0.1085 -0.3973
   41BDD    C2610155   5.677  -4.855   9.771  0.3961  0.5344 -0.6504
   42TPM     C110156   5.860  -4.248   9.592 -0.2186  0.1415 -0.3124
   42TPM     C210157   5.838  -4.160   9.490 -0.4040 -0.0070 -0.4015
   42TPM     C310158   5.706  -4.169   9.433 -0.4748 -0.1584 -0.2143
   42TPM     C410159   5.628  -4.264   9.492 -0.3436 -0.1253  0.0176
   42TPM     S110160   5.715  -4.350   9.624 -0.1185  0.1016  0.0175
   43BDTP    C110161   5.052  -4.431   9.319  0.0557  0.3071 -0.0293
   43BDTP    C210162   5.053  -4.462   9.458  0.1258  0.2271 -0.0477
   43BDTP    C310163   5.163  -4.437   9.539  0.1572  0.2049 -0.0827
   43BDTP    C410164   5.276  -4.378   9.481  0.1174  0.2644 -0.1006
   43BDTP    C510165   5.275  -4.347   9.342  0.0470  0.3444 -0.0823
   43BDTP    C610166   5.166  -4.372   9.261  0.0157  0.3667 -0.0473
   43BDTP    C710167   5.401  -4.342   9.546  0.1384  0.2558 -0.1368
   43BDTP    C810168   5.493  -4.286   9.463  0.0881  0.3246 -0.1466
   43BDTP    S110169   5.433  -4.271   9.291  0.0068  0.4100 -0.1109
   43BDTP    C910170   4.927  -4.467   9.254  0.0345  0.3157  0.0069
   43BDTP   C1010171   4.836  -4.522   9.337  0.0848  0.2469  0.0167
   43BDTP    S210172   4.895  -4.537   9.509  0.1662  0.1614 -0.0193
   44FTM     S110173   5.277  -4.538   9.784 -0.1933  0.5120  0.1456
   44FTM     C110174   5.187  -4.507   9.937 -0.3186  0.2864  0.1168
   44FTM     C210175   5.071  -4.442   9.909 -0.5194 -0.0840  0.0700
   44FTM     C310176   5.046  -4.412   9.772 -0.5865 -0.2118  0.0541
   44FTM     C410177   5.146  -4.456   9.691 -0.4320  0.0699  0.0899
   44FTM     F110178   4.980  -4.405  10.008 -0.6545 -0.3294  0.0388
   44FTM     C510179   5.232  -4.570  10.067  0.1382  0.0562 -0.4408
   44FTM     C610180   5.289  -4.712  10.074 -0.5893  0.2511  0.3644
   44FTM     C710181   5.440  -4.716  10.042  0.0870  0.3207 -0.7942
   44FTM     C810182   5.523  -4.657  10.153 -0.2738 -0.7146 -0.1256
   44FTM     C910183   5.657  -4.602  10.113  0.1257  0.0127 -0.2673
   44FTM    C1010184   5.661  -4.490  10.015  0.0836 -0.6561 -0.3214
   44FTM    C1110185   5.214  -4.829  10.019  0.3522  0.4879 -0.0161
   44FTM    C1210186   5.079  -4.860  10.093  0.2714 -0.2419 -0.5530
   45FTM     S110187   5.063  -4.209   9.049 -0.3158  0.1166 -0.2343
   45FTM     C110188   5.139  -4.232   8.887  0.0692  0.2901 -0.0801
   45FTM     C210189   5.236  -4.327   8.895  0.3234  0.5620  0.1326
   45FTM     C310190   5.257  -4.386   9.024  0.2364  0.6502  0.1869
   45FTM     C410191   5.172  -4.335   9.118 -0.0953  0.4386  0.0107
   45FTM     F110192   5.312  -4.366   8.786  0.6502  0.7474  0.2904
   45FTM     C510193   5.096  -4.155   8.769 -0.5008 -0.8599  0.9806
   45FTM     C610194   4.974  -4.210   8.684  0.3916 -0.7979 -0.2889
   45FTM     C710195   4.972  -4.355   8.635 -0.4845 -0.1359  0.0050
   45FTM     C810196   5.080  -4.396   8.538 -0.4763  0.2681  0.0651
   45FTM     C910197   5.081  -4.544   8.502 -0.4958 -0.1180 -0.1472
   45FTM    C1010198   4.955  -4.596   8.441 -0.0164 -0.1595  0.9805
   45FTM    C1110199   4.923  -4.116   8.576  0.0879 -0.2882  0.6950
   45FTM    C1210200   4.887  -3.974   8.613 -0.1679 -0.2163  0.8706
   46TPM     C110201   4.714  -4.589   9.295  0.1749  0.1611 -0.0766
   46TPM     C210202   4.585  -4.581   9.338  0.1653  0.3797 -0.1438
   46TPM     C310203   4.494  -4.664   9.264  0.0650  0.5237 -0.1822
   46TPM     C410204   4.553  -4.736   9.165 -0.0023  0.4145 -0.1442
   46TPM     S110205   4.730  -4.704   9.156  0.0567  0.1196 -0.0562
   47BDD     C110206   4.454  -5.082   9.001 -0.2238 -0.0807 -0.1163
   47BDD     C210207   4.350  -4.999   8.971 -0.2080 -0.0275 -0.0257
   47BDD     C310208   4.365  -4.865   9.025 -0.0823 -0.0286 -0.0584
   47BDD     C410209   4.481  -4.848   9.096 -0.0039 -0.0824 -0.1729
   47BDD     S110210   4.579  -4.998   9.100 -0.0824 -0.1354 -0.2480
   47BDD     C510211   4.232  -5.040   8.892 -0.3078  0.0260  0.0939
   47BDD     C610212   4.264  -4.759   9.005 -0.0442  0.0237  0.0255
   47BDD     O110213   4.277  -4.644   9.051  0.0643  0.0228 -0.0024
   47BDD     O210214   4.219  -5.155   8.845 -0.4164  0.0268  0.1218
   47BDD     C710215   4.147  -4.800   8.925 -0.1442  0.0774  0.1452
   47BDD     C810216   4.131  -4.934   8.871 -0.2700  0.0783  0.1779
   47BDD     C910217   4.015  -4.951   8.801 -0.3484  0.1323  0.2925
   47BDD     S210218   3.918  -4.801   8.797 -0.2700  0.1853  0.3677
   47BDD    C1010219   4.042  -4.717   8.895 -0.1286  0.1304  0.2358
   47BDD    C1110220   4.012  -4.575   8.927 -0.4613  0.5927  0.9141
   47BDD    C1210221   3.879  -4.558   8.984  0.2704 -0.2608 -0.6079
   47BDD    C1310222   3.869  -4.627   9.125  0.6141 -0.5306 -0.0724
   47BDD    C1410223   3.944  -4.562   9.242 -0.7087  0.1787  1.0021
   47BDD    C1510224   3.898  -4.614   9.376 -0.0043  0.0185  0.2940
   47BDD    C1610225   3.944  -4.515   9.483  0.0977  0.7458 -0.2348
   47BDD    C1710226   3.848  -4.407   8.961 -0.7336 -0.0753  0.2027
   47BDD    C1810227   3.712  -4.354   9.001 -0.8429 -0.2716  0.1052
   47BDD    C1910228   3.942  -5.065   8.731  0.1222  0.2289 -0.0958
   47BDD    C2010229   3.992  -5.115   8.594 -0.3137 -0.2366  0.7161
   47BDD    C2110230   3.944  -5.253   8.554 -0.0469 -0.5736  0.1985
   47BDD    C2210231   3.953  -5.375   8.637  0.2935  0.1396  0.6089
   47BDD    C2310232   4.088  -5.405   8.692 -0.8374 -0.1914  0.2019
   47BDD    C2410233   4.091  -5.507   8.797  1.0658 -0.1268 -0.9545
   47BDD    C2510234   3.984  -5.007   8.488  0.0878 -0.5512 -0.5437
   47BDD    C2610235   4.045  -5.025   8.353 -0.3716 -0.5992  0.2741
   48TPM     C110236   4.493  -5.228   8.985 -0.1598  0.3207  0.2219
   48TPM     C210237   4.404  -5.331   8.991 -0.2520  0.3881  0.0484
   48TPM     C310238   4.467  -5.461   8.996 -0.3660  0.3273 -0.0980
   48TPM     C410239   4.603  -5.456   8.993 -0.3605  0.2137 -0.0355
   48TPM     S110240   4.663  -5.287   8.985 -0.2101  0.1742  0.2143
   49BDTP    C110241   5.036  -5.913   9.036  0.0992  0.0674  0.2532
   49BDTP    C210242   4.918  -5.976   9.086  0.0792 -0.0443  0.0653
   49BDTP    C310243   4.796  -5.911   9.093  0.0259 -0.1317 -0.0458
   49BDTP    C410244   4.789  -5.778   9.049 -0.0094 -0.1079  0.0319
   49BDTP    C510245   4.907  -5.715   9.000  0.0107  0.0039  0.2201
   49BDTP    C610246   5.029  -5.780   8.992  0.0640  0.0912  0.3308
   49BDTP    C710247   4.674  -5.690   9.047 -0.0660 -0.1844 -0.0559
   49BDTP    C810248   4.699  -5.566   8.999 -0.0893 -0.1361  0.0558
   49BDTP    S110249   4.872  -5.543   8.950 -0.0426  0.0129  0.2878
   49BDTP    C910250   5.152  -6.001   9.038  0.1558  0.1439  0.3409
   49BDTP   C1010251   5.127  -6.125   9.086  0.1789  0.0957  0.2294
   49BDTP    S210252   4.953  -6.148   9.136  0.1323 -0.0534 -0.0027
   50FTM     S110253   4.574  -5.886   9.276  0.2317 -0.1212  0.2659
   50FTM     C110254   4.452  -6.018   9.265  0.2931 -0.1523 -0.0744
   50FTM     C210255   4.492  -6.112   9.175  0.4462 -0.0164 -0.1478
   50FTM     C310256   4.618  -6.087   9.111  0.5233  0.1170  0.0510
   50FTM     C410257   4.676  -5.971   9.153  0.4260  0.0821  0.2843
   50FTM     F110258   4.418  -6.225   9.146  0.5257 -0.0047 -0.3998
   50FTM     C510259   4.338  -6.014   9.359  0.7359 -0.3202  0.7813
   50FTM     C610260   4.337  -6.101   9.491  0.0184  0.1814 -0.1468
   50FTM     C710261   4.215  -6.093   9.582  0.1470  0.1267 -0.4641
   50FTM     C810262   4.071  -6.107   9.526 -0.0028 -0.5468  0.2925
   50FTM     C910263   3.963  -6.097   9.632 -0.4897 -0.6716 -0.0372
   50FTM    C1010264   3.820  -6.097   9.574  0.1248 -0.2103 -0.1507
   50FTM    C1110265   4.472  -6.097   9.566  0.4669  0.4550  0.1363
   50FTM    C1210266   4.495  -6.188   9.694 -0.0193  0.0233 -0.0395
   51FTM     S110267   5.283  -5.683   9.061  0.3835 -0.0861  0.0959
   51FTM     C110268   5.378  -5.609   8.927  0.1886  0.1723  0.0969
   51FTM     C210269   5.305  -5.610   8.812  0.0843  0.2410  0.1631
   51FTM     C310270   5.174  -5.666   8.821  0.1478  0.1003  0.2153
   51FTM     C410271   5.145  -5.710   8.947  0.3060 -0.0822  0.1885
   51FTM     F110272   5.353  -5.560   8.692 -0.0752  0.4352  0.1798
   51FTM     C510273   5.506  -5.545   8.965 -0.2183  0.2716 -0.4333
   51FTM     C610274   5.612  -5.497   8.857  0.5143 -0.3098  0.7286
   51FTM     C710275   5.729  -5.417   8.916 -0.1479  0.3681  0.0538
   51FTM     C810276   5.708  -5.287   8.994 -0.1617  0.1509 -0.3003
   51FTM     C910277   5.647  -5.180   8.905  0.0259  0.0071 -0.0890
   51FTM    C1010278   5.617  -5.048   8.960  0.4145  0.2754 -0.0282
   51FTM    C1110279   5.656  -5.594   8.741 -0.3744 -0.1280  0.4656
   51FTM    C1210280   5.732  -5.725   8.774 -0.3017 -0.5281 -0.1628
   52TPM     C110281   5.220  -6.229   9.119 -0.3293 -0.4800 -0.4382
   52TPM     C210282   5.331  -6.276   9.055 -0.0676 -0.2559 -0.1547
   52TPM     C310283   5.387  -6.394   9.115  0.4051  0.2223  0.3719
   52TPM     C410284   5.319  -6.438   9.224  0.5041  0.3628  0.4902
   52TPM     S110285   5.177  -6.332   9.261  0.0040 -0.1015 -0.0586
   53BDD     C110286   5.258  -6.782   9.405 -0.0347  0.1335 -0.0735
   53BDD     C210287   5.391  -6.782   9.374 -0.0269  0.1127 -0.0410
   53BDD     C310288   5.434  -6.663   9.303  0.0086  0.1045 -0.0334
   53BDD     C410289   5.333  -6.573   9.281  0.0276  0.1192 -0.0602
   53BDD     S110290   5.177  -6.633   9.347  0.0024  0.1445 -0.0973
   53BDD     C510291   5.484  -6.892   9.409 -0.0520  0.0994 -0.0155
   53BDD     C610292   5.574  -6.641   9.260  0.0223  0.0823  0.0005
   53BDD     O110293   5.611  -6.539   9.199  0.0529  0.0753  0.0072
   53BDD     O210294   5.447  -6.994   9.470 -0.0826  0.1064 -0.0219
   53BDD     C710295   5.667  -6.751   9.295 -0.0029  0.0690  0.0260
   53BDD     C810296   5.624  -6.870   9.366 -0.0384  0.0772  0.0184
   53BDD     C910297   5.725  -6.960   9.388 -0.0571  0.0625  0.0455
   53BDD     S210298   5.881  -6.900   9.322 -0.0320  0.0372  0.0826
   53BDD    C1010299   5.800  -6.751   9.264  0.0049  0.0482  0.0589
   53BDD    C1110300   5.899  -6.666   9.186 -0.1302  0.1929 -0.4958
   53BDD    C1210301   6.017  -6.609   9.265 -0.4813 -1.2406  0.3454
   53BDD    C1310302   5.991  -6.526   9.393 -0.2540 -0.1840 -0.4534
   53BDD    C1410303   5.882  -6.412   9.391 -0.2715 -0.0850  0.5198
   53BDD    C1510304   5.931  -6.294   9.299 -0.0691 -0.1861  0.7469
   53BDD    C1610305   5.836  -6.178   9.281  0.2133 -0.0279 -0.2971
   53BDD    C1710306   6.145  -6.688   9.269  0.3959 -0.5375 -0.0020
   53BDD    C1810307   6.208  -6.747   9.136  0.5211  0.2236 -0.1020
   53BDD    C1910308   5.723  -7.111   9.428  0.3370 -0.2998 -0.3301
   53BDD    C2010309   5.774  -7.145   9.567 -0.3759 -0.2776  0.3481
   53BDD    C2110310   5.828  -7.291   9.554  0.6999 -1.0390  0.6434
   53BDD    C2210311   5.900  -7.364   9.666  0.6573 -0.3474 -0.2839
   53BDD    C2310312   5.952  -7.493   9.621  0.8016  0.2763 -0.1157
   53BDD    C2410313   6.050  -7.555   9.710  0.0555 -0.9502 -0.0933
   53BDD    C2510314   5.689  -7.108   9.687  0.3211  0.1233 -0.2687
   53BDD    C2610315   5.547  -7.153   9.726  0.2790  0.4745 -0.2838
   54TPM     C110316   5.167  -6.868   9.481 -0.0395 -0.0769 -0.1607
   54TPM     C210317   5.036  -6.879   9.447 -0.0277 -0.0859 -0.2029
   54TPM     C310318   4.962  -6.972   9.529 -0.0892  0.0435 -0.1104
   54TPM     C410319   5.038  -7.033   9.625 -0.1478  0.1511  0.0030
   54TPM     S110320   5.209  -6.976   9.620 -0.1297  0.0970  0.0013
   55BDTP    C110321   4.812  -7.411  10.075  0.1668  0.1761  0.0267
   55BDTP    C210322   4.946  -7.458  10.061  0.1659  0.1951 -0.0451
   55BDTP    C310323   5.035  -7.404   9.969  0.0888  0.1642 -0.1387
   55BDTP    C410324   4.990  -7.298   9.888  0.0089  0.1120 -0.1627
   55BDTP    C510325   4.856  -7.251   9.902  0.0098  0.0930 -0.0909
   55BDTP    C610326   4.767  -7.305   9.994  0.0870  0.1239  0.0027
   55BDTP    C710327   5.064  -7.226   9.786 -0.0791  0.0727 -0.2547
   55BDTP    C810328   4.993  -7.129   9.724 -0.1432  0.0256 -0.2555
   55BDTP    S110329   4.823  -7.114   9.786 -0.1014  0.0246 -0.1398
   55BDTP    C910330   4.738  -7.483  10.177  0.2548  0.2155  0.1187
   55BDTP   C1010331   4.809  -7.580  10.239  0.3190  0.2625  0.1195
   55BDTP    S210332   4.979  -7.595  10.177  0.2771  0.2636  0.0037
   56FTM     S110333   5.321  -7.389   9.917 -0.1262  0.1275 -0.1982
   56FTM     C110334   5.398  -7.538   9.851 -0.0184  0.1105 -0.0359
   56FTM     C210335   5.306  -7.638   9.841  0.0899 -0.0160  0.2230
   56FTM     C310336   5.173  -7.605   9.884  0.0954 -0.1052  0.3090
   56FTM     C410337   5.163  -7.476   9.927 -0.0121 -0.0451  0.1093
   56FTM     F110338   5.336  -7.764   9.793  0.1903 -0.0584  0.3976
   56FTM     C510339   5.548  -7.534   9.827 -0.3693  0.1703 -0.2318
   56FTM     C610340   5.646  -7.652   9.783 -0.4037  0.0053  0.6990
   56FTM     C710341   5.671  -7.759   9.892  0.3471 -0.3174  0.1367
   56FTM     C810342   5.708  -7.724  10.031 -0.5158 -0.2464 -0.0222
   56FTM     C910343   5.834  -7.635  10.044  0.0949  0.1886  0.4305
   56FTM    C1010344   5.879  -7.598  10.188  0.2649  0.2543  0.3803
   56FTM    C1110345   5.626  -7.723   9.647 -0.1500  0.2885 -0.7049
   56FTM    C1210346   5.627  -7.636   9.521  0.6518 -0.3000 -0.9159
   57FTM     S110347   4.491  -7.358   9.958 -0.0257 -0.1346  0.0956
   57FTM     C110348   4.372  -7.233  10.010  0.0275 -0.1056  0.1476
   57FTM     C210349   4.437  -7.125  10.059  0.0776 -0.0935  0.0554
   57FTM     C310350   4.581  -7.132  10.060  0.0774 -0.1060 -0.0586
   57FTM     C410351   4.626  -7.250  10.009  0.0259 -0.1281 -0.0534
   57FTM     F110352   4.372  -7.012  10.107  0.1264 -0.0706  0.0686
   57FTM     C510353   4.223  -7.245   9.977  0.0146 -0.0816  1.0753
   57FTM     C610354   4.182  -7.346   9.859 -0.0939 -0.4015  0.3441
   57FTM     C710355   4.034  -7.363   9.827 -0.2248 -0.1560  0.0020
   57FTM     C810356   3.966  -7.444   9.937  0.3048  0.0997 -0.6803
   57FTM     C910357   3.821  -7.467   9.926  0.6921 -0.5965 -0.2153
   57FTM    C1010358   3.786  -7.527  10.061  0.1961  0.2004 -0.6755
   57FTM    C1110359   4.266  -7.357   9.727  0.2991  0.0352 -0.1178
   57FTM    C1210360   4.291  -7.232   9.641  0.1449  0.4141 -0.2190
   58TPM     C110361   4.753  -7.653  10.355  0.3049 -0.5538  0.0405
   58TPM     C210362   4.806  -7.748  10.437  0.0683 -0.4065  0.3690
   58TPM     C310363   4.722  -7.781  10.549 -0.1248  0.0108  0.3504
   58TPM     C410364   4.605  -7.711  10.553 -0.0356  0.1815  0.0078
   58TPM     S110365   4.592  -7.597  10.414  0.3021 -0.1741 -0.3206
   59BDD     C110366   4.414  -7.846  10.870 -0.2240  0.0857  0.0871
   59BDD     C210367   4.346  -7.733  10.833 -0.1729  0.1003  0.0358
   59BDD     C310368   4.401  -7.668  10.715 -0.0504  0.1080  0.0970
   59BDD     C410369   4.510  -7.732  10.664 -0.0100  0.0992  0.1941
   59BDD     S110370   4.553  -7.878  10.760 -0.1225  0.0806  0.2155
   59BDD     C510371   4.227  -7.682  10.905 -0.2345  0.1077 -0.0714
   59BDD     C610372   4.342  -7.545  10.658  0.0222  0.1239  0.0570
   59BDD     O110373   4.390  -7.489  10.557  0.1277  0.1305  0.1097
   59BDD     O210374   4.180  -7.738  11.006 -0.3400  0.1010 -0.1241
   59BDD     C710375   4.224  -7.494  10.730 -0.0395  0.1312 -0.0502
   59BDD     C810376   4.169  -7.559  10.847 -0.1620  0.1236 -0.1114
   59BDD     C910377   4.059  -7.495  10.898 -0.2023  0.1324 -0.2085
   59BDD     S210378   4.017  -7.349  10.803 -0.0898  0.1509 -0.2299
   59BDD    C1010379   4.155  -7.381  10.693  0.0117  0.1459 -0.1015
   59BDD    C1110380   4.164  -7.274  10.589  0.2438  0.2621 -0.2585
   59BDD    C1210381   4.060  -7.248  10.481  0.5020  0.3376  0.1194
   59BDD    C1310382   4.113  -7.136  10.391 -0.4350  0.5344 -0.6501
   59BDD    C1410383   4.026  -7.089  10.280  0.1273  0.0650 -0.0479
   59BDD    C1510384   4.080  -6.970  10.199 -0.0668  0.0408  0.1136
   59BDD    C1610385   3.970  -6.892  10.127 -0.2704 -0.6773  0.6419
   59BDD    C1710386   4.013  -7.373  10.406 -0.6329  0.2279  0.0679
   59BDD    C1810387   4.119  -7.455  10.321 -0.9127  0.0406 -0.3012
   59BDD    C1910388   3.981  -7.521  11.031 -0.8384 -0.4685 -0.0308
   59BDD    C2010389   3.952  -7.394  11.122 -0.3221  0.1697  0.8130
   59BDD    C2110390   3.844  -7.415  11.222  0.4888 -0.0288  0.8405
   59BDD    C2210391   3.710  -7.466  11.175  0.2426 -0.5116  0.8486
   59BDD    C2310392   3.606  -7.479  11.281  0.3318  0.5917 -0.2144
   59BDD    C2410393   3.477  -7.537  11.226 -0.0078  0.2762  0.1386
   59BDD    C2510394   4.085  -7.333  11.171 -0.1701  0.3652  0.7375
   59BDD    C2610395   4.056  -7.187  11.203 -0.1046 -0.2166  0.0867
   60TPM     C110396   4.403  -7.959  10.970  0.1604 -0.1837  0.1121
   60TPM     C210397   4.493  -8.061  10.975  0.1822 -0.1659  0.0841
   60TPM     C310398   4.465  -8.158  11.078  0.1451 -0.2541 -0.0084
   60TPM     C410399   4.354  -8.129  11.151  0.0949 -0.3389 -0.0509
   60TPM     S110400   4.275  -7.977  11.095  0.0907 -0.3140  0.0231
    1BDTP    C110401   3.847   3.738   6.494  0.0511 -0.1419 -0.0474
    1BDTP    C210402   3.820   3.876   6.471  0.1075 -0.1205  0.0142
    1BDTP    C310403   3.859   3.975   6.560  0.1047 -0.1801  0.0826
    1BDTP    C410404   3.927   3.938   6.677  0.0437 -0.2650  0.0910
    1BDTP    C510405   3.954   3.799   6.700 -0.0126 -0.2865  0.0293
    1BDTP    C610406   3.916   3.700   6.611 -0.0100 -0.2268 -0.0390
    1BDTP    C710407   3.976   4.023   6.783  0.0290 -0.3377  0.1565
    1BDTP    C810408   4.038   3.956   6.883 -0.0348 -0.4119  0.1471
    1BDTP    S110409   4.043   3.776   6.857 -0.0852 -0.3998  0.0540
    1BDTP    C910410   3.798   3.652   6.388  0.0659 -0.0691 -0.1130
    1BDTP   C1010411   3.736   3.719   6.288  0.1298  0.0049 -0.1036
    1BDTP    S210412   3.731   3.899   6.313  0.1802 -0.0071 -0.0105
    2FTM     S110413   3.920   4.249   6.559 -0.2345  0.0190  0.0570
    2FTM     C110414   3.782   4.365   6.559 -0.2938 -0.0479 -0.3738
    2FTM     C210415   3.665   4.298   6.549 -0.2396 -0.1153 -0.5765
    2FTM     C310416   3.674   4.155   6.542 -0.1509 -0.1189 -0.4133
    2FTM     C410417   3.803   4.112   6.546 -0.1366 -0.0521 -0.0743
    2FTM     F110418   3.541   4.362   6.547 -0.2673 -0.1779 -0.9218
    2FTM     C510419   3.805   4.517   6.561 -0.7016 -0.1587 -0.1320
    2FTM     C610420   3.894   4.597   6.465 -0.9538  0.1523  0.4279
    2FTM     C710421   3.844   4.619   6.324  0.2296 -0.4157 -0.5745
    2FTM     C810422   3.736   4.721   6.308  0.8400 -0.3139 -0.0212
    2FTM     C910423   3.781   4.858   6.318 -0.0676 -0.7899 -0.2425
    2FTM    C1010424   3.664   4.965   6.310  0.2236  0.1522 -0.1237
    2FTM    C1110425   4.041   4.553   6.463 -0.0503  0.0870  0.2624
    2FTM    C1210426   4.144   4.631   6.384  0.9593 -0.1276  0.2844
    3FTM     S110427   3.797   3.435   6.628  0.3208 -0.1816 -0.2007
    3FTM     C110428   3.903   3.312   6.706  0.0430  0.1952  0.8078
    3FTM     C210429   4.023   3.368   6.739 -0.3264  0.5356  1.6420
    3FTM     C310430   4.039   3.507   6.706 -0.4138  0.5243  1.5498
    3FTM     C410431   3.928   3.559   6.646 -0.1011  0.1635  0.6146
    3FTM     F110432   4.125   3.297   6.800 -0.6073  0.8776  2.5387
    3FTM     C510433   3.864   3.166   6.719 -0.1292  0.2585  0.2444
    3FTM     C610434   3.818   3.082   6.601  0.1007 -0.1817 -0.0166
    3FTM     C710435   3.770   2.941   6.644 -0.5464 -0.2904 -0.1216
    3FTM     C810436   3.625   2.932   6.696  0.1711  0.0188 -0.1675
    3FTM     C910437   3.518   2.959   6.595 -0.1697 -0.1798 -0.5812
    3FTM    C1010438   3.389   3.024   6.645 -0.4806 -0.3159 -0.2572
    3FTM    C1110439   3.913   3.088   6.480 -0.1143  0.4003  0.4080
    3FTM    C1210440   3.871   3.017   6.350  0.2908 -0.3964 -0.1579
    4TPM     C110441   3.663   3.655   6.181 -0.3225  0.0453 -0.0947
    4TPM     C210442   3.560   3.693   6.100 -0.0708 -0.0667 -0.4750
    4TPM     C310443   3.520   3.593   6.005  0.2918 -0.1655 -0.5261
    4TPM     C410444   3.593   3.478   6.013  0.3165 -0.1288 -0.1847
    4TPM     S110445   3.718   3.487   6.142 -0.1197  0.0347  0.2310
    5BDD     C110446   3.509   3.104   5.936  0.0283  0.2449  0.1117
    5BDD     C210447   3.462   3.172   5.827  0.0569  0.1996  0.0708
    5BDD     C310448   3.484   3.316   5.836  0.0528  0.2035  0.0178
    5BDD     C410449   3.546   3.354   5.951  0.0210  0.2516  0.0187
    5BDD     S110450   3.583   3.214   6.056 -0.0058  0.2955  0.0864
    5BDD     C510451   3.396   3.108   5.711  0.0891  0.1511  0.0789
    5BDD     C610452   3.441   3.409   5.729  0.0803  0.1592 -0.0325
    5BDD     O110453   3.460   3.533   5.737  0.0768  0.1626 -0.0782
    5BDD     O210454   3.378   2.985   5.704  0.0926  0.1477  0.1247
    5BDD     C710455   3.375   3.345   5.614  0.1126  0.1107 -0.0242
    5BDD     C810456   3.354   3.202   5.605  0.1168  0.1069  0.0290
    5BDD     C910457   3.291   3.163   5.490  0.1486  0.0588  0.0277
    5BDD     S210458   3.255   3.304   5.384  0.1755  0.0149 -0.0400
    5BDD    C1010459   3.329   3.414   5.505  0.1413  0.0656 -0.0652
    5BDD    C1110460   3.295   3.563   5.485 -0.5099 -0.4088 -0.1002
    5BDD    C1210461   3.163   3.625   5.552  0.3898  0.5406  0.5934
    5BDD    C1310462   3.162   3.609   5.706  0.1536 -0.8235  0.6239
    5BDD    C1410463   3.052   3.686   5.781  0.4841 -0.2699 -0.1063
    5BDD    C1510464   3.072   3.691   5.932  0.6655  0.5934 -0.3122
    5BDD    C1610465   3.083   3.558   6.002  0.4008 -0.2728 -0.2979
    5BDD    C1710466   3.027   3.604   5.469 -0.2936 -0.7379 -0.1672
    5BDD    C1810467   2.997   3.710   5.361 -0.7070 -0.1268  0.0944
    5BDD    C1910468   3.256   3.026   5.434  0.1057 -0.4596  0.0871
    5BDD    C2010469   3.347   2.984   5.309  0.3920  0.1038  0.3776
    5BDD    C2110470   3.503   2.996   5.337 -0.2089  0.4283 -0.0929
    5BDD    C2210471   3.596   2.986   5.221 -0.1991 -0.8356  0.4953
    5BDD    C2310472   3.741   2.953   5.251  0.2739 -0.9394  0.0119
    5BDD    C2410473   3.835   2.955   5.137  0.9372  0.4680 -0.0093
    5BDD    C2510474   3.304   2.854   5.240  0.2086  0.5148 -0.4834
    5BDD    C2610475   3.159   2.846   5.204  0.5557 -0.1893 -0.2342
    6TPM     C110476   3.514   2.965   5.982 -0.1087 -0.5100  0.0229
    6TPM     C210477   3.411   2.877   5.967 -0.3374 -0.3644  0.6765
    6TPM     C310478   3.429   2.754   6.040 -0.3432 -0.1400  1.0593
    6TPM     C410479   3.545   2.748   6.111 -0.1190 -0.1146  0.6975
    6TPM     S110480   3.642   2.899   6.090  0.1189 -0.3741 -0.1615
    7BDTP    C110481   3.739   2.192   6.332 -0.0370  0.0398  0.1886
    7BDTP    C210482   3.857   2.272   6.344  0.0275 -0.0300  0.0199
    7BDTP    C310483   3.861   2.405   6.306  0.0891 -0.0686 -0.1086
    7BDTP    C410484   3.744   2.463   6.253  0.0871 -0.0370 -0.0691
    7BDTP    C510485   3.626   2.383   6.242  0.0225  0.0328  0.0997
    7BDTP    C610486   3.622   2.250   6.280 -0.0390  0.0714  0.2282
    7BDTP    C710487   3.724   2.599   6.207  0.1440 -0.0666 -0.1810
    7BDTP    C810488   3.599   2.625   6.162  0.1256 -0.0229 -0.1051
    7BDTP    S110489   3.489   2.481   6.172  0.0335  0.0618  0.1184
    7BDTP    C910490   3.759   2.056   6.379 -0.0940  0.0694  0.3005
    7BDTP   C1010491   3.884   2.030   6.424 -0.0756  0.0257  0.2247
    7BDTP    S210492   3.994   2.174   6.414  0.0165 -0.0590  0.0013
    8FTM     S110493   4.067   2.486   6.489  0.2027  0.2478  0.1257
    8FTM     C110494   4.195   2.593   6.422  0.3054 -0.1030 -0.2502
    8FTM     C210495   4.171   2.619   6.291  0.2019 -0.3493 -0.2803
    8FTM     C310496   4.054   2.558   6.235  0.0407 -0.2817 -0.0190
    8FTM     C410497   3.986   2.484   6.327  0.0197  0.0263  0.2190
    8FTM     F110498   4.254   2.699   6.213  0.2475 -0.6504 -0.5460
    8FTM     C510499   4.297   2.660   6.507  0.0723 -0.2731 -0.0950
    8FTM     C610500   4.442   2.616   6.501 -0.3190  0.2204  0.0292
    8FTM     C710501   4.469   2.470   6.538 -0.5136  0.0358  0.2645
    8FTM     C810502   4.434   2.360   6.434  0.3211 -0.5907 -0.6806
    8FTM     C910503   4.427   2.218   6.471  0.3640 -0.2045 -0.8806
    8FTM    C1010504   4.391   2.124   6.362  0.1689  0.3844  0.1550
    8FTM    C1110505   4.531   2.716   6.568 -0.6255 -0.0862 -0.0023
    8FTM    C1210506   4.677   2.705   6.526 -0.6205  0.1956  0.4025
    9FTM     S110507   3.400   2.118   6.414 -0.2599  0.2558 -0.0092
    9FTM     C110508   3.272   2.051   6.306  0.1275 -0.4652 -0.0298
    9FTM     C210509   3.304   2.075   6.176  0.4150 -1.0171 -0.0703
    9FTM     C310510   3.426   2.146   6.153  0.3530 -0.9153 -0.0876
    9FTM     C410511   3.490   2.177   6.269  0.0068 -0.2644 -0.0593
    9FTM     F110512   3.224   2.035   6.070  0.7512 -1.6470 -0.0942
    9FTM     C510513   3.160   1.961   6.363 -0.3445 -0.3277 -0.0555
    9FTM     C610514   3.052   1.886   6.287 -0.5392 -0.2957 -0.2767
    9FTM     C710515   2.944   1.963   6.210 -0.0014 -0.1041 -0.1748
    9FTM     C810516   2.854   2.065   6.277  0.1985 -0.0273  0.0016
    9FTM     C910517   2.773   2.143   6.174 -0.5013 -0.4315  0.5653
    9FTM    C1010518   2.658   2.069   6.108 -0.5034  0.3627  0.2192
    9FTM    C1110519   3.076   1.752   6.216  0.3477  0.1767  0.0310
    9FTM    C1210520   3.167   1.648   6.280  0.2544  0.1592 -0.2933
   10TPM     C110521   3.943   1.901   6.426 -0.4714  0.2453  0.1873
   10TPM     C210522   4.073   1.871   6.453 -0.4543  0.4717  0.3576
   10TPM     C310523   4.105   1.731   6.437 -0.1578  0.5493  0.2651
   10TPM     C410524   4.000   1.655   6.398  0.0512  0.3820  0.0242
   10TPM     S110525   3.850   1.754   6.377 -0.1115  0.1115 -0.1056
   11BDD     C110526   4.167   1.308   6.306  0.0016  0.2878 -0.2697
   11BDD     C210527   4.052   1.310   6.232 -0.0517  0.2081 -0.1910
   11BDD     C310528   3.976   1.433   6.248 -0.1281  0.1532 -0.1349
   11BDD     C410529   4.033   1.521   6.335 -0.1320  0.1918 -0.1719
   11BDD     S110530   4.187   1.458   6.402 -0.0401  0.2995 -0.2794
   11BDD     C510531   4.009   1.200   6.143 -0.0343  0.1796 -0.1643
   11BDD     C610532   3.849   1.457   6.177 -0.1945  0.0645 -0.0470
   11BDD     O110533   3.783   1.562   6.191 -0.2602  0.0171  0.0014
   11BDD     O210534   4.075   1.095   6.129  0.0315  0.2269 -0.2127
   11BDD     C710535   3.805   1.347   6.088 -0.1770  0.0359 -0.0201
   11BDD     C810536   3.882   1.225   6.072 -0.1007  0.0908 -0.0761
   11BDD     C910537   3.824   1.136   5.985 -0.0969  0.0522 -0.0395
   11BDD     S210538   3.670   1.199   5.918 -0.1886 -0.0555  0.0682
   11BDD    C1010539   3.690   1.350   6.014 -0.2303 -0.0437  0.0584
   11BDD    C1110540   3.579   1.447   5.995 -0.0693 -0.2623 -0.0204
   11BDD    C1210541   3.585   1.542   5.873 -0.3682 -0.1169 -0.4239
   11BDD    C1310542   3.632   1.480   5.739  0.0911  0.7746  0.1197
   11BDD    C1410543   3.579   1.542   5.612  0.0514  0.5747  0.4187
   11BDD    C1510544   3.425   1.546   5.596 -0.4693 -0.0894  0.3011
   11BDD    C1610545   3.368   1.647   5.499 -0.0593  0.4378 -0.4625
   11BDD    C1710546   3.639   1.679   5.895 -0.5580 -0.7295  0.4425
   11BDD    C1810547   3.578   1.760   6.007 -0.2632 -0.0236 -1.0516
   11BDD    C1910548   3.860   1.000   5.922  0.6088  0.3318 -0.3398
   11BDD    C2010549   3.824   0.871   5.995  0.0670 -0.6940 -0.3721
   11BDD    C2110550   3.890   0.746   5.947 -0.2171  0.0077  0.2853
   11BDD    C2210551   4.047   0.732   5.952  0.6748  0.8016  0.6978
   11BDD    C2310552   4.117   0.616   5.874  0.5509 -0.3116 -0.2788
   11BDD    C2410553   4.264   0.618   5.884 -0.2655 -0.1010 -0.1607
   11BDD    C2510554   3.673   0.856   6.019 -0.1276  0.0491 -0.4500
   11BDD    C2610555   3.574   0.822   5.913 -0.1646  0.4084 -0.1671
   12TPM     C110556   4.284   1.221   6.320  0.2308  0.1455 -0.1385
   12TPM     C210557   4.269   1.086   6.335  0.0057  0.1462 -0.3455
   12TPM     C310558   4.382   1.022   6.397 -0.2279 -0.0960 -0.1692
   12TPM     C410559   4.482   1.108   6.431 -0.1809 -0.2815  0.1724
   12TPM     S110560   4.442   1.278   6.386  0.1648 -0.1637  0.2986
   13BDTP    C110561   4.972   0.978   6.810  0.0927 -0.0222  0.0377
   13BDTP    C210562   4.955   1.119   6.824  0.2235 -0.0047  0.0223
   13BDTP    C310563   4.860   1.191   6.754  0.2774  0.0736  0.0285
   13BDTP    C410564   4.776   1.120   6.665  0.1992  0.1380  0.0509
   13BDTP    C510565   4.793   0.980   6.650  0.0688  0.1205  0.0662
   13BDTP    C610566   4.889   0.908   6.721  0.0146  0.0422  0.0599
   13BDTP    C710567   4.670   1.173   6.582  0.2340  0.2239  0.0613
   13BDTP    C810568   4.607   1.080   6.506  0.1369  0.2714  0.0832
   13BDTP    S110569   4.674   0.913   6.530 -0.0122  0.2137  0.0939
   13BDTP    C910570   5.078   0.925   6.893  0.0582 -0.1082  0.0272
   13BDTP   C1010571   5.141   1.018   6.969  0.1553 -0.1555  0.0052
   13BDTP    S210572   5.075   1.186   6.945  0.3042 -0.0979 -0.0056
   14FTM     S110573   4.798   1.462   6.648  0.1146 -0.1855  0.3054
   14FTM     C110574   4.778   1.590   6.774  0.0952 -0.1402  0.2570
   14FTM     C210575   4.810   1.539   6.896  0.0805 -0.0952  0.2794
   14FTM     C310576   4.849   1.401   6.899  0.0831 -0.0932  0.3345
   14FTM     C410577   4.849   1.345   6.775  0.1006 -0.1382  0.3550
   14FTM     F110578   4.804   1.614   7.013  0.0634 -0.0531  0.2515
   14FTM     C510579   4.742   1.724   6.724 -0.5086 -0.1952 -0.2203
   14FTM     C610580   4.608   1.783   6.788 -0.7784  0.4259  0.3190
   14FTM     C710581   4.599   1.933   6.758 -0.3241 -0.9368  0.3981
   14FTM     C810582   4.717   2.026   6.792  0.0903 -0.6656 -0.1439
   14FTM     C910583   4.674   2.172   6.763 -0.2752  0.0654 -0.5421
   14FTM    C1010584   4.774   2.275   6.825  0.5157  0.3867  0.0549
   14FTM    C1110585   4.481   1.699   6.763  0.2220 -0.2135 -0.4976
   14FTM    C1210586   4.436   1.699   6.618 -0.2444 -0.1019 -0.0134
   15FTM     S110587   4.901   0.636   6.815  0.1201 -0.0703 -0.2621
   15FTM     C110588   4.954   0.513   6.694 -0.3003 -0.0142 -0.5056
   15FTM     C210589   4.981   0.573   6.575 -0.1569  0.1226 -0.4050
   15FTM     C310590   4.962   0.715   6.570  0.2780  0.1906 -0.1385
   15FTM     C410591   4.920   0.765   6.690  0.4740  0.1029 -0.0320
   15FTM     F110592   5.023   0.503   6.463 -0.4110  0.1945 -0.5479
   15FTM     C510593   4.956   0.368   6.732 -0.4395 -0.8728  0.3108
   15FTM     C610594   4.847   0.273   6.667 -0.4235 -0.8692 -0.3051
   15FTM     C710595   4.872   0.121   6.691 -0.7018  0.2391 -0.1610
   15FTM     C810596   4.931   0.046   6.573  0.1732  0.2119 -0.1593
   15FTM     C910597   5.069   0.100   6.531  0.0379 -0.1378 -0.2248
   15FTM    C1010598   5.144   0.022   6.426 -0.0849  0.0598 -0.2785
   15FTM    C1110599   4.708   0.327   6.690  0.1561 -0.0982 -0.4155
   15FTM    C1210600   4.603   0.257   6.607 -0.2519 -0.0422  0.2890
   16TPM     C110601   5.244   0.992   7.077 -0.2936 -0.3376  0.2045
   16TPM     C210602   5.245   1.030   7.208 -0.7143 -0.7221  0.3244
   16TPM     C310603   5.345   0.964   7.287 -0.7088 -0.6698  0.3617
   16TPM     C410604   5.420   0.875   7.217 -0.2843 -0.2455  0.2701
   16TPM     S110605   5.371   0.868   7.043  0.1451  0.1238  0.1286
   17BDD     C110606   5.617   0.545   7.304  0.0094 -0.0997  0.0362
   17BDD     C210607   5.627   0.622   7.417  0.0600 -0.0465 -0.0045
   17BDD     C310608   5.560   0.750   7.405  0.1041 -0.0281 -0.0557
   17BDD     C410609   5.500   0.769   7.284  0.0864 -0.0674 -0.0530
   17BDD     S110610   5.523   0.628   7.176  0.0134 -0.1303  0.0136
   17BDD     C510611   5.699   0.580   7.539  0.0697 -0.0108  0.0018
   17BDD     C610612   5.558   0.849   7.515  0.1622  0.0280 -0.1054
   17BDD     O110613   5.501   0.960   7.504  0.2002  0.0439 -0.1494
   17BDD     O210614   5.757   0.470   7.549  0.0317 -0.0267  0.0459
   17BDD     C710615   5.630   0.808   7.637  0.1719  0.0637 -0.0988
   17BDD     C810616   5.697   0.680   7.649  0.1278  0.0453 -0.0477
   17BDD     C910617   5.757   0.661   7.770  0.1454  0.0846 -0.0503
   17BDD     S210618   5.734   0.802   7.878  0.2184  0.1475 -0.1168
   17BDD    C1010619   5.640   0.885   7.749  0.2226  0.1169 -0.1396
   17BDD    C1110620   5.600   1.033   7.778  0.0539  0.1397  0.5857
   17BDD    C1210621   5.705   1.141   7.758 -0.0862 -0.7371 -0.3113
   17BDD    C1310622   5.655   1.288   7.771  0.4526 -0.1892 -0.1527
   17BDD    C1410623   5.536   1.336   7.689  0.4781 -0.6430  0.7741
   17BDD    C1510624   5.540   1.316   7.537  0.5412  0.6803  0.2094
   17BDD    C1610625   5.416   1.369   7.463  0.8186  0.6159 -0.0196
   17BDD    C1710626   5.836   1.134   7.843 -0.2643  0.2543  0.1155
   17BDD    C1810627   5.821   1.125   7.995 -0.5537 -0.1218 -0.8445
   17BDD    C1910628   5.843   0.549   7.838  0.8935 -0.1782  0.0199
   17BDD    C2010629   5.767   0.457   7.942  0.5267  0.1357 -0.2771
   17BDD    C2110630   5.866   0.363   8.025 -0.0079 -0.0648  0.3875
   17BDD    C2210631   5.799   0.301   8.151  0.2040 -0.2721 -0.2448
   17BDD    C2310632   5.868   0.203   8.239 -0.4865  0.7319  0.3279
   17BDD    C2410633   5.994   0.252   8.308  0.4163  0.0892 -0.9840
   17BDD    C2510634   5.637   0.391   7.889  0.2799  0.1741 -0.0749
   17BDD    C2610635   5.650   0.274   7.787  0.3818 -0.5199 -0.0279
   18TPM     C110636   5.667   0.411   7.268  0.6282 -0.1899 -0.2381
   18TPM     C210637   5.682   0.382   7.136  0.7393 -0.4573 -0.1668
   18TPM     C310638   5.716   0.244   7.111  0.2916 -0.6216  0.1096
   18TPM     C410639   5.726   0.168   7.224 -0.1610 -0.4794  0.2489
   18TPM     S110640   5.693   0.266   7.372 -0.0560 -0.1242  0.0405
   19BDTP    C110641   5.799  -0.452   7.274  0.1272 -0.0644  0.2059
   19BDTP    C210642   5.803  -0.407   7.409  0.0787 -0.0582  0.2050
   19BDTP    C310643   5.790  -0.273   7.445  0.0771 -0.0551  0.1934
   19BDTP    C410644   5.773  -0.179   7.342  0.1253 -0.0589  0.1818
   19BDTP    C510645   5.769  -0.224   7.207  0.1737 -0.0651  0.1825
   19BDTP    C610646   5.782  -0.357   7.171  0.1754 -0.0683  0.1943
   19BDTP    C710647   5.758  -0.036   7.354  0.1332 -0.0569  0.1685
   19BDTP    C810648   5.743   0.029   7.236  0.1848 -0.0613  0.1591
   19BDTP    S110649   5.746  -0.083   7.093  0.2303 -0.0687  0.1663
   19BDTP    C910650   5.815  -0.595   7.262  0.1192 -0.0665  0.2192
   19BDTP   C1010651   5.830  -0.660   7.380  0.0677 -0.0620  0.2284
   19BDTP    S210652   5.826  -0.548   7.524  0.0222 -0.0543  0.2214
   20FTM     S110653   5.927  -0.299   7.693 -0.1028 -0.2631  0.2129
   20FTM     C110654   5.859  -0.210   7.834 -0.1920  0.1291 -0.0750
   20FTM     C210655   5.748  -0.140   7.795 -0.0861  0.1380 -0.3688
   20FTM     C310656   5.711  -0.152   7.657  0.0675 -0.1528 -0.3879
   20FTM     C410657   5.796  -0.233   7.588  0.0792 -0.3921 -0.0989
   20FTM     F110658   5.675  -0.062   7.883 -0.1215  0.4098 -0.6384
   20FTM     C510659   5.920  -0.216   7.972 -0.2539  0.8332 -0.3353
   20FTM     C610660   5.852  -0.310   8.074  0.9281  0.2453 -0.8717
   20FTM     C710661   5.806  -0.451   8.033 -0.0184  0.1053  0.3046
   20FTM     C810662   5.913  -0.553   7.986 -0.4169  0.4667  0.7990
   20FTM     C910663   5.864  -0.690   7.968 -0.0737 -0.0598 -0.6362
   20FTM    C1010664   5.971  -0.790   7.930 -0.5609 -0.1613 -0.9814
   20FTM    C1110665   5.909  -0.298   8.216 -0.7999  0.0100 -0.4091
   20FTM    C1210666   5.962  -0.164   8.267 -0.5664 -0.3324  0.4965
   21FTM     S110667   5.902  -0.497   6.947 -0.0775 -0.0420  0.2737
   21FTM     C110668   5.808  -0.491   6.794  0.2025  0.2723  0.1095
   21FTM     C210669   5.693  -0.420   6.813  0.2618  0.4022 -0.0094
   21FTM     C310670   5.672  -0.368   6.945  0.0974  0.2677  0.0191
   21FTM     C410671   5.775  -0.399   7.029 -0.0943  0.0278  0.1647
   21FTM     F110672   5.600  -0.399   6.713  0.4687  0.6497 -0.1515
   21FTM     C510673   5.877  -0.561   6.678 -0.5046 -0.0954 -0.4664
   21FTM     C610674   5.850  -0.537   6.528 -0.4470  0.2419  0.0104
   21FTM     C710675   5.713  -0.560   6.481  0.5918 -0.1241  0.5446
   21FTM     C810676   5.664  -0.703   6.469 -0.3246  0.7613 -0.0771
   21FTM     C910677   5.529  -0.731   6.401 -0.0266  0.2856  0.5157
   21FTM    C1010678   5.517  -0.692   6.252  1.0551  0.2945 -0.5724
   21FTM    C1110679   5.917  -0.421   6.454  0.2920 -0.3321 -1.0019
   21FTM    C1210680   5.874  -0.271   6.483  0.6549  0.3682  0.6118
   22TPM     C110681   5.835  -0.803   7.409  0.0955  0.2887 -0.1987
   22TPM     C210682   5.841  -0.867   7.529  0.0042  0.5212 -0.0702
   22TPM     C310683   5.865  -1.008   7.519 -0.0159  0.4952  0.2208
   22TPM     C410684   5.878  -1.053   7.390  0.0601  0.2430  0.3144
   22TPM     S110685   5.860  -0.918   7.272  0.1637  0.0168  0.0396
   23BDD     C110686   5.831  -1.398   7.203 -0.1971 -0.0438  0.1945
   23BDD     C210687   5.904  -1.428   7.314 -0.1523 -0.0327  0.1683
   23BDD     C310688   5.931  -1.313   7.399 -0.0169 -0.0029  0.0859
   23BDD     C410689   5.877  -1.196   7.350  0.0397  0.0081  0.0506
   23BDD     S110690   5.790  -1.223   7.195 -0.0727 -0.0179  0.1180
   23BDD     C510691   5.953  -1.564   7.348 -0.2323 -0.0491  0.2180
   23BDD     C610692   6.008  -1.322   7.524  0.0517  0.0131  0.0453
   23BDD     O110693   6.030  -1.223   7.597  0.1686  0.0386 -0.0256
   23BDD     O210694   5.930  -1.663   7.275 -0.3493 -0.0746  0.2891
   23BDD     C710695   6.056  -1.458   7.558 -0.0283 -0.0033  0.0950
   23BDD     C810696   6.030  -1.573   7.473 -0.1639 -0.0331  0.1774
   23BDD     C910697   6.083  -1.689   7.522 -0.2203 -0.0442  0.2129
   23BDD     S210698   6.170  -1.662   7.677 -0.1079 -0.0183  0.1454
   23BDD    C1010699   6.129  -1.487   7.669  0.0166  0.0079  0.0689
   23BDD    C1110700   6.185  -1.402   7.781  0.1736 -0.0868  0.3105
   23BDD    C1210701   6.125  -1.406   7.921 -0.9340  0.7191 -0.3474
   23BDD    C1310702   6.130  -1.543   7.992 -0.0673 -0.0816 -0.0678
   23BDD    C1410703   6.268  -1.606   8.034  0.1121 -0.1460 -0.3485
   23BDD    C1510704   6.257  -1.738   8.101  0.4079 -0.3768  0.7571
   23BDD    C1610705   6.386  -1.793   8.152  0.3808  0.0134  0.1708
   23BDD    C1710706   6.152  -1.291   8.015  0.0732  0.2097  0.4284
   23BDD    C1810707   6.144  -1.144   7.971  0.0247  0.3264  0.5252
   23BDD    C1910708   6.096  -1.832   7.475 -0.0838  0.0542 -0.4341
   23BDD    C2010709   5.987  -1.928   7.518  0.5474 -0.2600 -0.5337
   23BDD    C2110710   5.956  -1.934   7.676  0.0830  0.1874  0.6399
   23BDD    C2210711   6.057  -1.985   7.776  0.0094  0.5852  0.0756
   23BDD    C2310712   6.100  -2.137   7.770 -0.7552 -0.9888 -0.3453
   23BDD    C2410713   6.195  -2.185   7.875 -0.5981 -0.4085  0.2982
   23BDD    C2510714   6.003  -2.060   7.444 -0.8418  0.1284  0.3028
   23BDD    C2610715   5.889  -2.162   7.433 -0.1610  0.2131 -0.4625
   24TPM     C110716   5.801  -1.466   7.075  0.1133  0.4194 -0.0803
   24TPM     C210717   5.738  -1.587   7.069  0.0781  0.4258  0.1539
   24TPM     C310718   5.691  -1.622   6.938 -0.0080  0.2228  0.2383
   24TPM     C410719   5.718  -1.528   6.843 -0.0385  0.0615  0.0682
   24TPM     S110720   5.805  -1.386   6.913  0.0399  0.1536 -0.2138
   25BDTP    C110721   5.680  -1.670   6.233 -0.1637  0.0141 -0.1025
   25BDTP    C210722   5.696  -1.529   6.229  0.0849 -0.0126 -0.0601
   25BDTP    C310723   5.707  -1.452   6.344  0.1818 -0.0615 -0.0362
   25BDTP    C410724   5.701  -1.517   6.469  0.0267 -0.0849 -0.0554
   25BDTP    C510725   5.685  -1.659   6.472 -0.2218 -0.0579 -0.0979
   25BDTP    C610726   5.674  -1.736   6.357 -0.3188 -0.0090 -0.1215
   25BDTP    C710727   5.710  -1.459   6.601  0.0859 -0.1348 -0.0371
   25BDTP    C810728   5.701  -1.549   6.702 -0.1040 -0.1469 -0.0637
   25BDTP    S110729   5.680  -1.720   6.644 -0.3841 -0.0960 -0.1150
   25BDTP    C910730   5.671  -1.729   6.100 -0.2228  0.0641 -0.1206
   25BDTP   C1010731   5.680  -1.639   5.999 -0.0331  0.0761 -0.0944
   25BDTP    S210732   5.701  -1.468   6.057  0.2470  0.0251 -0.0427
   26FTM     S110733   5.888  -1.226   6.350 -0.0880 -0.0042 -0.0718
   26FTM     C110734   5.827  -1.077   6.269  0.0867 -0.2118 -0.5987
   26FTM     C210735   5.696  -1.094   6.234  0.1086 -0.2353 -0.6677
   26FTM     C310736   5.638  -1.220   6.266 -0.0066 -0.0966 -0.3235
   26FTM     C410737   5.726  -1.303   6.329 -0.1202  0.0373  0.0202
   26FTM     F110738   5.623  -0.995   6.170  0.2341 -0.3836 -1.0467
   26FTM     C510739   5.911  -0.951   6.256  0.2704  0.2438  0.8964
   26FTM     C610740   6.012  -0.950   6.135  0.2242 -0.1387 -0.2426
   26FTM     C710741   6.121  -1.056   6.138  0.0978  0.3048 -0.2187
   26FTM     C810742   6.244  -1.042   6.222  0.8678  0.3725  0.3955
   26FTM     C910743   6.335  -1.164   6.230 -0.1003  0.2987 -0.5825
   26FTM    C1010744   6.270  -1.283   6.295  0.5208  0.0842  0.0552
   26FTM    C1110745   5.962  -0.949   5.996  0.2782  0.7114  0.9621
   26FTM    C1210746   5.873  -0.831   5.956  0.1399 -0.0860 -0.3087
   27FTM     S110747   5.808  -1.976   6.439  0.0722 -0.0796  0.1972
   27FTM     C110748   5.723  -2.129   6.400  0.0326 -0.0841  0.3014
   27FTM     C210749   5.604  -2.102   6.340 -0.0086 -0.0921  0.3777
   27FTM     C310750   5.573  -1.964   6.320 -0.0118 -0.0955  0.3600
   27FTM     C410751   5.672  -1.882   6.367  0.0281 -0.0896  0.2674
   27FTM     F110752   5.516  -2.202   6.298 -0.0459 -0.0973  0.4679
   27FTM     C510753   5.783  -2.268   6.406 -0.0346  0.4238  0.0354
   27FTM     C610754   5.807  -2.331   6.547 -0.3145 -0.1271 -0.2382
   27FTM     C710755   5.890  -2.454   6.540  0.0034 -0.1024  0.6780
   27FTM     C810756   6.044  -2.442   6.490 -0.0827 -0.4686 -0.4274
   27FTM     C910757   6.108  -2.575   6.480  0.2269  0.2559  0.8240
   27FTM    C1010758   6.251  -2.562   6.430 -0.6875  0.0790  0.1299
   27FTM    C1110759   5.686  -2.331   6.643 -0.6545 -0.1579 -0.4452
   27FTM    C1210760   5.566  -2.423   6.605 -0.2810 -0.4499 -0.7086
   28TPM     C110761   5.681  -1.665   5.856  0.1812  0.5183 -0.0656
   28TPM     C210762   5.724  -1.776   5.790  0.5031  0.5357  0.1134
   28TPM     C310763   5.697  -1.774   5.649  0.3827  0.1726  0.1293
   28TPM     C410764   5.632  -1.661   5.607 -0.0312 -0.1218 -0.0376
   28TPM     S110765   5.601  -1.548   5.744 -0.3026  0.0377 -0.2293
   29BDD     C110766   5.563  -1.713   5.225  0.1790  0.2068 -0.2379
   29BDD     C210767   5.539  -1.580   5.247  0.0876  0.1717 -0.1249
   29BDD     C310768   5.563  -1.540   5.384  0.0342  0.0658 -0.0839
   29BDD     C410769   5.605  -1.642   5.465  0.0856  0.0219 -0.1665
   29BDD     S110770   5.617  -1.796   5.374  0.2043  0.1098 -0.3009
   29BDD     C510771   5.493  -1.486   5.143  0.0463  0.2339 -0.0505
   29BDD     C610772   5.543  -1.401   5.431 -0.0658  0.0122  0.0353
   29BDD     O110773   5.564  -1.366   5.549 -0.1118 -0.0789  0.0706
   29BDD     O210774   5.473  -1.521   5.024  0.0921  0.3252 -0.0857
   29BDD     C710775   5.498  -1.306   5.326 -0.1073  0.0746  0.1097
   29BDD     C810776   5.474  -1.347   5.189 -0.0539  0.1805  0.0688
   29BDD     C910777   5.432  -1.245   5.109 -0.1053  0.2246  0.1512
   29BDD     S210778   5.420  -1.090   5.199 -0.2240  0.1367  0.2856
   29BDD    C1010779   5.474  -1.174   5.349 -0.1986  0.0398  0.2227
   29BDD    C1110780   5.466  -1.088   5.469  0.0240 -0.3197  0.0201
   29BDD    C1210781   5.599  -1.025   5.512 -0.0790 -0.0874 -0.6474
   29BDD    C1310782   5.673  -0.945   5.401 -0.5342 -0.6525  0.8106
   29BDD    C1410783   5.633  -0.801   5.374 -0.0431 -0.0813 -0.3586
   29BDD    C1510784   5.699  -0.731   5.258  0.4025  0.0569 -0.2715
   29BDD    C1610785   5.690  -0.580   5.282 -0.2239 -0.3805  0.1010
   29BDD    C1710786   5.606  -0.970   5.661 -0.6605 -0.3413 -0.4019
   29BDD    C1810787   5.591  -1.074   5.771  0.0060  0.0191 -0.1057
   29BDD    C1910788   5.402  -1.234   4.956 -0.2394 -0.0390 -0.1064
   29BDD    C2010789   5.527  -1.203   4.869  0.2878 -0.7181 -0.0334
   29BDD    C2110790   5.504  -1.217   4.718  0.2938  0.2789  0.1054
   29BDD    C2210791   5.475  -1.357   4.667  0.3706  0.9375  0.5840
   29BDD    C2310792   5.588  -1.461   4.656  0.4217 -0.5175  0.2356
   29BDD    C2410793   5.682  -1.420   4.538  0.3002  0.5394 -0.3827
   29BDD    C2510794   5.588  -1.060   4.907 -0.0528  0.0100 -0.3563
   29BDD    C2610795   5.721  -1.016   4.844 -0.4600 -0.0527 -0.2459
   30TPM     C110796   5.536  -1.817   5.116 -0.4480 -0.2020  0.1409
   30TPM     C210797   5.493  -1.944   5.143 -0.6686 -0.1874 -0.1203
   30TPM     C310798   5.448  -2.017   5.028 -0.4338 -0.0032 -0.3300
   30TPM     C410799   5.456  -1.946   4.912 -0.0343  0.1229 -0.2286
   30TPM     S110800   5.522  -1.780   4.940  0.0773  0.0177  0.1423
   31BDTP    C110801   5.385  -2.098   4.307 -0.1738 -0.1507  0.1358
   31BDTP    C210802   5.375  -2.224   4.374 -0.1293 -0.1539  0.1363
   31BDTP    C310803   5.383  -2.237   4.511 -0.1495 -0.1473  0.1380
   31BDTP    C410804   5.402  -2.120   4.588 -0.2167 -0.1372  0.1397
   31BDTP    C510805   5.412  -1.994   4.522 -0.2613 -0.1340  0.1391
   31BDTP    C610806   5.404  -1.981   4.384 -0.2411 -0.1404  0.1372
   31BDTP    C710807   5.414  -2.108   4.732 -0.2491 -0.1291  0.1417
   31BDTP    C810808   5.432  -1.982   4.776 -0.3150 -0.1200  0.1427
   31BDTP    S110809   5.436  -1.859   4.642 -0.3452 -0.1205  0.1411
   31BDTP    C910810   5.373  -2.109   4.163 -0.1414 -0.1587  0.1338
   31BDTP   C1010811   5.355  -2.236   4.119 -0.0755 -0.1677  0.1328
   31BDTP    S210812   5.350  -2.359   4.253 -0.0452 -0.1673  0.1343
   32FTM     S110813   5.463  -2.463   4.694  0.3798 -0.1831 -0.4669
   32FTM     C110814   5.338  -2.592   4.704  0.3560 -0.1137  0.2555
   32FTM     C210815   5.235  -2.563   4.619 -0.0322 -0.1508  0.7056
   32FTM     C310816   5.247  -2.442   4.543 -0.3278 -0.2338  0.5209
   32FTM     C410817   5.363  -2.376   4.571 -0.1603 -0.2610 -0.0909
   32FTM     F110818   5.124  -2.644   4.605 -0.1432 -0.1122  1.3118
   32FTM     C510819   5.359  -2.694   4.808  0.4788 -0.3708  0.0673
   32FTM     C610820   5.257  -2.788   4.869  0.1738 -0.1066  0.7489
   32FTM     C710821   5.135  -2.722   4.940  0.7496  1.0677  0.2988
   32FTM     C810822   5.156  -2.692   5.088  0.0653 -0.0655  0.4708
   32FTM     C910823   5.197  -2.809   5.167 -0.3603 -0.1786 -0.0493
   32FTM    C1010824   5.204  -2.789   5.319 -1.2228 -0.1978 -0.4546
   32FTM    C1110825   5.232  -2.915   4.794 -0.1350  0.8943  0.1177
   32FTM    C1210826   5.350  -3.016   4.768 -0.0986 -0.5133  0.3712
   33FTM     S110827   5.324  -1.739   4.253 -0.3209  0.1291 -0.0810
   33FTM     C110828   5.456  -1.622   4.214 -0.1575 -0.1070 -0.2406
   33FTM     C210829   5.576  -1.672   4.254 -0.2061 -0.2959 -0.3310
   33FTM     C310830   5.573  -1.802   4.316 -0.3693 -0.2693 -0.2830
   33FTM     C410831   5.446  -1.852   4.324 -0.4484 -0.0529 -0.1515
   33FTM     F110832   5.696  -1.605   4.237 -0.1057 -0.5045 -0.4625
   33FTM     C510833   5.410  -1.495   4.154 -0.6052 -0.2026  0.1481
   33FTM     C610834   5.366  -1.499   4.005  0.4279 -0.3897 -0.2182
   33FTM     C710835   5.477  -1.529   3.897 -0.4254 -0.2107 -0.3315
   33FTM     C810836   5.487  -1.674   3.851  0.0587  1.0448 -0.6088
   33FTM     C910837   5.626  -1.712   3.800 -0.1823  0.2259  0.3291
   33FTM    C1010838   5.638  -1.849   3.742  0.9550 -1.1419  0.3133
   33FTM    C1110839   5.284  -1.367   3.989 -0.4740 -0.6535  0.0087
   33FTM    C1210840   5.241  -1.332   3.844  0.2290 -0.0753  0.2677
   34TPM     C110841   5.355  -2.266   3.980 -0.0649  0.6164  0.1367
   34TPM     C210842   5.310  -2.383   3.926 -0.1197  0.5267  0.3725
   34TPM     C310843   5.341  -2.398   3.786 -0.1432  0.2376  0.3964
   34TPM     C410844   5.410  -2.292   3.734 -0.1061  0.1067  0.1789
   34TPM     S110845   5.441  -2.165   3.858 -0.0383  0.3403 -0.0752
   35BDD     C110846   5.501  -2.373   3.357  0.0648  0.1205  0.0490
   35BDD     C210847   5.479  -2.238   3.358  0.0838  0.1228  0.1307
   35BDD     C310848   5.445  -2.187   3.490  0.1999  0.0660  0.1829
   35BDD     C410849   5.442  -2.283   3.587  0.2678  0.0212  0.1403
   35BDD     S110850   5.482  -2.445   3.520  0.1909  0.0470  0.0319
   35BDD     C510851   5.487  -2.151   3.239 -0.0041  0.1774  0.1636
   35BDD     C610852   5.416  -2.044   3.515  0.2395  0.0584  0.2732
   35BDD     O110853   5.387  -1.999   3.628  0.3396  0.0093  0.3183
   35BDD     O210854   5.517  -2.195   3.125 -0.1042  0.2264  0.1184
   35BDD     C710855   5.425  -1.957   3.395  0.1516  0.1128  0.3061
   35BDD     C810856   5.459  -2.008   3.264  0.0354  0.1695  0.2538
   35BDD     C910857   5.462  -1.912   3.167 -0.0322  0.2142  0.2964
   35BDD     S210858   5.422  -1.750   3.234  0.0447  0.1886  0.4048
   35BDD    C1010859   5.403  -1.822   3.397  0.1708  0.1149  0.3878
   35BDD    C1110860   5.361  -1.728   3.511 -0.1546  1.1688 -0.0648
   35BDD    C1210861   5.222  -1.657   3.516 -0.5822 -0.0150 -0.2979
   35BDD    C1310862   5.101  -1.743   3.523  0.0037  0.3039 -0.0930
   35BDD    C1410863   5.090  -1.852   3.624 -0.2470 -0.7441  0.1211
   35BDD    C1510864   4.956  -1.917   3.611 -0.2986  0.6876  0.0708
   35BDD    C1610865   4.938  -2.039   3.701 -0.2759 -0.1393 -0.6148
   35BDD    C1710866   5.211  -1.547   3.425  0.5643 -0.8848  0.3003
   35BDD    C1810867   5.316  -1.438   3.434 -0.2026 -0.2617 -0.2218
   35BDD    C1910868   5.496  -1.924   3.018 -0.5501 -0.6038  0.4116
   35BDD    C2010869   5.386  -1.938   2.916 -0.0672 -0.1057 -0.3909
   35BDD    C2110870   5.306  -2.065   2.927  0.3982 -0.3282  0.0469
   35BDD    C2210871   5.370  -2.197   2.874 -0.2499  0.3530  0.2884
   35BDD    C2310872   5.440  -2.183   2.736  0.3022  0.1582 -0.7062
   35BDD    C2410873   5.476  -2.323   2.684 -0.3020  0.1486 -0.1108
   35BDD    C2510874   5.294  -1.811   2.913 -0.6849 -0.0876 -0.6252
   35BDD    C2610875   5.359  -1.670   2.885  0.1558  0.1016 -0.0061
   36TPM     C110876   5.547  -2.470   3.255  0.4433 -0.0551  0.2489
   36TPM     C210877   5.462  -2.494   3.151  0.2574  0.1645  0.3480
   36TPM     C310878   5.485  -2.621   3.087 -0.1000  0.1365  0.2753
   36TPM     C410879   5.587  -2.693   3.141 -0.1868 -0.1044  0.1209
   36TPM     S110880   5.663  -2.606   3.279  0.1794 -0.3165  0.0547
   37BDTP    C110881   5.925  -3.167   2.911 -0.1408 -0.2000  0.1559
   37BDTP    C210882   5.830  -3.146   2.807 -0.0607 -0.1662  0.0889
   37BDTP    C310883   5.730  -3.050   2.814  0.0160 -0.0783 -0.0148
   37BDTP    C410884   5.724  -2.970   2.930  0.0137 -0.0211 -0.0546
   37BDTP    C510885   5.820  -2.990   3.034 -0.0665 -0.0550  0.0125
   37BDTP    C610886   5.919  -3.087   3.026 -0.1432 -0.1428  0.1161
   37BDTP    C710887   5.630  -2.864   2.960  0.0844  0.0723 -0.1592
   37BDTP    C810888   5.650  -2.805   3.080  0.0618  0.1098 -0.1739
   37BDTP    S110889   5.791  -2.875   3.172 -0.0527  0.0319 -0.0572
   37BDTP    C910890   6.019  -3.273   2.880 -0.2117 -0.2935  0.2605
   37BDTP   C1010891   6.000  -3.332   2.760 -0.1888 -0.3309  0.2752
   37BDTP    S210892   5.859  -3.262   2.668 -0.0744 -0.2531  0.1584
   38FTM     S110893   5.464  -3.072   2.719  0.0078  0.0089 -0.1045
   38FTM     C110894   5.434  -3.026   2.547  0.1444  0.3658 -0.0351
   38FTM     C210895   5.551  -2.984   2.490  0.1330  0.7570  0.2236
   38FTM     C310896   5.666  -2.985   2.575  0.0198  0.8018  0.3798
   38FTM     C410897   5.638  -3.029   2.701 -0.0576  0.4331  0.2360
   38FTM     F110898   5.559  -2.943   2.358  0.2242  1.0976  0.3344
   38FTM     C510899   5.295  -3.040   2.492 -0.1646  0.3956  0.1618
   38FTM     C610900   5.198  -2.937   2.555 -0.7229 -0.1049  0.0047
   38FTM     C710901   5.230  -2.785   2.547  0.2886 -0.1924 -0.2896
   38FTM     C810902   5.324  -2.718   2.653 -0.1190 -0.1698 -0.0730
   38FTM     C910903   5.280  -2.699   2.799  0.1092 -0.1242  0.5109
   38FTM    C1010904   5.157  -2.619   2.814  0.1844  0.1624  0.3311
   38FTM    C1110905   5.050  -2.982   2.526 -0.3448 -0.5360  0.1666
   38FTM    C1210906   4.936  -2.899   2.582 -0.0432  0.4561  0.6756
   39FTM     S110907   6.191  -3.076   3.127  0.0821 -0.4199  0.2654
   39FTM     C110908   6.209  -3.093   3.305 -0.1398 -0.2377  0.3056
   39FTM     C210909   6.087  -3.112   3.362 -0.2686  0.3326  0.2307
   39FTM     C310910   5.975  -3.114   3.272 -0.2043  0.6552  0.1395
   39FTM     C410911   6.013  -3.097   3.143 -0.0203  0.3209  0.1449
   39FTM     F110912   6.069  -3.128   3.499 -0.4524  0.5968  0.2401
   39FTM     C510913   6.340  -3.070   3.376  0.2904 -0.1401 -0.4669
   39FTM     C610914   6.472  -3.129   3.312  0.4339  0.2560  0.2412
   39FTM     C710915   6.474  -3.276   3.259 -0.0973 -0.7841 -0.2125
   39FTM     C810916   6.416  -3.375   3.364 -0.5855  0.4453 -0.1012
   39FTM     C910917   6.425  -3.515   3.308  0.3267 -0.1637 -0.1945
   39FTM    C1010918   6.387  -3.630   3.399 -0.5000 -0.0694 -0.6767
   39FTM    C1110919   6.607  -3.086   3.360 -0.2884 -0.1052 -0.6263
   39FTM    C1210920   6.642  -2.940   3.342  0.2514  0.6389 -1.0004
   40TPM     C110921   6.056  -3.457   2.713 -0.0073 -0.4886  0.1611
   40TPM     C210922   6.176  -3.514   2.740 -0.2551 -0.8744  0.4750
   40TPM     C310923   6.197  -3.640   2.672 -0.3198 -0.7408  0.2048
   40TPM     C410924   6.091  -3.678   2.594 -0.1216 -0.2531 -0.3151
   40TPM     S110925   5.957  -3.557   2.600  0.1646  0.0778 -0.5052
   41BDD     C110926   6.113  -4.047   2.459 -0.2700 -0.0725 -0.0882
   41BDD     C210927   6.051  -3.976   2.360 -0.1737 -0.0364 -0.1226
   41BDD     C310928   6.038  -3.835   2.390  0.0354 -0.0002 -0.1995
   41BDD     C410929   6.090  -3.800   2.512  0.0955 -0.0095 -0.2226
   41BDD     S110930   6.159  -3.942   2.597 -0.1054 -0.0639 -0.1497
   41BDD     C510931   6.002  -4.036   2.234 -0.2704 -0.0336 -0.0860
   41BDD     C610932   5.975  -3.739   2.297  0.1681  0.0418 -0.2472
   41BDD     O110933   5.964  -3.617   2.323  0.3483  0.0730 -0.3136
   41BDD     O210934   6.013  -4.158   2.209 -0.4507 -0.0647 -0.0197
   41BDD     C710935   5.925  -3.799   2.171  0.0713  0.0446 -0.2106
   41BDD     C810936   5.938  -3.940   2.141 -0.1378  0.0087 -0.1338
   41BDD     C910937   5.886  -3.975   2.020 -0.1980  0.0176 -0.1106
   41BDD     S210938   5.817  -3.833   1.934  0.0030  0.0720 -0.1836
   41BDD    C1010939   5.863  -3.728   2.072  0.1675  0.0806 -0.2450
   41BDD    C1110940   5.842  -3.577   2.060  0.2788  0.5599  0.4056
   41BDD    C1210941   5.699  -3.529   2.023  0.2781  0.5698 -0.5803
   41BDD    C1310942   5.581  -3.556   2.118  0.4785  0.8424  0.2492
   41BDD    C1410943   5.586  -3.536   2.267  0.2798 -0.4865 -0.2197
   41BDD    C1510944   5.656  -3.408   2.333 -0.0916  0.8902  0.4682
   41BDD    C1610945   5.576  -3.283   2.298  0.4095 -0.1883  0.5135
   41BDD    C1710946   5.685  -3.397   1.957 -0.2234 -0.2242  0.2251
   41BDD    C1810947   5.769  -3.373   1.833  0.0214  0.2211  0.5698
   41BDD    C1910948   5.884  -4.107   1.940  0.4167 -0.7647  0.2063
   41BDD    C2010949   5.768  -4.200   1.987  0.1505 -0.4166  0.0934
   41BDD    C2110950   5.782  -4.346   1.923 -0.3112 -0.1822 -0.3237
   41BDD    C2210951   5.910  -4.426   1.958  0.0308 -0.4030  0.2519
   41BDD    C2310952   5.942  -4.451   2.106  0.5602 -0.2443 -0.0009
   41BDD    C2410953   5.849  -4.561   2.173 -0.2057 -0.0749  0.1657
   41BDD    C2510954   5.629  -4.129   1.958 -0.2910  0.4762 -0.6621
   41BDD    C2610955   5.514  -4.206   2.019  0.1567 -0.0523  0.5485
   42TPM     C110956   6.150  -4.189   2.487  0.1965  0.0878 -0.0928
   42TPM     C210957   6.101  -4.241   2.604  0.4495  0.1009  0.0215
   42TPM     C310958   6.095  -4.384   2.605  0.4930  0.0993  0.0690
   42TPM     C410959   6.139  -4.442   2.490  0.2733  0.0850 -0.0093
   42TPM     S110960   6.193  -4.319   2.370 -0.0081  0.0722 -0.1499
   43BDTP    C110961   6.078  -5.049   2.345 -0.0913 -0.1075 -0.0749
   43BDTP    C210962   6.146  -4.998   2.231 -0.0501 -0.0876 -0.0408
   43BDTP    C310963   6.184  -4.865   2.220 -0.0091 -0.0945  0.0144
   43BDTP    C410964   6.153  -4.778   2.326 -0.0088 -0.1225  0.0374
   43BDTP    C510965   6.084  -4.829   2.440 -0.0503 -0.1426  0.0033
   43BDTP    C610966   6.046  -4.963   2.451 -0.0912 -0.1355 -0.0520
   43BDTP    C710967   6.181  -4.636   2.337  0.0294 -0.1346  0.0935
   43BDTP    C810968   6.138  -4.580   2.453  0.0186 -0.1625  0.1032
   43BDTP    S110969   6.055  -4.698   2.563 -0.0411 -0.1771  0.0426
   43BDTP    C910970   6.049  -5.191   2.334 -0.1296 -0.0954 -0.1310
   43BDTP   C1010971   6.092  -5.248   2.219 -0.1190 -0.0676 -0.1407
   43BDTP    S210972   6.175  -5.129   2.108 -0.0591 -0.0530 -0.0801
   44FTM     S110973   6.224  -4.681   1.997 -0.2748 -0.0960  0.2645
   44FTM     C110974   6.369  -4.714   1.895 -0.5368  0.0340 -0.1537
   44FTM     C210975   6.437  -4.821   1.945 -0.5300 -0.1739 -0.5968
   44FTM     C310976   6.382  -4.881   2.063 -0.3257 -0.4406 -0.6372
   44FTM     C410977   6.269  -4.819   2.104 -0.1708 -0.4365 -0.2111
   44FTM     F110978   6.553  -4.870   1.887 -0.7086 -0.1353 -0.9921
   44FTM     C510979   6.414  -4.644   1.769 -0.3868 -0.5998  0.2703
   44FTM     C610980   6.329  -4.684   1.642 -0.6301 -0.8501 -0.2073
   44FTM     C710981   6.196  -4.607   1.623  0.1918  0.6094 -1.1834
   44FTM     C810982   6.177  -4.466   1.662  0.1833 -0.3975  0.3000
   44FTM     C910983   6.102  -4.389   1.559  0.6470  0.1190 -0.1180
   44FTM    C1010984   6.071  -4.251   1.603 -0.4519 -0.1913 -0.0185
   44FTM    C1110985   6.337  -4.822   1.582 -0.4110 -0.2808  0.5479
   44FTM    C1210986   6.474  -4.850   1.521  0.0267 -0.1078  0.1273
   45FTM     S110987   6.049  -5.156   2.660  0.1564  0.0999 -0.2304
   45FTM     C110988   5.928  -5.140   2.792  0.3502  0.0384 -0.0438
   45FTM     C210989   5.850  -5.030   2.771  0.2220 -0.0349  0.0427
   45FTM     C310990   5.880  -4.954   2.653 -0.0285 -0.0474 -0.0291
   45FTM     C410991   5.983  -5.007   2.582 -0.0946  0.0185 -0.1755
   45FTM     F110992   5.748  -4.992   2.856  0.3241 -0.0950  0.1920
   45FTM     C510993   5.918  -5.243   2.906 -0.5024  0.0917  0.1635
   45FTM     C610994   5.940  -5.391   2.878 -0.5462 -0.1091 -0.2262
   45FTM     C710995   5.925  -5.486   2.995  0.3428 -0.1997 -0.5124
   45FTM     C810996   6.018  -5.474   3.120  0.3399 -0.5749 -0.0253
   45FTM     C910997   5.969  -5.531   3.251  0.4334 -0.0210 -0.0291
   45FTM    C1010998   5.903  -5.670   3.245 -0.1009  0.2396  0.0669
   45FTM    C1110999   5.863  -5.431   2.751  0.1271  0.0398  0.1507
   45FTM    C1211000   5.883  -5.571   2.696 -0.5895  0.2021  0.0978
   46TPM     C111001   6.066  -5.383   2.165  0.1756 -0.0545 -0.2418
   46TPM     C211002   6.137  -5.451   2.070 -0.0439 -0.1253 -0.3566
   46TPM     C311003   6.079  -5.578   2.035 -0.2819 -0.0240 -0.3380
   46TPM     C411004   5.964  -5.607   2.103 -0.2439  0.1239 -0.2092
   46TPM     S111005   5.920  -5.475   2.217  0.0982  0.1470 -0.1003
   47BDD     C111006   5.742  -5.921   2.192  0.0043  0.0781  0.2004
   47BDD     C211007   5.779  -5.941   2.062  0.0607  0.1260  0.2094
   47BDD     C311008   5.866  -5.837   2.010  0.0895  0.1407  0.2881
   47BDD     C411009   5.893  -5.739   2.102  0.0548  0.1039  0.3378
   47BDD     S111010   5.812  -5.771   2.259 -0.0166  0.0483  0.2897
   47BDD     C511011   5.737  -6.057   1.980  0.0901  0.1599  0.1461
   47BDD     C611012   5.919  -5.838   1.872  0.1507  0.1909  0.3109
   47BDD     O111013   5.994  -5.748   1.828  0.1757  0.2036  0.3788
   47BDD     O211014   5.662  -6.147   2.024  0.0652  0.1472  0.0783
   47BDD     C711015   5.877  -5.953   1.791  0.1800  0.2247  0.2476
   47BDD     C811016   5.790  -6.058   1.842  0.1512  0.2100  0.1689
   47BDD     C911017   5.763  -6.156   1.751  0.1858  0.2469  0.1192
   47BDD     S211018   5.844  -6.124   1.594  0.2573  0.3025  0.1673
   47BDD    C1011019   5.914  -5.973   1.661  0.2365  0.2727  0.2567
   47BDD    C1111020   5.991  -5.886   1.574 -1.5664 -1.0881  0.0098
   47BDD    C1211021   6.106  -5.937   1.478 -0.0747 -0.0387 -0.6649
   47BDD    C1311022   6.210  -6.029   1.555 -0.1824 -0.1750  0.0640
   47BDD    C1411023   6.316  -6.106   1.477  0.3877  0.2824  0.1814
   47BDD    C1511024   6.260  -6.191   1.357 -0.3424 -0.0847 -0.6885
   47BDD    C1611025   6.148  -6.291   1.371  0.1717  0.5005 -0.4391
   47BDD    C1711026   6.150  -5.820   1.385 -0.3956 -0.7188 -0.3242
   47BDD    C1811027   6.268  -5.839   1.284 -0.6132 -0.4234 -0.1567
   47BDD    C1911028   5.678  -6.283   1.757  0.2924 -0.1962  0.5406
   47BDD    C2011029   5.741  -6.421   1.766  0.4579  0.3127 -0.6587
   47BDD    C2111030   5.824  -6.467   1.650 -0.3244 -0.1489 -0.4413
   47BDD    C2211031   5.767  -6.511   1.520 -0.4679  0.6559 -0.0387
   47BDD    C2311032   5.867  -6.561   1.417 -0.3456 -0.2497 -0.0608
   47BDD    C2411033   5.804  -6.621   1.285 -0.3558  0.0507 -0.2511
   47BDD    C2511034   5.645  -6.528   1.813 -0.5203  0.3183 -0.5617
   47BDD    C2611035   5.568  -6.503   1.947  0.3609  0.3310 -0.0224
   48TPM     C111036   5.675  -6.000   2.295 -0.2119  0.0306 -0.3044
   48TPM     C211037   5.544  -6.035   2.289 -0.2856  0.2463  0.0129
   48TPM     C311038   5.490  -6.080   2.415 -0.1005  0.4920  0.1796
   48TPM     C411039   5.581  -6.078   2.517  0.1144  0.4636 -0.0106
   48TPM     S111040   5.742  -6.020   2.461  0.0997  0.1216 -0.4182
   49BDTP    C111041   5.509  -6.141   3.137 -0.0602 -0.0790 -0.1319
   49BDTP    C211042   5.649  -6.121   3.125 -0.0498 -0.0867 -0.0330
   49BDTP    C311043   5.712  -6.105   3.002  0.0370 -0.0855  0.0112
   49BDTP    C411044   5.632  -6.109   2.886  0.1177 -0.0763 -0.0448
   49BDTP    C511045   5.492  -6.128   2.899  0.1073 -0.0686 -0.1436
   49BDTP    C611046   5.429  -6.144   3.022  0.0204 -0.0697 -0.1878
   49BDTP    C711047   5.674  -6.094   2.748  0.2148 -0.0733 -0.0148
   49BDTP    C811048   5.573  -6.102   2.658  0.2773 -0.0638 -0.0857
   49BDTP    S111049   5.411  -6.128   2.735  0.2217 -0.0574 -0.2002
   49BDTP    C911050   5.467  -6.155   3.275 -0.1574 -0.0821 -0.1618
   49BDTP   C1011051   5.567  -6.148   3.365 -0.2198 -0.0916 -0.0909
   49BDTP    S211052   5.730  -6.121   3.288 -0.1642 -0.0979  0.0236
   50FTM     S111053   5.941  -5.958   2.917  0.3667 -0.1799 -0.2576
   50FTM     C111054   6.103  -6.030   2.950  0.3011 -0.0348  0.4190
   50FTM     C211055   6.088  -6.148   3.017  0.1553  0.1928  0.7950
   50FTM     C311056   5.953  -6.188   3.046  0.0874  0.2664  0.5850
   50FTM     C411057   5.862  -6.098   3.000  0.1845  0.0893  0.0301
   50FTM     F111058   6.195  -6.226   3.055  0.0747  0.3480  1.3517
   50FTM     C511059   6.238  -5.972   2.900  0.9981  0.8680  0.6367
   50FTM     C611060   6.277  -5.837   2.956 -0.9250  0.1590  0.4424
   50FTM     C711061   6.391  -5.750   2.890  0.3014  0.7817 -0.0098
   50FTM     C811062   6.395  -5.745   2.739  0.3613  0.6541  0.2575
   50FTM     C911063   6.277  -5.663   2.680 -0.0058  0.2605 -0.5378
   50FTM    C1011064   6.277  -5.650   2.529 -0.3687 -0.4510 -0.2136
   50FTM    C1111065   6.289  -5.829   3.106 -0.2049  0.7354 -0.7246
   50FTM    C1211066   6.405  -5.907   3.175  0.3606  0.1930  0.3881
   51FTM     S111067   5.166  -6.043   2.968 -0.0709  0.1321 -0.3696
   51FTM     C111068   5.037  -6.169   2.963 -0.1272  0.1561  0.3288
   51FTM     C211069   5.087  -6.288   3.005 -0.1301  0.3160  0.8056
   51FTM     C311070   5.226  -6.289   3.042 -0.0896  0.4271  0.6604
   51FTM     C411071   5.284  -6.167   3.028 -0.0546  0.3497  0.0525
   51FTM     F111072   5.011  -6.403   3.012 -0.1695  0.3713  1.4019
   51FTM     C511073   4.905  -6.131   2.899  0.3481 -0.0713 -1.0198
   51FTM     C611074   4.831  -6.236   2.815  0.6707  0.1639  0.0210
   51FTM     C711075   4.690  -6.198   2.782 -0.0012  0.1475  0.0492
   51FTM     C811076   4.592  -6.180   2.899  0.6600  0.5621 -0.7472
   51FTM     C911077   4.457  -6.168   2.841  0.2469 -0.3800  0.0814
   51FTM    C1011078   4.357  -6.107   2.947 -0.7707  0.2634  0.1670
   51FTM    C1111079   4.903  -6.279   2.686  0.0649  0.0790  0.1441
   51FTM    C1211080   4.868  -6.411   2.624 -0.4530 -0.2344 -0.5478
   52TPM     C111081   5.570  -6.156   3.505  0.4303 -0.4953 -0.2981
   52TPM     C211082   5.624  -6.078   3.603  0.7968 -0.6832 -0.3452
   52TPM     C311083   5.597  -6.126   3.736  0.4771 -0.4215 -0.3130
   52TPM     C411084   5.523  -6.240   3.740 -0.1333 -0.0339 -0.2414
   52TPM     S111085   5.481  -6.297   3.574 -0.3532  0.0310 -0.2087
   53BDD     C111086   5.300  -6.368   4.034 -0.0817 -0.0119  0.0693
   53BDD     C211087   5.426  -6.361   4.086 -0.0744  0.0102  0.0491
   53BDD     C311088   5.526  -6.316   3.990 -0.1135  0.1183  0.0595
   53BDD     C411089   5.474  -6.289   3.867 -0.1500  0.1770  0.0874
   53BDD     S111090   5.297  -6.318   3.861 -0.1378  0.1011  0.1029
   53BDD     C511091   5.460  -6.396   4.225 -0.0315 -0.0673  0.0196
   53BDD     C611092   5.668  -6.301   4.025 -0.1134  0.1593  0.0412
   53BDD     O111093   5.754  -6.262   3.943 -0.1470  0.2525  0.0501
   53BDD     O211094   5.374  -6.435   4.308  0.0023 -0.1605  0.0106
   53BDD     C711095   5.702  -6.336   4.165 -0.0703  0.0819  0.0116
   53BDD     C811096   5.603  -6.381   4.260 -0.0314 -0.0262  0.0011
   53BDD     C911097   5.655  -6.408   4.384  0.0052 -0.0849 -0.0268
   53BDD     S211098   5.832  -6.378   4.389 -0.0069 -0.0089 -0.0422
   53BDD    C1011099   5.828  -6.329   4.217 -0.0631  0.1040 -0.0087
   53BDD    C1111100   5.955  -6.297   4.149 -0.2142  0.3049  0.1086
   53BDD    C1211101   6.018  -6.159   4.157  0.4288  0.6789  0.8280
   53BDD    C1311102   6.050  -6.110   4.296 -0.2101  0.2393  0.7527
   53BDD    C1411103   6.172  -6.171   4.369 -0.0152  0.0490  0.7528
   53BDD    C1511104   6.233  -6.084   4.477  0.4552 -0.2248 -0.0916
   53BDD    C1611105   6.351  -6.147   4.543 -0.3651  0.7214  0.3704
   53BDD    C1711106   6.125  -6.142   4.044 -0.2465  0.4913  0.0282
   53BDD    C1811107   6.200  -6.011   4.018 -0.1547 -0.0149  0.1669
   53BDD    C1911108   5.598  -6.477   4.515 -0.3875 -0.0100  0.0544
   53BDD    C2011109   5.597  -6.632   4.510  0.2807  0.1301 -0.1828
   53BDD    C2111110   5.485  -6.688   4.419  0.1699  0.1815  0.5504
   53BDD    C2211111   5.452  -6.827   4.436  0.6653  0.3511 -0.7695
   53BDD    C2311112   5.318  -6.872   4.378 -0.3067  0.1351 -0.2395
   53BDD    C2411113   5.200  -6.802   4.448  0.3201 -0.5885  0.3363
   53BDD    C2511114   5.727  -6.713   4.515 -0.1479 -0.4676 -0.7800
   53BDD    C2611115   5.803  -6.751   4.389 -0.3656 -0.2081 -0.6854
   54TPM     C111116   5.168  -6.401   4.084  0.1550  0.0427 -0.1822
   54TPM     C211117   5.143  -6.508   4.164  0.2111  0.1208 -0.0579
   54TPM     C311118   5.003  -6.542   4.173  0.1986  0.2490  0.2304
   54TPM     C411119   4.922  -6.460   4.101  0.1328  0.2687  0.3259
   54TPM     S111120   5.016  -6.333   4.015  0.0809  0.1258  0.0574
   55BDTP    C111121   4.302  -6.433   3.991  0.0826  0.0846  0.2632
   55BDTP    C211122   4.308  -6.515   4.107  0.0829  0.0253  0.2209
   55BDTP    C311123   4.427  -6.549   4.169  0.0796  0.0319  0.2308
   55BDTP    C411124   4.547  -6.499   4.114  0.0758  0.1003  0.2847
   55BDTP    C511125   4.541  -6.417   3.998  0.0755  0.1595  0.3269
   55BDTP    C611126   4.422  -6.383   3.936  0.0785  0.1529  0.3171
   55BDTP    C711127   4.682  -6.521   4.161  0.0720  0.1202  0.3049
   55BDTP    C811128   4.777  -6.459   4.087  0.0685  0.1907  0.3592
   55BDTP    S111129   4.709  -6.365   3.947  0.0702  0.2417  0.3929
   55BDTP    C911130   4.167  -6.411   3.944  0.0864  0.0646  0.2430
   55BDTP   C1011131   4.072  -6.473   4.018  0.0896 -0.0058  0.1886
   55BDTP    S211132   4.141  -6.567   4.158  0.0881 -0.0568  0.1551
   56FTM     S111133   4.351  -6.590   4.440 -0.1771 -0.3146  0.2285
   56FTM     C111134   4.394  -6.747   4.516  0.1799 -0.0550  0.5686
   56FTM     C211135   4.465  -6.824   4.429  0.5821  0.0182  0.8242
   56FTM     C311136   4.489  -6.766   4.300  0.6359 -0.1197  0.7721
   56FTM     C411137   4.435  -6.641   4.288  0.2628 -0.3047  0.4670
   56FTM     F111138   4.511  -6.950   4.460  0.9253  0.2145  1.1202
   56FTM     C511139   4.368  -6.780   4.660  0.1522 -0.0724  0.5373
   56FTM     C611140   4.447  -6.715   4.770 -0.2934 -0.7105 -0.0085
   56FTM     C711141   4.433  -6.560   4.790 -0.2450  0.3277 -0.2434
   56FTM     C811142   4.299  -6.507   4.839 -0.0489  0.0132 -0.3190
   56FTM     C911143   4.272  -6.549   4.985 -0.3624 -0.5791 -0.3050
   56FTM    C1011144   4.153  -6.473   5.041  0.4595  0.2970 -0.4865
   56FTM    C1111145   4.586  -6.781   4.779  0.3215  0.0490  0.8490
   56FTM    C1211146   4.659  -6.734   4.898 -0.4134  0.1053 -0.7955
   57FTM     S111147   4.425  -6.350   3.653  0.0428  0.0057  0.2460
   57FTM     C111148   4.409  -6.180   3.594  0.3043 -0.0559 -0.0087
   57FTM     C211149   4.399  -6.095   3.699  0.0929  0.0826 -0.1388
   57FTM     C311150   4.403  -6.155   3.829 -0.2764  0.2409 -0.0504
   57FTM     C411151   4.417  -6.290   3.823 -0.3502  0.2233  0.1541
   57FTM     F111152   4.385  -5.958   3.684  0.2213  0.0740 -0.3456
   57FTM     C511153   4.433  -6.150   3.451  0.0217 -0.1397  0.4248
   57FTM     C611154   4.314  -6.093   3.362 -0.1659  0.3372 -0.9465
   57FTM     C711155   4.263  -5.955   3.397  0.1007  0.0346  0.1662
   57FTM     C811156   4.368  -5.840   3.387 -0.0430  0.3944 -0.5767
   57FTM     C911157   4.418  -5.809   3.248  0.2536 -0.1053  0.5269
   57FTM    C1011158   4.537  -5.719   3.255 -0.4120 -0.4753  0.3141
   57FTM    C1111159   4.202  -6.191   3.328  0.1893  0.6384  0.0919
   57FTM    C1211160   4.261  -6.324   3.275  0.2443 -0.2660  0.0724
   58TPM     C111161   3.933  -6.464   4.000 -0.0441 -0.0455  0.2342
   58TPM     C211162   3.834  -6.528   4.068 -0.2485  0.1602  0.1338
   58TPM     C311163   3.702  -6.495   4.023 -0.1327  0.4163 -0.0198
   58TPM     C411164   3.700  -6.405   3.921  0.1599  0.4058 -0.0366
   58TPM     S111165   3.866  -6.355   3.873  0.3133  0.0691  0.1418
   59BDD     C111166   3.324  -6.406   3.795 -0.1405 -0.3862 -0.3977
   59BDD     C211167   3.383  -6.301   3.729 -0.2014 -0.2794 -0.2829
   59BDD     C311168   3.523  -6.283   3.764 -0.2951 -0.0381 -0.0253
   59BDD     C411169   3.569  -6.374   3.855 -0.3045  0.0355  0.0527
   59BDD     S111170   3.440  -6.488   3.905 -0.1966 -0.1920 -0.1912
   59BDD     C511171   3.313  -6.215   3.632 -0.1755 -0.3952 -0.4058
   59BDD     C611172   3.606  -6.176   3.705 -0.3720  0.1107  0.1343
   59BDD     O111173   3.727  -6.160   3.735 -0.4528  0.3189  0.3564
   59BDD     O211174   3.192  -6.231   3.602 -0.0946 -0.6033 -0.6280
   59BDD     C711175   3.536  -6.089   3.608 -0.3462 -0.0051  0.0114
   59BDD     C811176   3.396  -6.108   3.573 -0.2524 -0.2465 -0.2463
   59BDD     C911177   3.350  -6.017   3.482 -0.2431 -0.3200 -0.3241
   59BDD     S211178   3.479  -5.902   3.432 -0.3509 -0.0924 -0.0804
   59BDD    C1011179   3.595  -5.985   3.542 -0.4069  0.1018  0.1262
   59BDD    C1111180   3.736  -5.924   3.541 -0.0191 -0.5403  0.0161
   59BDD    C1211181   3.774  -5.804   3.638 -0.3735  0.3379  0.3981
   59BDD    C1311182   3.704  -5.676   3.600  0.1990 -0.7101  0.0556
   59BDD    C1411183   3.732  -5.550   3.693  0.3519 -0.7331  0.5823
   59BDD    C1511184   3.632  -5.437   3.655  0.3462  0.0733 -0.2276
   59BDD    C1611185   3.670  -5.297   3.696  0.1157 -0.2160  0.3070
   59BDD    C1711186   3.928  -5.777   3.653  0.0338  0.3088  0.6282
   59BDD    C1811187   4.010  -5.885   3.720  0.0938 -0.8539 -0.2823
   59BDD    C1911188   3.213  -5.989   3.422  0.0379 -0.7048  0.4555
   59BDD    C2011189   3.190  -6.061   3.291  0.5457 -0.0682 -0.3232
   59BDD    C2111190   3.038  -6.079   3.255 -0.5992 -0.0149  0.0283
   59BDD    C2211191   2.954  -6.142   3.363  1.1535 -0.0864 -0.8026
   59BDD    C2311192   2.823  -6.197   3.294 -0.5885 -0.0951 -0.2645
   59BDD    C2411193   2.725  -6.255   3.397 -0.0845 -0.4160  0.4787
   59BDD    C2511194   3.266  -6.013   3.166  0.4728  0.1854 -0.2006
   59BDD    C2611195   3.249  -5.872   3.103  0.1080  0.5944  0.4257
   60TPM     C111196   3.196  -6.477   3.795  0.4495 -0.0120 -0.5116
   60TPM     C211197   3.175  -6.573   3.889  0.5269  0.1456 -0.3308
   60TPM     C311198   3.044  -6.634   3.881  0.3702  0.4119  0.1360
   60TPM     C411199   2.966  -6.584   3.781  0.1732  0.4575  0.3108
   60TPM     S111200   3.052  -6.455   3.689  0.1704  0.1652 -0.1035
    1BDTP    C111201   5.598   0.489   1.051  0.0663  0.1199 -0.0600
    1BDTP    C211202   5.500   0.546   0.964  0.0247  0.1121 -0.0181
    1BDTP    C311203   5.384   0.479   0.928  0.0116  0.1053  0.0367
    1BDTP    C411204   5.363   0.350   0.980  0.0408  0.1062  0.0509
    1BDTP    C511205   5.460   0.293   1.066  0.0826  0.1140  0.0090
    1BDTP    C611206   5.577   0.360   1.103  0.0957  0.1208 -0.0457
    1BDTP    C711207   5.250   0.262   0.957  0.0346  0.1000  0.1048
    1BDTP    C811208   5.259   0.143   1.021  0.0694  0.1027  0.1054
    1BDTP    S111209   5.410   0.126   1.120  0.1146  0.1135  0.0378
    1BDTP    C911210   5.710   0.577   1.074  0.0726  0.1261 -0.1139
    1BDTP   C1011211   5.702   0.696   1.010  0.0381  0.1234 -0.1145
    1BDTP    S211212   5.550   0.713   0.911 -0.0073  0.1126 -0.0468
    2FTM     S111213   5.193   0.450   0.715 -0.2518 -0.1882  0.2178
    2FTM     C111214   5.089   0.594   0.687 -0.1774 -0.2629 -0.4730
    2FTM     C211215   5.131   0.697   0.766 -0.2341  0.0408 -0.8340
    2FTM     C311216   5.243   0.670   0.851 -0.3363  0.3427 -0.6010
    2FTM     C411217   5.289   0.543   0.837 -0.3586  0.2678 -0.0434
    2FTM     F111218   5.069   0.821   0.766 -0.1967  0.0634 -1.3968
    2FTM     C511219   4.981   0.592   0.577  1.1493  0.2057  0.2903
    2FTM     C611220   4.839   0.543   0.611  0.0147  0.6180  0.3271
    2FTM     C711221   4.755   0.629   0.713  0.0474 -0.4289  0.5854
    2FTM     C811222   4.699   0.766   0.678  0.1619  0.1090  0.0138
    2FTM     C911223   4.607   0.781   0.557 -0.2357  0.2632 -0.1673
    2FTM    C1011224   4.467   0.742   0.591 -0.1657  0.7320 -0.0593
    2FTM    C1111225   4.837   0.386   0.624  0.5625 -0.4481 -0.4047
    2FTM    C1211226   4.696   0.327   0.608 -0.4243  0.2773 -0.1926
    3FTM     S111227   5.830   0.218   1.155  0.1581  0.2207 -0.3113
    3FTM     C111228   5.859   0.181   1.329 -0.3107 -0.1833 -0.3126
    3FTM     C211229   5.754   0.225   1.403 -0.5208 -0.3734 -0.4947
    3FTM     C311230   5.647   0.287   1.332 -0.3347 -0.2204 -0.6408
    3FTM     C411231   5.671   0.292   1.198  0.0299  0.0974 -0.5681
    3FTM     F111232   5.749   0.210   1.541 -0.8942 -0.6974 -0.5400
    3FTM     C511233   5.983   0.099   1.360 -0.6539 -0.0190 -0.1123
    3FTM     C611234   5.967  -0.048   1.411  0.6143 -0.3372 -0.7776
    3FTM     C711235   5.901  -0.067   1.548  0.2016 -0.3182 -0.5940
    3FTM     C811236   5.995  -0.057   1.666  0.7118  0.4635  0.1853
    3FTM     C911237   5.911  -0.042   1.800 -0.8300  0.0374 -0.7098
    3FTM    C1011238   6.018   0.004   1.908  0.0647 -0.5536 -0.2911
    3FTM    C1111239   5.908  -0.149   1.314  0.0361 -0.3455 -0.0383
    3FTM    C1211240   5.964  -0.175   1.175 -0.0716 -0.4135 -0.4447
    4TPM     C111241   5.799   0.799   1.004 -0.0358  0.1570  0.1588
    4TPM     C211242   5.787   0.933   0.990 -0.0452  0.1771  0.3500
    4TPM     C311243   5.911   1.005   0.999 -0.0422  0.1668  0.3901
    4TPM     C411244   6.019   0.924   1.021 -0.0305  0.1388  0.2294
    4TPM     S111245   5.971   0.751   1.031 -0.0224  0.1232  0.0135
    5BDD     C111246   6.356   1.119   1.060 -0.1350  0.0493  0.1434
    5BDD     C211247   6.347   1.039   1.171 -0.1252  0.0624  0.1536
    5BDD     C311248   6.227   0.958   1.174 -0.0137 -0.1091  0.0579
    5BDD     C411249   6.145   0.978   1.066  0.0599 -0.2505 -0.0240
    5BDD     S111250   6.213   1.099   0.953 -0.0052 -0.1786  0.0132
    5BDD     C511251   6.450   1.034   1.277 -0.2178  0.2330  0.2518
    5BDD     C611252   6.197   0.864   1.284  0.0159 -0.1265  0.0510
    5BDD     O111253   6.093   0.795   1.287  0.1119 -0.2744 -0.0316
    5BDD     O211254   6.554   1.104   1.274 -0.3139  0.3809  0.3344
    5BDD     C711255   6.299   0.859   1.391 -0.0769  0.0441  0.1492
    5BDD     C811256   6.420   0.940   1.387 -0.1884  0.2156  0.2450
    5BDD     C911257   6.501   0.921   1.495 -0.2618  0.3570  0.3269
    5BDD     S211258   6.433   0.800   1.609 -0.1967  0.2851  0.2897
    5BDD    C1011259   6.291   0.779   1.501 -0.0670  0.0573  0.1594
    5BDD    C1111260   6.188   0.677   1.544  0.1336 -0.4055  0.0857
    5BDD    C1211261   6.220   0.528   1.538 -0.0870  0.2633 -0.1416
    5BDD    C1311262   6.105   0.462   1.609 -0.4580 -0.1490  0.1159
    5BDD    C1411263   6.111   0.317   1.638  0.4140  0.9384  0.2664
    5BDD    C1511264   6.239   0.263   1.704  0.1070 -0.7744  0.0953
    5BDD    C1611265   6.251   0.307   1.851  0.1603 -0.0559 -0.0030
    5BDD    C1711266   6.253   0.475   1.398 -0.8940  0.0512 -0.1758
    5BDD    C1811267   6.151   0.486   1.284  0.8797 -0.0502 -0.0666
    5BDD    C1911268   6.631   0.972   1.546 -0.1554 -0.3245 -0.0670
    5BDD    C2011269   6.657   1.126   1.559 -0.4743 -0.0089  0.3761
    5BDD    C2111270   6.800   1.128   1.614  1.3716 -0.6914 -0.2043
    5BDD    C2211271   6.870   1.263   1.644  0.3613  0.4450  0.1988
    5BDD    C2311272   6.999   1.244   1.719  0.2458  1.0874 -0.0417
    5BDD    C2411273   7.087   1.358   1.730  0.0649 -1.0611 -0.0221
    5BDD    C2511274   6.543   1.221   1.618 -0.4474 -0.0341 -0.0995
    5BDD    C2611275   6.495   1.185   1.757  0.3196  0.0065 -0.0715
    6TPM     C111276   6.458   1.213   1.001  0.0439 -0.0118 -0.0454
    6TPM     C211277   6.458   1.223   0.865  0.0615  0.0794 -0.0385
    6TPM     C311278   6.567   1.301   0.813  0.0418  0.1542  0.0305
    6TPM     C411279   6.651   1.349   0.909  0.0093  0.1200  0.0762
    6TPM     S111280   6.598   1.300   1.074  0.0009 -0.0102  0.0353
    7BDTP    C111281   7.201   1.639   0.807 -0.0004 -0.0450 -0.1396
    7BDTP    C211282   7.181   1.658   0.947 -0.0298  0.0758 -0.1604
    7BDTP    C311283   7.068   1.611   1.013 -0.0209  0.0911 -0.1348
    7BDTP    C411284   6.971   1.542   0.939  0.0188 -0.0178 -0.0865
    7BDTP    C511285   6.991   1.523   0.799  0.0483 -0.1386 -0.0657
    7BDTP    C611286   7.103   1.570   0.732  0.0395 -0.1539 -0.0913
    7BDTP    C711287   6.846   1.485   0.986  0.0350 -0.0254 -0.0529
    7BDTP    C811288   6.773   1.424   0.889  0.0747 -0.1447 -0.0085
    7BDTP    S111289   6.851   1.431   0.725  0.0974 -0.2640 -0.0030
    7BDTP    C911290   7.325   1.696   0.760 -0.0165 -0.0373 -0.1733
    7BDTP   C1011291   7.398   1.757   0.856 -0.0564  0.0820 -0.2176
    7BDTP    S211292   7.320   1.750   1.020 -0.0789  0.2013 -0.2231
    8FTM     S111293   6.992   1.546   1.288 -0.3284  0.0113  0.3527
    8FTM     C111294   6.969   1.692   1.392  0.2436  0.1403  0.3033
    8FTM     C211295   7.000   1.804   1.322  0.2129  0.0278  0.1077
    8FTM     C311296   7.043   1.784   1.186 -0.2466 -0.1611 -0.0127
    8FTM     C411297   7.044   1.652   1.151 -0.5784 -0.1942  0.0942
    8FTM     F111298   6.992   1.931   1.376  0.5988  0.0891  0.0262
    8FTM     C511299   6.904   1.676   1.527  0.7149 -0.5453 -0.1162
    8FTM     C611300   6.765   1.736   1.543  0.1668 -0.4906  0.1730
    8FTM     C711301   6.717   1.741   1.689 -0.1589  0.1469 -0.2198
    8FTM     C811302   6.717   1.610   1.767 -0.1187  0.2884 -0.3808
    8FTM     C911303   6.659   1.615   1.902 -0.1483 -0.1350 -0.0357
    8FTM    C1011304   6.534   1.697   1.928  0.6808  1.0188  0.0919
    8FTM    C1111305   6.653   1.685   1.446  0.1332  0.9326  0.7698
    8FTM    C1211306   6.610   1.531   1.436 -0.0728 -0.2194  0.0084
    9FTM     S111307   7.006   1.571   0.457  0.3249  0.2346  0.5206
    9FTM     C111308   7.126   1.514   0.335  0.3489  0.3695  0.4799
    9FTM     C211309   7.243   1.483   0.397  0.3062  0.2093  0.4825
    9FTM     C311310   7.247   1.502   0.539  0.2534 -0.0224  0.5154
    9FTM     C411311   7.128   1.549   0.588  0.2559 -0.0403  0.5388
    9FTM     F111312   7.355   1.436   0.329  0.3122  0.2632  0.4552
    9FTM     C511313   7.073   1.481   0.198 -0.7793 -0.4835  0.2827
    9FTM     C611314   7.044   1.599   0.105 -0.0036  0.2782 -0.5905
    9FTM     C711315   6.923   1.692   0.128  0.3106  0.1983 -0.0360
    9FTM     C811316   6.789   1.637   0.146 -0.0321  0.6368  0.2511
    9FTM     C911317   6.692   1.753   0.185 -0.1404  0.2758  0.1174
    9FTM    C1011318   6.555   1.704   0.204 -0.2595  0.1449 -0.3600
    9FTM    C1111319   7.166   1.679   0.058 -0.0033 -0.0558 -0.2769
    9FTM    C1211320   7.300   1.609   0.018 -0.3473 -0.4047  0.0916
   10TPM     C111321   7.535   1.809   0.847 -0.1811  0.0824 -0.1944
   10TPM     C211322   7.608   1.881   0.937 -0.1229 -0.2135 -0.0035
   10TPM     C311323   7.738   1.919   0.888 -0.1049 -0.1622  0.0851
   10TPM     C411324   7.764   1.877   0.761 -0.1495  0.1729 -0.0382
   10TPM     S111325   7.625   1.784   0.693 -0.2182  0.4517 -0.2777
   11BDD     C111326   8.114   1.935   0.590 -0.0027 -0.4018 -0.0555
   11BDD     C211327   8.024   2.011   0.521  0.0019 -0.3784 -0.0357
   11BDD     C311328   7.889   2.005   0.576  0.0383 -0.2442  0.0697
   11BDD     C411329   7.879   1.925   0.686  0.0610 -0.1673  0.1286
   11BDD     S111330   8.036   1.850   0.728  0.0381 -0.2576  0.0563
   11BDD     C511331   8.058   2.092   0.403 -0.0269 -0.4783 -0.1127
   11BDD     C611332   7.777   2.080   0.517  0.0495 -0.1972  0.1081
   11BDD     O111333   7.661   2.075   0.564  0.0809 -0.0815  0.1989
   11BDD     O211334   8.174   2.097   0.356 -0.0584 -0.5940 -0.2036
   11BDD     C711335   7.811   2.161   0.398  0.0205 -0.2972  0.0310
   11BDD     C811336   7.945   2.167   0.344 -0.0161 -0.4314 -0.0744
   11BDD     C911337   7.956   2.248   0.234 -0.0387 -0.5082 -0.1333
   11BDD     S211338   7.799   2.322   0.191 -0.0158 -0.4180 -0.0609
   11BDD    C1011339   7.721   2.238   0.329  0.0252 -0.2737  0.0509
   11BDD    C1111340   7.573   2.253   0.337  0.6598  0.1975 -0.3869
   11BDD    C1211341   7.518   2.390   0.377  0.0170  0.0241  0.5644
   11BDD    C1311342   7.385   2.422   0.311 -0.1515  0.1373  0.0155
   11BDD    C1411343   7.245   2.358   0.364 -0.2002  0.2817  0.0395
   11BDD    C1511344   7.138   2.383   0.254 -0.0713  0.1321 -0.5747
   11BDD    C1611345   7.008   2.383   0.324 -0.0466 -0.3005  0.1361
   11BDD    C1711346   7.520   2.409   0.524 -0.0738  0.2218 -0.1690
   11BDD    C1811347   7.472   2.542   0.595 -0.2170  0.0426  0.1819
   11BDD    C1911348   8.081   2.280   0.145 -0.1323  0.2418 -0.0687
   11BDD    C2011349   8.136   2.427   0.143 -0.0354  0.8154  1.1022
   11BDD    C2111350   8.156   2.507   0.268 -0.2104 -0.3605  0.4502
   11BDD    C2211351   8.244   2.454   0.375  0.3478  0.3285 -0.2131
   11BDD    C2311352   8.390   2.445   0.341 -0.3631  0.2593  0.1083
   11BDD    C2411353   8.483   2.381   0.449 -0.1082 -0.3638 -0.4358
   11BDD    C2511354   8.075   2.512   0.034  0.3053  0.1422 -0.0475
   11BDD    C2611355   8.077   2.458  -0.110  0.3276  0.2238  0.6152
   12TPM     C111356   8.253   1.886   0.577  0.1318  0.2996  0.7801
   12TPM     C211357   8.358   1.962   0.536  0.1380  0.4661  1.0969
   12TPM     C311358   8.484   1.892   0.535  0.1230  0.4385  0.7477
   12TPM     C411359   8.474   1.762   0.576  0.1049  0.2509  0.1646
   12TPM     S111360   8.304   1.718   0.618  0.1058  0.0934  0.0102
   13BDTP    C111361   8.979   1.452   0.792  0.0014 -0.3960 -0.1733
   13BDTP    C211362   8.878   1.415   0.885  0.0114 -0.1398 -0.0583
   13BDTP    C311363   8.747   1.460   0.875  0.0792  0.0731  0.0056
   13BDTP    C411364   8.714   1.546   0.769  0.1392  0.0318 -0.0464
   13BDTP    C511365   8.815   1.583   0.676  0.1292 -0.2244 -0.1614
   13BDTP    C611366   8.946   1.538   0.686  0.0615 -0.4373 -0.2253
   13BDTP    C711367   8.585   1.605   0.738  0.2146  0.2218  0.0026
   13BDTP    C811368   8.585   1.684   0.628  0.2604  0.1219 -0.0692
   13BDTP    S111369   8.748   1.694   0.548  0.2153 -0.2268 -0.2089
   13BDTP    C911370   9.107   1.393   0.823 -0.0734 -0.5860 -0.2223
   13BDTP   C1011371   9.108   1.314   0.933 -0.1199 -0.4861 -0.1505
   13BDTP    S211372   8.945   1.304   1.013 -0.0744 -0.1373 -0.0108
   14FTM     S111373   8.588   1.533   1.103  0.0532 -0.0538  0.3009
   14FTM     C111374   8.456   1.419   1.147  0.0851 -0.1339  0.1908
   14FTM     C211375   8.458   1.311   1.065  0.1481 -0.0786  0.1199
   14FTM     C311376   8.560   1.311   0.964  0.1748  0.0270  0.1460
   14FTM     C411377   8.639   1.422   0.970  0.1305  0.0533  0.2401
   14FTM     F111378   8.368   1.207   1.075  0.1853 -0.1202  0.0270
   14FTM     C511379   8.358   1.453   1.255  0.2788  0.4916  0.3477
   14FTM     C611380   8.282   1.586   1.269 -0.5879 -0.2986  0.0602
   14FTM     C711381   8.201   1.640   1.155  0.0404  0.0802  1.0121
   14FTM     C811382   8.254   1.717   1.025  0.3511 -0.2440 -0.0210
   14FTM     C911383   8.345   1.832   1.069  0.2646 -0.4699  0.2486
   14FTM    C1011384   8.431   1.888   0.953  0.0995  0.4958 -0.0200
   14FTM    C1111385   8.241   1.632   1.406  0.4396 -0.4279 -0.3340
   14FTM    C1211386   8.218   1.788   1.427  0.0813 -0.1749  0.2250
   15FTM     S111387   9.172   1.479   0.521 -0.3840 -0.1689 -0.1349
   15FTM     C111388   9.246   1.618   0.433 -0.0594 -0.1332  0.1914
   15FTM     C211389   9.180   1.733   0.462 -0.0262 -0.1079  0.1689
   15FTM     C311390   9.069   1.720   0.553 -0.2458 -0.1146 -0.0970
   15FTM     C411391   9.051   1.592   0.594 -0.4538 -0.1460 -0.2843
   15FTM     F111392   9.215   1.856   0.409  0.2048 -0.0773  0.3878
   15FTM     C511393   9.368   1.594   0.349  0.4336  0.1726  0.4200
   15FTM     C611394   9.502   1.606   0.423 -0.0432  0.0392  0.0582
   15FTM     C711395   9.536   1.741   0.490 -0.0261 -0.7472 -0.0166
   15FTM     C811396   9.558   1.867   0.405  0.0580 -0.7232  0.1565
   15FTM     C911397   9.663   1.859   0.290  0.1119  0.8038 -0.1619
   15FTM    C1011398   9.702   2.000   0.246  0.1525  0.1485 -0.0358
   15FTM    C1111399   9.541   1.499   0.521  0.4026  0.3297 -0.1417
   15FTM    C1211400   9.476   1.489   0.663 -0.7731  0.7971 -0.4377
   16TPM     C111401   9.214   1.244   0.990 -0.0488  0.1965  0.7372
   16TPM     C211402   9.212   1.132   1.068  0.1254  0.0531  0.5362
   16TPM     C311403   9.342   1.095   1.119  0.2449 -0.0561  0.1577
   16TPM     C411404   9.442   1.178   1.080  0.1611  0.0040  0.0701
   16TPM     S111405   9.381   1.312   0.975 -0.0762  0.2047  0.4618
   17BDD     C111406   9.756   1.049   1.279  0.1149 -0.0818  0.1825
   17BDD     C211407   9.808   1.142   1.193  0.0161 -0.0201  0.1898
   17BDD     C311408   9.707   1.204   1.109 -0.0726 -0.0020  0.3093
   17BDD     C411409   9.581   1.158   1.133 -0.0401 -0.0502  0.3915
   17BDD     S111410   9.579   1.033   1.261  0.1040 -0.1215  0.3248
   17BDD     C511411   9.951   1.176   1.184 -0.0005  0.0244  0.0871
   17BDD     C611412   9.740   1.308   1.009 -0.1864  0.0623  0.3377
   17BDD     O111413   9.654   1.362   0.937 -0.2628  0.0780  0.4408
   17BDD     O211414  10.038   1.122   1.256  0.0760  0.0088 -0.0160
   17BDD     C711415   9.884   1.342   1.000 -0.2029  0.1069  0.2350
   17BDD     C811416   9.984   1.279   1.084 -0.1143  0.0888  0.1155
   17BDD     C911417  10.111   1.325   1.060 -0.1468  0.1369  0.0333
   17BDD     S211418  10.113   1.450   0.932 -0.2907  0.2082  0.1000
   17BDD    C1011419   9.935   1.435   0.914 -0.3018  0.1685  0.2423
   17BDD    C1111420   9.880   1.522   0.811  0.0277 -0.2356  0.3653
   17BDD    C1211421   9.926   1.490   0.661 -0.6907  0.0933 -0.4041
   17BDD    C1311422   9.914   1.591   0.554  0.0177 -0.4615 -0.2494
   17BDD    C1411423   9.901   1.739   0.580  0.0355 -0.7558  0.0327
   17BDD    C1511424  10.007   1.820   0.643 -0.2128 -0.0875 -0.0431
   17BDD    C1611425  10.005   1.963   0.591 -0.7010 -0.5458 -0.1182
   17BDD    C1711426   9.920   1.348   0.606  0.8265  0.3047  0.5420
   17BDD    C1811427  10.005   1.285   0.489  0.1971  0.1567  0.5073
   17BDD    C1911428  10.247   1.299   1.119 -0.2188  0.1248  0.2225
   17BDD    C2011429  10.281   1.384   1.243  0.0776 -0.3485  0.5903
   17BDD    C2111430  10.405   1.336   1.305 -0.1359 -0.2228 -1.1636
   17BDD    C2211431  10.406   1.189   1.359  0.3453  0.0241  0.0951
   17BDD    C2311432  10.306   1.159   1.472 -0.1988  0.1233  0.0196
   17BDD    C2411433  10.291   1.010   1.492  0.1023  0.2974 -0.0787
   17BDD    C2511434  10.267   1.539   1.221 -0.1456 -0.0817 -0.4313
   17BDD    C2611435  10.301   1.633   1.340  0.1665  0.2692 -0.6501
   18TPM     C111436   9.807   0.959   1.385  0.1847  0.1466  0.3553
   18TPM     C211437   9.934   0.908   1.385  0.2836  0.3851  0.6794
   18TPM     C311438   9.957   0.808   1.486  0.1981  0.3895  0.7036
   18TPM     C411439   9.848   0.782   1.563  0.0342  0.1544  0.3980
   18TPM     S111440   9.706   0.883   1.514 -0.0256 -0.0928  0.0533
   19BDTP    C111441   9.846   0.390   2.053 -0.0136 -0.1210 -0.0319
   19BDTP    C211442   9.708   0.396   2.018 -0.0035 -0.1219 -0.0712
   19BDTP    C311443   9.661   0.471   1.911  0.0319 -0.1568 -0.1116
   19BDTP    C411444   9.755   0.545   1.836  0.0585 -0.1925 -0.1133
   19BDTP    C511445   9.893   0.539   1.872  0.0484 -0.1916 -0.0739
   19BDTP    C611446   9.939   0.463   1.978  0.0131 -0.1567 -0.0336
   19BDTP    C711447   9.730   0.630   1.722  0.0968 -0.2322 -0.1512
   19BDTP    C811448   9.842   0.688   1.670  0.1157 -0.2608 -0.1423
   19BDTP    S111449   9.993   0.642   1.760  0.0876 -0.2414 -0.0847
   19BDTP    C911450   9.870   0.304   2.168 -0.0519 -0.0813  0.0060
   19BDTP   C1011451   9.759   0.247   2.219 -0.0708 -0.0528 -0.0029
   19BDTP    S211452   9.607   0.292   2.130 -0.0428 -0.0721 -0.0605
   20FTM     S111453   9.451   0.469   1.726 -0.2785 -0.0892 -0.0343
   20FTM     C111454   9.286   0.504   1.788 -0.2441 -0.7904  0.4736
   20FTM     C211455   9.290   0.526   1.922  0.0272 -1.0595  0.5110
   20FTM     C311456   9.420   0.517   1.983  0.2205 -0.7445  0.1557
   20FTM     C411457   9.517   0.488   1.893  0.0922 -0.2169 -0.1643
   20FTM     F111458   9.178   0.555   1.998  0.1173 -1.6070  0.8693
   20FTM     C511459   9.171   0.511   1.694 -0.1634  0.2289  0.2790
   20FTM     C611460   9.192   0.554   1.549 -0.3596 -0.0908  0.2227
   20FTM     C711461   9.219   0.703   1.533 -0.7227 -0.3021 -0.1368
   20FTM     C811462   9.106   0.804   1.565 -0.0114  0.5569  0.1118
   20FTM     C911463   8.984   0.785   1.482  0.1903 -0.2911 -0.2904
   20FTM    C1011464   8.886   0.898   1.508 -0.1696  0.0642  0.0955
   20FTM    C1111465   9.260   0.461   1.451 -0.2188  0.7007  0.3983
   20FTM    C1211466   9.219   0.307   1.450 -0.0944 -0.1146  0.1009
   21FTM     S111467  10.164   0.313   2.073 -0.2544 -0.0135  0.2296
   21FTM     C111468  10.321   0.401   2.077 -0.0816 -0.3182  0.1889
   21FTM     C211469  10.303   0.530   2.039  0.2012 -0.3453 -0.0446
   21FTM     C311470  10.169   0.568   2.005  0.2985 -0.1359 -0.2022
   21FTM     C411471  10.081   0.464   2.018  0.0832  0.0580 -0.0858
   21FTM     F111472  10.406   0.622   2.032  0.3888 -0.5614 -0.1295
   21FTM     C511473  10.456   0.336   2.111  0.4486 -0.0549 -0.1298
   21FTM     C611474  10.570   0.412   2.183  1.3061 -0.7822  0.1245
   21FTM     C711475  10.707   0.345   2.167  0.5697  0.5718  0.2048
   21FTM     C811476  10.763   0.311   2.030 -0.0905 -0.3666 -0.5077
   21FTM     C911477  10.896   0.235   2.026 -0.9666 -0.0898 -0.1017
   21FTM    C1011478  10.973   0.255   1.901 -0.2269  0.4120  0.5292
   21FTM    C1111479  10.537   0.450   2.331 -0.0548 -0.5180 -0.2182
   21FTM    C1211480  10.644   0.506   2.421  0.4966  0.3331  0.0656
   22TPM     C111481   9.753   0.157   2.327 -0.0311 -0.2501 -0.1277
   22TPM     C211482   9.649   0.103   2.395  0.0164 -0.3657 -0.1470
   22TPM     C311483   9.689   0.012   2.500  0.0960 -0.3622 -0.1741
   22TPM     C411484   9.824  -0.003   2.511  0.1091 -0.2440 -0.1755
   22TPM     S111485   9.912   0.098   2.390  0.0214 -0.1269 -0.1425
   23BDD     C111486  10.075  -0.259   2.663 -0.2275  0.0526 -0.2106
   23BDD     C211487   9.989  -0.232   2.766 -0.1314  0.0463 -0.1282
   23BDD     C311488   9.884  -0.140   2.730 -0.0733  0.1712  0.0224
   23BDD     C411489   9.891  -0.097   2.601 -0.1258  0.2711  0.0525
   23BDD     S111490  10.030  -0.169   2.515 -0.2517  0.2155 -0.1054
   23BDD     C511491  10.001  -0.292   2.901 -0.0896 -0.0756 -0.1849
   23BDD     C611492   9.779  -0.097   2.826  0.0323  0.1867  0.1307
   23BDD     O111493   9.688  -0.017   2.795  0.0825  0.2942  0.2605
   23BDD     O211494  10.092  -0.372   2.932 -0.1398 -0.1833 -0.3147
   23BDD     C711495   9.791  -0.156   2.961  0.0741  0.0651  0.0741
   23BDD     C811496   9.897  -0.249   2.997  0.0159 -0.0598 -0.0764
   23BDD     C911497   9.890  -0.292   3.126  0.0684 -0.1600 -0.1066
   23BDD     S211498   9.750  -0.219   3.213  0.1944 -0.1043  0.0513
   23BDD    C1011499   9.705  -0.130   3.064  0.1702  0.0587  0.1565
   23BDD    C1111500   9.575  -0.047   3.080 -0.7635  0.7910  0.8828
   23BDD    C1211501   9.443  -0.115   3.043 -0.1406  0.1020  0.3182
   23BDD    C1311502   9.322  -0.022   3.042 -0.5832  0.0515 -0.1142
   23BDD    C1411503   9.330   0.093   2.938  0.6278 -0.1581  0.2124
   23BDD    C1511504   9.314   0.054   2.785  0.1842  0.1475  0.3230
   23BDD    C1611505   9.345   0.160   2.683 -0.2252  0.6551 -0.3515
   23BDD    C1711506   9.407  -0.255   3.100  0.1755 -0.0980 -0.1011
   23BDD    C1811507   9.370  -0.275   3.251 -0.2676 -0.0501 -0.1195
   23BDD    C1911508   9.984  -0.364   3.219 -0.7889  0.3791  0.0633
   23BDD    C2011509   9.955  -0.519   3.235 -0.8268  0.1500  0.1217
   23BDD    C2111510  10.063  -0.587   3.327 -0.0784 -0.0132 -0.4238
   23BDD    C2211511  10.209  -0.573   3.283 -0.0607 -0.3181 -0.1568
   23BDD    C2311512  10.308  -0.626   3.383 -1.1395 -0.0656 -0.2911
   23BDD    C2411513  10.454  -0.604   3.339 -0.6751  0.1389  0.4423
   23BDD    C2511514   9.811  -0.566   3.264  0.0221 -0.2874  0.2342
   23BDD    C2611515   9.773  -0.712   3.272  0.4074  0.1683 -0.4239
   24TPM     C111516  10.191  -0.335   2.640 -0.2391  0.4549 -0.0536
   24TPM     C211517  10.205  -0.466   2.676 -0.4380  0.4506  0.0070
   24TPM     C311518  10.322  -0.529   2.622 -0.5664  0.2286 -0.0166
   24TPM     C411519  10.399  -0.446   2.546 -0.4655  0.0640 -0.0953
   24TPM     S111520  10.327  -0.281   2.535 -0.1984  0.1769 -0.1460
   25BDTP    C111521  10.950  -0.440   2.241 -0.0922 -0.0622 -0.2765
   25BDTP    C211522  10.977  -0.528   2.350 -0.0262 -0.0119 -0.2527
   25BDTP    C311523  10.881  -0.563   2.443  0.0043 -0.0477 -0.2346
   25BDTP    C411524  10.751  -0.510   2.428 -0.0319 -0.1369 -0.2401
   25BDTP    C511525  10.724  -0.422   2.319 -0.0979 -0.1864 -0.2640
   25BDTP    C611526  10.821  -0.387   2.226 -0.1284 -0.1511 -0.2821
   25BDTP    C711527  10.635  -0.532   2.512 -0.0108 -0.1879 -0.2244
   25BDTP    C811528  10.524  -0.466   2.472 -0.0572 -0.2725 -0.2351
   25BDTP    S111529  10.551  -0.367   2.322 -0.1341 -0.2995 -0.2667
   25BDTP    C911530  11.066  -0.418   2.157 -0.1132 -0.0107 -0.2923
   25BDTP   C1011531  11.178  -0.484   2.197 -0.0669  0.0739 -0.2816
   25BDTP    S211532  11.151  -0.583   2.347  0.0100  0.1011 -0.2500
   26FTM     S111533  11.057  -0.609   2.657 -0.3789  0.0832 -0.1900
   26FTM     C111534  11.035  -0.761   2.750  0.3723  0.1575  0.1297
   26FTM     C211535  10.928  -0.830   2.701  0.6343 -0.4168  0.3448
   26FTM     C311536  10.859  -0.769   2.591  0.2756 -0.9367  0.2755
   26FTM     C411537  10.915  -0.650   2.554 -0.2792 -0.7549 -0.0014
   26FTM     F111538  10.887  -0.952   2.752  1.2146 -0.5054  0.6168
   26FTM     C511539  11.119  -0.786   2.873 -0.3086 -0.5206  0.4377
   26FTM     C611540  11.225  -0.899   2.871 -0.8896  0.8370 -0.1249
   26FTM     C711541  11.333  -0.916   2.758  1.0928 -0.3052  0.0481
   26FTM     C811542  11.448  -0.823   2.765 -0.4163 -0.5793 -0.2680
   26FTM     C911543  11.547  -0.833   2.645  0.2111  0.3946  0.1721
   26FTM    C1011544  11.496  -0.804   2.501  0.2969  0.0545 -0.7016
   26FTM    C1111545  11.271  -0.946   3.007  0.2706 -0.1842  0.0281
   26FTM    C1211546  11.335  -1.080   3.018  0.3366  0.1905 -0.3222
   27FTM     S111547  10.834  -0.325   1.946  0.1125 -0.2064  0.3339
   27FTM     C111548  10.729  -0.188   1.892  0.1359 -0.2184  0.2574
   27FTM     C211549  10.665  -0.134   1.999 -0.0452 -0.3064  0.1950
   27FTM     C311550  10.693  -0.193   2.126 -0.2093 -0.3688  0.2027
   27FTM     C411551  10.781  -0.297   2.116 -0.1519 -0.3268  0.2732
   27FTM     F111552  10.577  -0.027   1.988 -0.0733 -0.3362  0.1272
   27FTM     C511553  10.724  -0.133   1.755  0.1617 -0.7267 -0.0780
   27FTM     C611554  10.816  -0.184   1.641 -0.0560 -0.4994  0.5372
   27FTM     C711555  10.761  -0.187   1.497 -0.1923 -0.0910 -0.0393
   27FTM     C811556  10.633  -0.270   1.493  0.7857  0.1941 -0.3733
   27FTM     C911557  10.551  -0.218   1.370  0.4220  0.0276  0.1396
   27FTM    C1011558  10.425  -0.301   1.341  0.5208 -0.2150 -0.4752
   27FTM    C1111559  10.954  -0.110   1.648 -0.1142  0.2174 -0.2601
   27FTM    C1211560  11.064  -0.153   1.555 -1.0635  0.2746 -0.3234
   28TPM     C111561  11.311  -0.471   2.144 -0.1852  0.1724 -0.0700
   28TPM     C211562  11.384  -0.358   2.118 -0.1611  0.0837 -0.3899
   28TPM     C311563  11.523  -0.384   2.091 -0.1643 -0.0210 -0.3075
   28TPM     C411564  11.557  -0.516   2.097 -0.1908 -0.0122  0.0753
   28TPM     S111565  11.414  -0.619   2.137 -0.2140  0.1300  0.3636
   29BDD     C111566  11.893  -0.680   2.217  0.0318 -0.1622 -0.1271
   29BDD     C211567  11.929  -0.601   2.111  0.0522 -0.1116 -0.0824
   29BDD     C311568  11.817  -0.529   2.052  0.0621 -0.0899 -0.0748
   29BDD     C411569  11.698  -0.554   2.114  0.0491 -0.1246 -0.1137
   29BDD     S111570  11.717  -0.669   2.250  0.0235 -0.1864 -0.1627
   29BDD     C511571  12.067  -0.589   2.060  0.0634 -0.0808 -0.0451
   29BDD     C611572  11.833  -0.438   1.937  0.0842 -0.0355 -0.0291
   29BDD     O111573  11.737  -0.376   1.886  0.0928 -0.0167 -0.0226
   29BDD     O211574  12.163  -0.651   2.111  0.0548 -0.0997 -0.0517
   29BDD     C711575  11.971  -0.426   1.886  0.0954 -0.0050  0.0082
   29BDD     C811576  12.083  -0.498   1.945  0.0854 -0.0265  0.0006
   29BDD     C911577  12.202  -0.473   1.883  0.0985  0.0083  0.0395
   29BDD     S211578  12.183  -0.358   1.747  0.1240  0.0704  0.0885
   29BDD    C1011579  12.007  -0.348   1.780  0.1159  0.0463  0.0528
   29BDD    C1111580  11.928  -0.275   1.667 -0.8252 -0.0428  0.4716
   29BDD    C1211581  11.972  -0.132   1.638  0.0680 -0.2199  0.1456
   29BDD    C1311582  11.903  -0.084   1.502  0.0543  0.5550 -0.1808
   29BDD    C1411583  11.752  -0.049   1.523  0.0711 -0.0993  0.1079
   29BDD    C1511584  11.676  -0.029   1.396  0.1962 -0.7266  0.0852
   29BDD    C1611585  11.532   0.025   1.419 -0.0570  0.6486  0.4247
   29BDD    C1711586  11.985  -0.033   1.757 -0.5401  0.5624 -0.2962
   29BDD    C1811587  12.062   0.095   1.735 -0.2347 -0.0482 -0.0246
   29BDD    C1911588  12.348  -0.523   1.902 -0.2284  0.1617  0.0268
   29BDD    C2011589  12.402  -0.645   1.812  0.2090 -0.8603 -0.0023
   29BDD    C2111590  12.528  -0.722   1.856  0.3854 -0.7157 -0.6747
   29BDD    C2211591  12.567  -0.759   2.001  0.6218 -0.4117  1.1601
   29BDD    C2311592  12.468  -0.827   2.103 -0.5957 -0.2832  0.7422
   29BDD    C2411593  12.535  -0.835   2.240 -0.4135  0.9205 -0.0576
   29BDD    C2511594  12.394  -0.610   1.664 -0.2405 -0.0163  0.0853
   29BDD    C2611595  12.445  -0.702   1.557 -0.0745  0.5262 -0.0631
   30TPM     C111596  11.952  -0.776   2.310  0.0929 -0.0150  0.0139
   30TPM     C211597  12.064  -0.749   2.382  0.0520  0.1216  0.0276
   30TPM     C311598  12.079  -0.834   2.498  0.0478  0.2613  0.1306
   30TPM     C411599  11.979  -0.925   2.513  0.0854  0.2304  0.1955
   30TPM     S111600  11.856  -0.911   2.382  0.1294  0.0216  0.1309
   31BDTP    C111601  11.964  -1.372   2.962  0.0560  0.2029  0.3000
   31BDTP    C211602  11.834  -1.382   2.905  0.0525  0.1175  0.3228
   31BDTP    C311603  11.790  -1.300   2.802 -0.0259  0.1006  0.3426
   31BDTP    C411604  11.879  -1.202   2.753 -0.1047  0.1714  0.3397
   31BDTP    C511605  12.009  -1.192   2.810 -0.1012  0.2565  0.3169
   31BDTP    C611606  12.053  -1.275   2.913 -0.0229  0.2732  0.2971
   31BDTP    C711607  11.856  -1.105   2.648 -0.1937  0.1701  0.3576
   31BDTP    C811608  11.962  -1.024   2.623 -0.2564  0.2491  0.3493
   31BDTP    S111609  12.105  -1.059   2.730 -0.2116  0.3364  0.3178
   31BDTP    C911610  11.987  -1.469   3.067  0.1450  0.2041  0.2822
   31BDTP   C1011611  11.882  -1.550   3.092  0.2077  0.1249  0.2905
   31BDTP    S211612  11.739  -1.516   2.985  0.1630  0.0377  0.3220
   32FTM     S111613  11.548  -1.187   2.677 -0.1183 -0.0297  0.0265
   32FTM     C111614  11.441  -1.311   2.602  0.0078  0.0219 -0.2375
   32FTM     C211615  11.493  -1.435   2.621  0.1689  0.0372 -0.5598
   32FTM     C311616  11.617  -1.441   2.694  0.2033  0.0110 -0.6198
   32FTM     C411617  11.660  -1.318   2.732  0.0639 -0.0262 -0.3341
   32FTM     F111618  11.433  -1.550   2.573  0.2948  0.0765 -0.8198
   32FTM     C511619  11.313  -1.269   2.526  0.2647 -0.6505  0.1561
   32FTM     C611620  11.187  -1.217   2.606 -0.2153  0.1444 -0.0314
   32FTM     C711621  11.062  -1.181   2.529 -0.8927 -0.3630 -0.3566
   32FTM     C811622  11.076  -1.084   2.413  0.1372 -0.8446 -0.2297
   32FTM     C911623  10.936  -1.065   2.355  0.6296 -0.1106 -0.3832
   32FTM    C1011624  10.923  -0.953   2.253  0.1708 -0.1513  0.0725
   32FTM    C1111625  11.143  -1.303   2.731 -0.2707 -0.1014 -0.5183
   32FTM    C1211626  11.103  -1.452   2.716 -0.2904 -0.3661 -0.2945
   33FTM     S111627  12.224  -1.175   3.122 -0.0110 -0.0443  0.0690
   33FTM     C111628  12.388  -1.249   3.125  0.1243  0.2533  0.1110
   33FTM     C211629  12.405  -1.328   3.015  0.4649  0.6459 -0.1221
   33FTM     C311630  12.294  -1.335   2.925  0.6372  0.7362 -0.3421
   33FTM     C411631  12.189  -1.259   2.966  0.4215  0.4026 -0.2755
   33FTM     F111632  12.522  -1.398   2.990  0.6409  0.9456 -0.1499
   33FTM     C511633  12.503  -1.222   3.226  0.0254 -0.1493  0.1679
   33FTM     C611634  12.478  -1.168   3.369 -0.2322 -0.3773  0.5015
   33FTM     C711635  12.414  -1.266   3.469  0.5328 -0.3094 -0.5501
   33FTM     C811636  12.516  -1.329   3.559 -0.3775  0.5313 -0.6003
   33FTM     C911637  12.456  -1.373   3.690  0.7005 -0.2997 -0.2997
   33FTM    C1011638  12.558  -1.435   3.783  0.7196 -0.0621  0.4111
   33FTM    C1111639  12.416  -1.029   3.376 -0.6133 -0.0464 -0.2833
   33FTM    C1211640  12.480  -0.904   3.313  0.1110 -0.1876 -0.1406
   34TPM     C111641  11.877  -1.662   3.179  0.5183 -0.1985 -0.0805
   34TPM     C211642  11.836  -1.790   3.155  0.0125 -0.0634  0.0492
   34TPM     C311643  11.828  -1.872   3.273 -0.5070  0.1373  0.1612
   34TPM     C411644  11.864  -1.807   3.387 -0.3972  0.1553  0.1169
   34TPM     S111645  11.910  -1.636   3.355  0.3767 -0.0816 -0.0710
   35BDD     C111646  11.851  -2.002   3.726  0.0648 -0.0966  0.0494
   35BDD     C211647  11.744  -1.917   3.729  0.0829 -0.0727  0.0054
   35BDD     C311648  11.732  -1.836   3.609  0.1728 -0.0429  0.0167
   35BDD     C411649  11.830  -1.861   3.517  0.2219 -0.0447  0.0691
   35BDD     S111650  11.944  -1.987   3.574  0.1589 -0.0837  0.1080
   35BDD     C511651  11.649  -1.906   3.841  0.0184 -0.0764 -0.0486
   35BDD     C611652  11.625  -1.736   3.590  0.2068 -0.0141 -0.0249
   35BDD     O111653  11.615  -1.666   3.487  0.2843  0.0117 -0.0151
   35BDD     O211654  11.659  -1.976   3.945 -0.0592 -0.1020 -0.0583
   35BDD     C711655  11.530  -1.726   3.703  0.1422 -0.0175 -0.0789
   35BDD     C811656  11.541  -1.807   3.823  0.0523 -0.0472 -0.0903
   35BDD     C911657  11.443  -1.782   3.915  0.0033 -0.0454 -0.1426
   35BDD     S211658  11.330  -1.655   3.858  0.0662 -0.0065 -0.1815
   35BDD    C1011659  11.423  -1.640   3.705  0.1604  0.0066 -0.1229
   35BDD    C1111660  11.358  -1.547   3.610 -0.3724 -0.1508  0.7319
   35BDD    C1211661  11.352  -1.394   3.643  0.6788  0.6139 -0.1767
   35BDD    C1311662  11.474  -1.327   3.716  0.0422  0.4770 -0.0922
   35BDD    C1411663  11.459  -1.194   3.783 -0.4962 -0.4839 -0.0039
   35BDD    C1511664  11.338  -1.191   3.880 -0.0104 -0.1213 -0.0312
   35BDD    C1611665  11.305  -1.047   3.932  0.0722  0.2719  0.1116
   35BDD    C1711666  11.279  -1.310   3.535  0.1630 -0.2331 -0.3748
   35BDD    C1811667  11.332  -1.278   3.398  0.4910 -0.2358  0.3454
   35BDD    C1911668  11.401  -1.854   4.043  0.1371 -0.8256 -0.0161
   35BDD    C2011669  11.370  -1.758   4.167 -0.6478 -0.0508  0.1997
   35BDD    C2111670  11.488  -1.660   4.218  0.0194  0.0569  0.1163
   35BDD    C2211671  11.604  -1.702   4.294 -0.0642 -0.1247 -0.1208
   35BDD    C2311672  11.707  -1.595   4.333 -0.1818  0.4643  0.4486
   35BDD    C2411673  11.652  -1.491   4.437  0.8574  0.0704  0.2905
   35BDD    C2511674  11.300  -1.820   4.281  0.6340  0.3140 -0.5172
   35BDD    C2611675  11.236  -1.737   4.392 -0.1899 -0.0198  0.6561
   36TPM     C111676  11.908  -2.096   3.812  0.0838 -0.1796 -0.0791
   36TPM     C211677  11.825  -2.184   3.875  0.1329 -0.2283 -0.0829
   36TPM     C311678  11.894  -2.298   3.930  0.1861 -0.2326 -0.1573
   36TPM     C411679  12.029  -2.297   3.909  0.1776 -0.1871 -0.2103
   36TPM     S111680  12.080  -2.150   3.818  0.1011 -0.1352 -0.1699
   37BDTP    C111681  12.464  -2.715   4.087 -0.0995 -0.1374 -0.1849
   37BDTP    C211682  12.360  -2.738   4.181 -0.0342  0.0204 -0.0728
   37BDTP    C311683  12.241  -2.665   4.180  0.0251  0.1175 -0.0213
   37BDTP    C411684  12.225  -2.565   4.082  0.0198  0.0565 -0.0831
   37BDTP    C511685  12.330  -2.542   3.988 -0.0455 -0.1011 -0.1949
   37BDTP    C611686  12.448  -2.615   3.989 -0.1047 -0.1983 -0.2466
   37BDTP    C711687  12.112  -2.477   4.062  0.0739  0.1349 -0.0473
   37BDTP    C811688  12.126  -2.391   3.959  0.0526  0.0447 -0.1262
   37BDTP    S111689  12.286  -2.408   3.873 -0.0389 -0.1521 -0.2568
   37BDTP    C911690  12.578  -2.803   4.107 -0.1536 -0.2156 -0.2205
   37BDTP   C1011691  12.563  -2.889   4.210 -0.1323 -0.1255 -0.1415
   37BDTP    S211692  12.404  -2.872   4.296 -0.0408  0.0713 -0.0111
   38FTM     S111693  11.991  -2.782   4.213 -0.1830 -0.1155  0.0129
   38FTM     C111694  11.932  -2.808   4.381 -0.0528  0.2853  0.1229
   38FTM     C211695  12.022  -2.757   4.470 -0.0134  0.5542 -0.0668
   38FTM     C311696  12.139  -2.697   4.414 -0.0802  0.4672 -0.3031
   38FTM     C411697  12.139  -2.701   4.278 -0.1740  0.1201 -0.2945
   38FTM     F111698  12.003  -2.763   4.607  0.0856  0.8951 -0.0372
   38FTM     C511699  11.795  -2.859   4.405  0.0831  0.5359 -0.1452
   38FTM     C611700  11.669  -2.778   4.354 -0.7521 -0.1214  0.3886
   38FTM     C711701  11.656  -2.627   4.388  0.1198 -0.0766 -1.2181
   38FTM     C811702  11.732  -2.538   4.289  0.5608  0.3151 -0.1589
   38FTM     C911703  11.742  -2.388   4.319  0.4210 -0.3004 -0.4633
   38FTM    C1011704  11.811  -2.334   4.441 -0.0920 -0.2025 -0.0227
   38FTM    C1111705  11.541  -2.854   4.356  0.3175 -0.1252  0.3363
   38FTM    C1211706  11.416  -2.792   4.286 -0.0594  0.7254 -0.4368
   39FTM     S111707  12.726  -2.554   3.927  0.1220  0.0877 -0.1579
   39FTM     C111708  12.769  -2.542   3.753  0.1026  0.0709 -0.1637
   39FTM     C211709  12.658  -2.559   3.677  0.1387 -0.2046 -0.1567
   39FTM     C311710  12.535  -2.582   3.747  0.1827 -0.4140 -0.1465
   39FTM     C411711  12.553  -2.582   3.882  0.1802 -0.2952 -0.1458
   39FTM     F111712  12.660  -2.555   3.538  0.1342 -0.2831 -0.1590
   39FTM     C511713  12.906  -2.530   3.696 -0.6108 -0.2774 -0.2928
   39FTM     C611714  12.996  -2.656   3.695  0.0185 -0.0314 -0.8346
   39FTM     C711715  12.937  -2.783   3.623 -0.6204 -0.1437  0.5652
   39FTM     C811716  12.842  -2.877   3.696  0.2179 -0.1409 -0.0428
   39FTM     C911717  12.874  -2.919   3.839 -0.3432  0.7104 -0.4811
   39FTM    C1011718  12.994  -3.015   3.854  0.2613 -0.2155 -0.3588
   39FTM    C1111719  13.140  -2.619   3.674  0.1440 -0.2469  0.0884
   39FTM    C1211720  13.251  -2.722   3.692  0.0364 -0.2191  0.1536
   40TPM     C111721  12.663  -2.988   4.246 -0.3014  0.3674 -0.2031
   40TPM     C211722  12.798  -2.973   4.255 -0.3796  0.7942  0.3653
   40TPM     C311723  12.866  -3.089   4.308 -0.2375  1.0194  0.6819
   40TPM     C411724  12.782  -3.192   4.339 -0.0509  0.7646  0.3553
   40TPM     S111725  12.610  -3.150   4.304 -0.0402  0.2159 -0.3837
   41BDD     C111726  12.813  -3.501   4.569  0.1591  0.1228  0.1409
   41BDD     C211727  12.917  -3.513   4.481  0.0913  0.1349  0.0597
   41BDD     C311728  12.926  -3.402   4.388  0.0097  0.1395  0.0569
   41BDD     C411729  12.829  -3.307   4.407  0.0164  0.1305  0.1360
   41BDD     S111730  12.720  -3.350   4.542  0.1254  0.1160  0.2193
   41BDD     C511731  13.011  -3.626   4.479  0.0992  0.1427 -0.0181
   41BDD     C611732  13.030  -3.394   4.284 -0.0721  0.1521 -0.0241
   41BDD     O111733  13.038  -3.298   4.203 -0.1425  0.1560 -0.0265
   41BDD     O211734  13.003  -3.722   4.559  0.1697  0.1389 -0.0159
   41BDD     C711735  13.124  -3.507   4.281 -0.0643  0.1601 -0.1022
   41BDD     C811736  13.115  -3.618   4.374  0.0175  0.1556 -0.0993
   41BDD     C911737  13.212  -3.713   4.356  0.0108  0.1644 -0.1786
   41BDD     S211738  13.321  -3.669   4.220 -0.0982  0.1790 -0.2619
   41BDD    C1011739  13.228  -3.519   4.193 -0.1320  0.1723 -0.1835
   41BDD    C1111740  13.272  -3.442   4.072  0.2840 -0.3789 -0.1942
   41BDD    C1211741  13.253  -3.507   3.927 -0.5148 -0.3233 -0.7106
   41BDD    C1311742  13.128  -3.574   3.903  0.3905 -0.2519  0.6066
   41BDD    C1411743  13.000  -3.493   3.939 -0.8913  0.2084  0.1257
   41BDD    C1511744  12.875  -3.570   3.907 -0.1931  0.9437  0.1957
   41BDD    C1611745  12.738  -3.497   3.934 -0.2002  0.2038 -0.0884
   41BDD    C1711746  13.303  -3.421   3.811  0.6474  0.0471 -1.0407
   41BDD    C1811747  13.444  -3.374   3.814  0.0862 -0.1328  0.2279
   41BDD    C1911748  13.246  -3.845   4.427  0.5329 -0.6049 -0.2663
   41BDD    C2011749  13.167  -3.957   4.372 -0.2312 -0.3064  0.1526
   41BDD    C2111750  13.193  -4.089   4.453  0.6003 -0.1454 -0.3912
   41BDD    C2211751  13.159  -4.092   4.605 -0.2589 -0.1283  0.3702
   41BDD    C2311752  13.016  -4.050   4.636  0.2802 -0.1308  0.1353
   41BDD    C2411753  12.986  -4.039   4.779 -0.6062 -0.3041  0.4668
   41BDD    C2511754  13.178  -3.981   4.221 -0.0139 -0.1754  0.6859
   41BDD    C2611755  13.085  -4.076   4.146  0.4780 -0.2715 -0.0871
   42TPM     C111756  12.774  -3.572   4.694  0.4396  0.0116  0.0652
   42TPM     C211757  12.749  -3.706   4.687  0.6233 -0.0426  0.4071
   42TPM     C311758  12.660  -3.754   4.789  0.4770  0.1473  0.3700
   42TPM     C411759  12.617  -3.657   4.874  0.1818  0.3466 -0.0002
   42TPM     S111760  12.686  -3.496   4.831  0.0647  0.3093 -0.3331
   43BDTP    C111761  12.155  -3.727   5.295  0.0060  0.1023 -0.1470
   43BDTP    C211762  12.207  -3.598   5.329  0.0641  0.0877 -0.1805
   43BDTP    C311763  12.314  -3.541   5.262  0.1642 -0.0278 -0.1194
   43BDTP    C411764  12.374  -3.614   5.157  0.2090 -0.1340 -0.0207
   43BDTP    C511765  12.322  -3.742   5.124  0.1508 -0.1193  0.0129
   43BDTP    C611766  12.215  -3.800   5.190  0.0508 -0.0039 -0.0481
   43BDTP    C711767  12.486  -3.575   5.074  0.3112 -0.2629  0.0561
   43BDTP    C811768  12.520  -3.667   4.981  0.3323 -0.3448  0.1446
   43BDTP    S111769  12.416  -3.816   4.985  0.2257 -0.2701  0.1428
   43BDTP    C911770  12.043  -3.766   5.378 -0.0963  0.2311 -0.2238
   43BDTP   C1011771  12.009  -3.674   5.472 -0.1174  0.3130 -0.3120
   43BDTP    S211772  12.113  -3.525   5.467 -0.0107  0.2384 -0.3105
   44FTM     S111773  12.243  -3.271   5.339 -0.0782  0.2493  0.0433
   44FTM     C111774  12.382  -3.165   5.382 -0.1280  0.3116  0.0498
   44FTM     C211775  12.499  -3.230   5.361 -0.1055  0.2322  0.4071
   44FTM     C311776  12.489  -3.364   5.311 -0.0495  0.1209  0.6908
   44FTM     C411777  12.359  -3.403   5.294 -0.0285  0.1146  0.5459
   44FTM     F111778  12.623  -3.173   5.385 -0.1343  0.2556  0.4985
   44FTM     C511779  12.357  -3.027   5.419  0.0007  0.3474 -0.5822
   44FTM     C611780  12.375  -2.981   5.566 -1.1260  0.0449  0.0255
   44FTM     C711781  12.369  -2.824   5.583 -0.4673 -0.1334 -0.2482
   44FTM     C811782  12.467  -2.740   5.509  0.2477 -0.3605  0.9527
   44FTM     C911783  12.472  -2.602   5.573  0.2871 -0.5740 -0.3792
   44FTM    C1011784  12.588  -2.515   5.521  0.2756 -0.4606  0.9600
   44FTM    C1111785  12.291  -3.059   5.663  0.3722 -0.1703 -0.6686
   44FTM    C1211786  12.298  -3.022   5.815 -0.6111  0.5135  0.9107
   45FTM     S111787  12.136  -3.962   4.971  0.3476  0.1332  0.0229
   45FTM     C111788  12.116  -4.138   5.004  0.3228  0.1160 -0.0840
   45FTM     C211789  12.127  -4.162   5.137  0.1200  0.0603 -0.0767
   45FTM     C311790  12.151  -4.048   5.220 -0.0247  0.0286  0.0106
   45FTM     C411791  12.159  -3.933   5.148  0.0702  0.0609  0.0717
   45FTM     F111792  12.115  -4.289   5.192  0.0535  0.0350 -0.1482
   45FTM     C511793  12.103  -4.247   4.897 -0.8820  0.2065 -0.1054
   45FTM     C611794  12.154  -4.219   4.750  0.2967  0.2115 -0.1280
   45FTM     C711795  12.077  -4.113   4.666  0.2962  0.1586  0.7198
   45FTM     C811796  11.925  -4.139   4.655  0.2580  0.3270 -0.0916
   45FTM     C911797  11.844  -4.049   4.567 -0.3474 -0.3543 -0.1747
   45FTM    C1011798  11.714  -4.116   4.539 -0.5903 -0.0553  0.1587
   45FTM    C1111799  12.303  -4.178   4.735  0.2326 -0.2327  0.3537
   45FTM    C1211800  12.413  -4.264   4.801 -0.2713 -0.2540 -0.7962
   46TPM     C111801  11.890  -3.683   5.562  0.1838 -0.4129  0.4016
   46TPM     C211802  11.831  -3.592   5.645  0.4005 -0.5218  0.6769
   46TPM     C311803  11.712  -3.641   5.709  0.2269 -0.4008  0.4503
   46TPM     C411804  11.680  -3.769   5.675 -0.1222 -0.1996  0.0023
   46TPM     S111805  11.798  -3.839   5.558 -0.2599 -0.1468 -0.1695
   47BDD     C111806  11.303  -3.826   5.757 -0.0876 -0.1809 -0.2735
   47BDD     C211807  11.353  -3.952   5.742 -0.0682 -0.1848 -0.1732
   47BDD     C311808  11.496  -3.954   5.718 -0.0166 -0.1966  0.1196
   47BDD     C411809  11.553  -3.830   5.714  0.0026 -0.2014  0.2381
   47BDD     S111810  11.431  -3.701   5.741 -0.0426 -0.1915 -0.0085
   47BDD     C511811  11.272  -4.075   5.750 -0.0964 -0.1779 -0.3426
   47BDD     C611812  11.572  -4.080   5.699  0.0118 -0.2027  0.2711
   47BDD     O111813  11.695  -4.082   5.677  0.0563 -0.2130  0.5234
   47BDD     O211814  11.148  -4.073   5.772 -0.1408 -0.1676 -0.5950
   47BDD     C711815  11.490  -4.203   5.707 -0.0164 -0.1957  0.1016
   47BDD     C811816  11.347  -4.201   5.732 -0.0680 -0.1838 -0.1910
   47BDD     C911817  11.291  -4.325   5.735 -0.0871 -0.1791 -0.3093
   47BDD     S211818  11.413  -4.454   5.708 -0.0419 -0.1892 -0.0629
   47BDD    C1011819  11.541  -4.329   5.692  0.0030 -0.1998  0.2023
   47BDD    C1111820  11.676  -4.388   5.670 -0.2933  0.5341 -0.5465
   47BDD    C1211821  11.733  -4.382   5.525 -0.2354  0.2873  0.2775
   47BDD    C1311822  11.636  -4.429   5.406  0.0676  0.6352 -0.9523
   47BDD    C1411823  11.577  -4.575   5.402 -0.1780  0.0338 -0.2719
   47BDD    C1511824  11.559  -4.604   5.261  0.1214 -0.3840  0.6790
   47BDD    C1611825  11.495  -4.742   5.252 -0.3178 -0.1581  0.1713
   47BDD    C1711826  11.870  -4.452   5.524 -0.0250  0.4771  0.3920
   47BDD    C1811827  11.952  -4.444   5.394 -0.1110  0.1567 -0.1266
   47BDD    C1911828  11.150  -4.374   5.763 -0.2367  0.2902  0.3849
   47BDD    C2011829  11.049  -4.354   5.645  0.0935  0.2072 -0.6365
   47BDD    C2111830  11.073  -4.439   5.524 -0.4874  0.3122  0.2888
   47BDD    C2211831  11.034  -4.383   5.392  0.0589 -0.2972 -0.1924
   47BDD    C2311832  10.945  -4.478   5.316  0.4120 -0.2546  0.3585
   47BDD    C2411833  10.877  -4.418   5.187 -0.4397  0.3861 -0.2275
   47BDD    C2511834  10.899  -4.370   5.682  0.6042  0.8609 -0.3560
   47BDD    C2611835  10.851  -4.296   5.801  0.3336 -0.0573  0.4019
   48TPM     C111836  11.167  -3.768   5.780  0.1606 -0.1416 -0.3565
   48TPM     C211837  11.080  -3.826   5.867  0.2581 -0.2680 -0.3426
   48TPM     C311838  10.961  -3.749   5.890  0.2649 -0.3189 -0.1281
   48TPM     C411839  10.957  -3.632   5.820  0.1726 -0.2314  0.0216
   48TPM     S111840  11.104  -3.610   5.719  0.0691 -0.0768 -0.0977
   49BDTP    C111841  10.487  -3.206   5.828  0.0404  0.0141  0.1705
   49BDTP    C211842  10.604  -3.125   5.836  0.0854 -0.0471  0.1315
   49BDTP    C311843  10.732  -3.179   5.836  0.0580 -0.1122  0.0620
   49BDTP    C411844  10.746  -3.318   5.827 -0.0173 -0.1174  0.0291
   49BDTP    C511845  10.629  -3.399   5.819 -0.0623 -0.0564  0.0682
   49BDTP    C611846  10.501  -3.346   5.820 -0.0349  0.0087  0.1378
   49BDTP    C711847  10.868  -3.396   5.824 -0.0581 -0.1793 -0.0422
   49BDTP    C811848  10.849  -3.530   5.815 -0.1305 -0.1676 -0.0585
   49BDTP    S111849  10.673  -3.576   5.808 -0.1573 -0.0768  0.0143
   49BDTP    C911850  10.365  -3.128   5.831  0.0811  0.0759  0.2419
   49BDTP   C1011851  10.385  -2.994   5.840  0.1536  0.0643  0.2582
   49BDTP    S211852  10.560  -2.948   5.847  0.1804 -0.0266  0.1853
   50FTM     S111853  10.982  -3.082   5.718 -0.2810  0.0117  0.1251
   50FTM     C111854  11.072  -2.960   5.814  0.2837 -0.4300  0.1697
   50FTM     C211855  11.004  -2.931   5.928  0.4095 -0.1519  0.1765
   50FTM     C311856  10.880  -3.001   5.947  0.0824  0.4079  0.1478
   50FTM     C411857  10.853  -3.086   5.844 -0.3066  0.5637  0.1186
   50FTM     F111858  11.049  -2.840   6.022  0.8284 -0.3880  0.2087
   50FTM     C511859  11.206  -2.909   5.764 -0.2988  0.3005  0.2067
   50FTM     C611860  11.302  -3.011   5.691  0.0327  0.2662  0.0661
   50FTM     C711861  11.435  -2.949   5.636  0.9213 -0.0502 -0.9910
   50FTM     C811862  11.406  -2.847   5.524  0.2250  0.5543  0.3442
   50FTM     C911863  11.533  -2.777   5.474  0.0011 -0.1136  0.3239
   50FTM    C1011864  11.503  -2.655   5.385 -1.1014 -0.0547  0.0752
   50FTM    C1111865  11.312  -3.153   5.762  0.2740 -0.4572 -0.1756
   50FTM    C1211866  11.347  -3.275   5.678 -0.5147  0.6125 -0.2221
   51FTM     S111867  10.230  -3.408   5.907 -0.1405 -0.0078  0.0159
   51FTM     C111868  10.148  -3.543   5.821  0.0605 -0.3080  0.2914
   51FTM     C211869  10.233  -3.598   5.729  0.1943 -0.4730  0.5111
   51FTM     C311870  10.363  -3.539   5.721  0.1498 -0.3783  0.4797
   51FTM     C411871  10.379  -3.436   5.809 -0.0237 -0.1328  0.2275
   51FTM     F111872  10.197  -3.704   5.648  0.3650 -0.7194  0.7539
   51FTM     C511873  10.008  -3.575   5.854  0.0377 -0.3402 -0.0827
   51FTM     C611874   9.975  -3.665   5.972  0.1761 -0.6682 -0.6407
   51FTM     C711875  10.038  -3.804   5.973  0.0056  0.0366 -0.1838
   51FTM     C811876  10.011  -3.901   5.859 -0.0352 -1.3012  0.0561
   51FTM     C911877  10.119  -4.005   5.836  0.3248 -0.3651  0.1016
   51FTM    C1011878  10.076  -4.133   5.768 -0.1265 -0.3127 -0.1514
   51FTM    C1111879   9.822  -3.646   6.017 -0.4016  0.2452 -0.7020
   51FTM    C1211880   9.778  -3.728   6.138  0.3047  0.4071 -0.2352
   52TPM     C111881  10.270  -2.902   5.829 -0.0840  0.1731 -0.3021
   52TPM     C211882  10.276  -2.766   5.816 -0.0019  0.1507 -0.5201
   52TPM     C311883  10.148  -2.705   5.791  0.0333  0.1886 -0.6049
   52TPM     C411884  10.045  -2.793   5.784 -0.0220  0.2401 -0.4516
   52TPM     S111885  10.101  -2.963   5.809 -0.1235  0.2447 -0.1862
   53BDD     C111886   9.670  -2.714   5.699  0.1911  0.4960  0.1795
   53BDD     C211887   9.678  -2.714   5.835  0.1304  0.3505  0.1833
   53BDD     C311888   9.813  -2.737   5.885  0.0616  0.0211  0.2228
   53BDD     C411889   9.905  -2.754   5.785  0.0708 -0.0798  0.2483
   53BDD     S111890   9.830  -2.743   5.623  0.1661  0.2307  0.2248
   53BDD     C511891   9.563  -2.694   5.925  0.1335  0.5088  0.1512
   53BDD     C611892   9.845  -2.742   6.029 -0.0107 -0.1817  0.2337
   53BDD     O111893   9.961  -2.761   6.071 -0.0701 -0.4658  0.2676
   53BDD     O211894   9.447  -2.674   5.883  0.1929  0.7929  0.1172
   53BDD     C711895   9.730  -2.721   6.119 -0.0076 -0.0234  0.2015
   53BDD     C811896   9.595  -2.698   6.069  0.0613  0.3060  0.1621
   53BDD     C911897   9.503  -2.681   6.169  0.0520  0.4069  0.1366
   53BDD     S211898   9.579  -2.692   6.331 -0.0436  0.0966  0.1601
   53BDD    C1011899   9.738  -2.721   6.255 -0.0682 -0.1689  0.2054
   53BDD    C1111900   9.844  -2.740   6.358  0.0599 -0.4119 -0.0632
   53BDD    C1211901   9.926  -2.618   6.392  0.1323 -0.4652  0.0148
   53BDD    C1311902   9.850  -2.490   6.432 -0.3798  0.1401 -0.7813
   53BDD    C1411903   9.931  -2.358   6.451  0.3072  0.4069 -0.6917
   53BDD    C1511904   9.832  -2.247   6.481  0.5019 -0.2206  0.4012
   53BDD    C1611905   9.885  -2.111   6.520  0.0698  0.2475 -0.6469
   53BDD    C1711906  10.043  -2.643   6.486 -0.3000  0.1211  0.5137
   53BDD    C1811907  10.018  -2.720   6.615  0.3854  0.1632 -0.2580
   53BDD    C1911908   9.351  -2.661   6.167 -0.8474  0.3241  0.1212
   53BDD    C2011909   9.260  -2.766   6.232  0.0564 -0.5208  0.6411
   53BDD    C2111910   9.275  -2.913   6.179  0.3765 -0.3366  0.6273
   53BDD    C2211911   9.254  -2.944   6.028 -0.2138 -0.7516 -0.2276
   53BDD    C2311912   9.135  -2.875   5.965 -0.5223 -0.6928 -0.1621
   53BDD    C2411913   9.149  -2.879   5.813 -0.5949 -0.1456  0.0804
   53BDD    C2511914   9.114  -2.727   6.281 -0.4120 -0.0021  0.6206
   53BDD    C2611915   9.094  -2.607   6.368  0.5746 -0.5452  0.2217
   54TPM     C111916   9.563  -2.701   5.599 -0.3395  0.2945  0.2772
   54TPM     C211917   9.442  -2.760   5.621 -0.3934  0.3245  0.0616
   54TPM     C311918   9.362  -2.774   5.502 -0.0944  0.1446 -0.1209
   54TPM     C411919   9.422  -2.725   5.389  0.1874 -0.0226 -0.0445
   54TPM     S111920   9.586  -2.657   5.425  0.0963  0.0347  0.2663
   55BDTP    C111921   9.165  -2.804   4.823  0.0076  0.0087 -0.1018
   55BDTP    C211922   9.305  -2.811   4.794  0.0291 -0.0486  0.0151
   55BDTP    C311923   9.402  -2.796   4.891 -0.0465 -0.0725  0.0947
   55BDTP    C411924   9.361  -2.774   5.024 -0.1485 -0.0383  0.0573
   55BDTP    C511925   9.222  -2.768   5.053 -0.1702  0.0190 -0.0597
   55BDTP    C611926   9.124  -2.782   4.955 -0.0945  0.0428 -0.1392
   55BDTP    C711927   9.444  -2.757   5.141 -0.2398 -0.0535  0.1239
   55BDTP    C811928   9.374  -2.737   5.256 -0.3278 -0.0110  0.0632
   55BDTP    S111929   9.194  -2.739   5.231 -0.3078  0.0542 -0.0867
   55BDTP    C911930   9.083  -2.822   4.705  0.0985  0.0237 -0.1684
   55BDTP   C1011931   9.152  -2.841   4.591  0.1869 -0.0187 -0.1078
   55BDTP    S211932   9.332  -2.840   4.615  0.1667 -0.0839  0.0420
   56FTM     S111933   9.667  -2.688   4.918  0.0913  0.3032 -0.1997
   56FTM     C111934   9.801  -2.781   4.841 -0.0262 -0.0809  0.0546
   56FTM     C211935   9.750  -2.889   4.777 -0.1684 -0.1745  0.3202
   56FTM     C311936   9.608  -2.906   4.783 -0.1939  0.0415  0.3414
   56FTM     C411937   9.548  -2.808   4.855 -0.0672  0.3093  0.0839
   56FTM     F111938   9.830  -2.980   4.708 -0.2838 -0.4617  0.5596
   56FTM     C511939   9.932  -2.711   4.836  0.1235 -0.6239 -0.2968
   56FTM     C611940  10.061  -2.762   4.763 -0.1963 -0.6305 -0.1412
   56FTM     C711941  10.045  -2.828   4.622 -0.1018  0.0014  0.1264
   56FTM     C811942   9.991  -2.740   4.510  0.2816 -0.2723  0.3539
   56FTM     C911943  10.072  -2.616   4.478  0.3553  0.2150  0.1293
   56FTM    C1011944  10.016  -2.562   4.349 -0.0742 -0.7673  0.1973
   56FTM    C1111945  10.145  -2.847   4.857  0.1306 -0.3181  0.4167
   56FTM    C1211946  10.296  -2.871   4.835  0.7850  0.3669 -0.1717
   57FTM     S111947   8.914  -2.600   5.020 -0.2262  0.0177  0.1664
   57FTM     C111948   8.753  -2.672   5.058 -0.0000 -0.4162  0.3286
   57FTM     C211949   8.758  -2.807   5.047  0.3445 -0.4009  0.2929
   57FTM     C311950   8.885  -2.862   5.009  0.4508 -0.0595  0.1410
   57FTM     C411951   8.980  -2.766   4.991  0.1790  0.1954  0.0577
   57FTM     F111952   8.649  -2.889   5.070  0.5844 -0.6957  0.3959
   57FTM     C511953   8.657  -2.571   5.128  0.4237  0.0993  1.1628
   57FTM     C611954   8.520  -2.540   5.065 -0.2320 -0.2310 -0.2512
   57FTM     C711955   8.508  -2.452   4.943 -0.1697 -0.8211  0.3997
   57FTM     C811956   8.555  -2.301   4.970  0.0011  0.3082 -0.4252
   57FTM     C911957   8.554  -2.209   4.844 -0.4757  0.3631  0.0629
   57FTM    C1011958   8.589  -2.068   4.872  0.0098  0.1004 -0.0697
   57FTM    C1111959   8.420  -2.657   5.064  0.5967  0.3567 -0.2777
   57FTM    C1211960   8.382  -2.735   5.193 -0.2542 -0.9854 -0.1643
   58TPM     C111961   9.105  -2.867   4.459 -0.4617 -0.1261  0.2705
   58TPM     C211962   9.178  -2.897   4.348 -0.1094  0.1637  0.4208
   58TPM     C311963   9.098  -2.922   4.230  0.2484  0.2259  0.1596
   58TPM     C411964   8.964  -2.911   4.252  0.1692 -0.0164 -0.1897
   58TPM     S111965   8.928  -2.868   4.424 -0.3677 -0.3447 -0.2161
   59BDD     C111966   8.618  -3.026   4.106 -0.0580 -0.0371 -0.1142
   59BDD     C211967   8.691  -2.994   3.995 -0.0310 -0.0961 -0.1135
   59BDD     C311968   8.826  -2.949   4.026  0.0215 -0.2521 -0.1152
   59BDD     C411969   8.853  -2.947   4.160  0.0349 -0.3099 -0.1170
   59BDD     S111970   8.712  -3.002   4.257 -0.0181 -0.1729 -0.1168
   59BDD     C511971   8.640  -3.004   3.857 -0.0534 -0.0111 -0.1115
   59BDD     C611972   8.922  -2.910   3.922  0.0575 -0.3380 -0.1148
   59BDD     O111973   9.038  -2.871   3.949  0.1028 -0.4724 -0.1161
   59BDD     O211974   8.524  -3.043   3.830 -0.0989  0.1234 -0.1101
   59BDD     C711975   8.872  -2.919   3.783  0.0350 -0.2530 -0.1127
   59BDD     C811976   8.737  -2.964   3.752 -0.0179 -0.0970 -0.1112
   59BDD     C911977   8.710  -2.966   3.618 -0.0305 -0.0393 -0.1094
   59BDD     S211978   8.851  -2.912   3.522  0.0220 -0.1763 -0.1095
   59BDD    C1011979   8.945  -2.887   3.673  0.0618 -0.3119 -0.1121
   59BDD    C1111980   9.082  -2.823   3.649  0.0166 -0.3817 -0.1847
   59BDD    C1211981   9.195  -2.899   3.593 -0.3144  0.0864  0.4377
   59BDD    C1311982   9.313  -2.807   3.546 -0.4414 -0.3885 -0.6390
   59BDD    C1411983   9.292  -2.696   3.446  0.2053  0.9223  0.7170
   59BDD    C1511984   9.212  -2.729   3.317 -0.4612 -0.6022  0.0744
   59BDD    C1611985   9.241  -2.622   3.211 -0.0198 -0.2264 -0.7397
   59BDD    C1711986   9.234  -3.028   3.663 -0.7153  0.4763  0.5258
   59BDD    C1811987   9.329  -3.029   3.785  0.1590  0.4882 -0.2654
   59BDD    C1911988   8.584  -2.993   3.535 -0.2302 -0.0093 -0.6100
   59BDD    C2011989   8.490  -2.876   3.510 -0.0574 -0.1998 -0.6966
   59BDD    C2111990   8.540  -2.741   3.451 -0.4678  0.2645 -0.6966
   59BDD    C2211991   8.440  -2.626   3.448  0.3767  0.4798  1.1421
   59BDD    C2311992   8.491  -2.509   3.367  0.4097 -0.1924 -0.0775
   59BDD    C2411993   8.383  -2.402   3.369 -0.1959 -0.3981 -0.4333
   59BDD    C2511994   8.363  -2.917   3.439 -0.1559  0.2201  0.4854
   59BDD    C2611995   8.376  -2.992   3.305  0.1802 -0.0282  0.1329
   60TPM     C111996   8.485  -3.077   4.136 -0.2198 -0.1034 -0.1500
   60TPM     C211997   8.435  -3.184   4.068 -0.7696  0.1986 -0.2322
   60TPM     C311998   8.320  -3.243   4.131 -0.8841  0.5467 -0.1106
   60TPM     C411999   8.282  -3.181   4.247 -0.4217  0.5101  0.0645
   60TPM     S112000   8.390  -3.042   4.285  0.1990  0.0294  0.0893
    1BDTP    C112001   0.939   5.216   3.159 -0.0669  0.0968  0.0380
    1BDTP    C212002   0.912   5.146   3.281 -0.0799  0.1509  0.0662
    1BDTP    C312003   1.013   5.105   3.367 -0.0867  0.1550  0.0758
    1BDTP    C412004   1.146   5.134   3.333 -0.0803  0.1034  0.0569
    1BDTP    C512005   1.173   5.204   3.212 -0.0673  0.0494  0.0287
    1BDTP    C612006   1.073   5.245   3.125 -0.0605  0.0453  0.0191
    1BDTP    C712007   1.266   5.102   3.407 -0.0853  0.0967  0.0622
    1BDTP    C812008   1.381   5.143   3.348 -0.0767  0.0412  0.0396
    1BDTP    S112009   1.352   5.229   3.190 -0.0612 -0.0107  0.0085
    1BDTP    C912010   0.819   5.248   3.085 -0.0619  0.1034  0.0327
    1BDTP   C1012011   0.705   5.206   3.144 -0.0704  0.1589  0.0554
    1BDTP    S212012   0.733   5.121   3.302 -0.0860  0.2108  0.0865
    2FTM     S112013   0.904   4.893   3.532  0.3800  0.2384 -0.1348
    2FTM     C112014   0.893   4.933   3.707 -0.2307 -0.3457 -0.0313
    2FTM     C212015   0.939   5.060   3.729 -0.5938 -0.3004  0.5077
    2FTM     C312016   0.984   5.132   3.613 -0.4234  0.1792  0.8643
    2FTM     C412017   0.972   5.058   3.499  0.0869  0.5125  0.5895
    2FTM     F112018   0.942   5.118   3.854 -1.1021 -0.6911  0.7100
    2FTM     C512019   0.815   4.853   3.810  0.0976  0.1196 -0.0807
    2FTM     C612020   0.679   4.919   3.857  0.2072  0.7077  0.1193
    2FTM     C712021   0.583   4.953   3.741 -0.5056  0.1579  0.2294
    2FTM     C812022   0.523   4.847   3.646  0.1639  0.5465 -0.2694
    2FTM     C912023   0.423   4.919   3.559  1.0334 -0.4282  0.8710
    2FTM    C1012024   0.359   4.844   3.446  0.0205 -0.4754  0.2683
    2FTM    C1112025   0.623   4.840   3.973  0.0013 -0.3046 -0.3329
    2FTM    C1212026   0.515   4.910   4.052  0.4169  0.7153  0.4785
    3FTM     S112027   1.036   5.287   2.840  0.1000  0.0952  0.0633
    3FTM     C112028   1.094   5.447   2.781  0.2252  0.2911  0.7026
    3FTM     C212029   1.156   5.514   2.882  0.3318 -0.1856  0.9589
    3FTM     C312030   1.161   5.447   3.009  0.3228 -0.7190  0.6806
    3FTM     C412031   1.102   5.324   3.004  0.2056 -0.6486  0.1953
    3FTM     F112032   1.211   5.640   2.866  0.4439 -0.1671  1.4607
    3FTM     C512033   1.048   5.489   2.641 -0.0048  0.3307 -0.6354
    3FTM     C612034   0.912   5.434   2.591  0.4636  0.3193  0.6709
    3FTM     C712035   0.910   5.429   2.438  0.0372 -0.5389  0.2512
    3FTM     C812036   1.009   5.346   2.365  0.4948  0.0912 -0.1371
    3FTM     C912037   0.982   5.369   2.218 -0.1489 -0.2815  0.3626
    3FTM    C1012038   1.088   5.304   2.134  0.1970 -0.3916  0.4942
    3FTM    C1112039   0.781   5.467   2.669 -0.3665 -0.3735  0.3183
    3FTM    C1212040   0.732   5.610   2.635  0.1519  0.3713 -0.1984
    4TPM     C112041   0.565   5.215   3.100 -0.1920  0.1931  0.2313
    4TPM     C212042   0.457   5.149   3.150 -0.3900  0.1472 -0.2528
    4TPM     C312043   0.334   5.180   3.082 -0.1348  0.2490 -0.6757
    4TPM     C412044   0.348   5.270   2.980  0.2576  0.3724 -0.5141
    4TPM     S112045   0.520   5.323   2.963  0.3361  0.3696  0.1904
    5BDD     C112046  -0.000   5.290   2.799 -0.0848 -0.0254 -0.0373
    5BDD     C212047   0.062   5.407   2.766 -0.1218 -0.0012 -0.0225
    5BDD     C312048   0.195   5.420   2.824 -0.1602  0.0725  0.0507
    5BDD     C412049   0.232   5.312   2.900 -0.1518  0.1034  0.0907
    5BDD     S112050   0.103   5.188   2.905 -0.0954  0.0426  0.0395
    5BDD     C512051   0.002   5.512   2.681 -0.1235 -0.0453 -0.0752
    5BDD     C612052   0.281   5.538   2.801 -0.2041  0.1093  0.0783
    5BDD     O112053   0.395   5.549   2.851 -0.2372  0.1729  0.1414
    5BDD     O212054  -0.112   5.501   2.631 -0.0901 -0.1088 -0.1383
    5BDD     C712055   0.221   5.643   2.716 -0.2055  0.0656  0.0256
    5BDD     C812056   0.088   5.630   2.658 -0.1671 -0.0082 -0.0476
    5BDD     C912057   0.051   5.738   2.582 -0.1757 -0.0393 -0.0876
    5BDD     S212058   0.180   5.862   2.577 -0.2324  0.0217 -0.0364
    5BDD    C1012059   0.283   5.760   2.683 -0.2429  0.0895  0.0404
    5BDD    C1112060   0.421   5.817   2.719  0.9019  0.3597 -0.2492
    5BDD    C1212061   0.434   5.961   2.777  1.1586  0.3641  0.2234
    5BDD    C1312062   0.370   5.986   2.916 -0.1256 -0.1300  0.6178
    5BDD    C1412063   0.440   5.935   3.043  0.7413 -0.7109 -0.2203
    5BDD    C1512064   0.355   5.955   3.177 -0.6271 -0.0540 -0.2437
    5BDD    C1612065   0.441   5.958   3.305 -0.1932  0.0596 -0.1162
    5BDD    C1712066   0.579   6.022   2.779  0.3063  0.5450 -0.6966
    5BDD    C1812067   0.668   6.008   2.657  0.0645 -0.0877  0.2188
    5BDD    C1912068  -0.072   5.783   2.512 -0.1499  1.0324  0.5380
    5BDD    C2012069  -0.060   5.781   2.357 -0.6790 -0.2763  0.1102
    5BDD    C2112070  -0.009   5.651   2.276  0.1990 -0.8568 -0.0057
    5BDD    C2212071  -0.109   5.539   2.266 -0.0557  0.4434  0.0361
    5BDD    C2312072  -0.073   5.420   2.186 -0.6267  0.7540 -0.0338
    5BDD    C2412073  -0.174   5.302   2.192 -0.2428 -0.2952 -0.2748
    5BDD    C2512074  -0.179   5.860   2.304 -0.0158 -0.3756  0.1500
    5BDD    C2612075  -0.172   5.924   2.168  0.2863  0.1604  0.0381
    6TPM     C112076  -0.131   5.226   2.768 -0.1714  0.4369  0.2656
    6TPM     C212077  -0.236   5.275   2.696 -0.2255  0.4456  0.3506
    6TPM     C312078  -0.350   5.186   2.692 -0.0439  0.2216  0.0080
    6TPM     C412079  -0.331   5.070   2.762  0.1488  0.0422 -0.3381
    6TPM     S112080  -0.168   5.064   2.837  0.1155  0.1430 -0.2577
    7BDTP    C112081  -0.598   4.512   2.867 -0.0544  0.2135  0.0528
    7BDTP    C212082  -0.638   4.539   2.732 -0.0656  0.2663  0.0669
    7BDTP    C312083  -0.606   4.658   2.668 -0.0851  0.2983  0.1165
    7BDTP    C412084  -0.533   4.755   2.739 -0.0935  0.2772  0.1539
    7BDTP    C512085  -0.494   4.727   2.873 -0.0823  0.2245  0.1398
    7BDTP    C612086  -0.525   4.608   2.938 -0.0627  0.1924  0.0902
    7BDTP    C712087  -0.489   4.885   2.693 -0.1131  0.3027  0.2077
    7BDTP    C812088  -0.420   4.956   2.786 -0.1173  0.2720  0.2342
    7BDTP    S112089  -0.400   4.868   2.943 -0.0966  0.2066  0.1950
    7BDTP    C912090  -0.642   4.382   2.912 -0.0346  0.1881 -0.0010
    7BDTP   C1012091  -0.712   4.311   2.820 -0.0305  0.2187 -0.0275
    7BDTP    S212092  -0.731   4.399   2.662 -0.0513  0.2843  0.0118
    8FTM     S112093  -0.550   4.570   2.408  0.2170 -0.1128 -0.3245
    8FTM     C112094  -0.653   4.635   2.275  0.2161 -0.1889 -0.3609
    8FTM     C212095  -0.741   4.726   2.325  0.0632 -0.3269 -0.3755
    8FTM     C312096  -0.734   4.750   2.466 -0.0594 -0.3809 -0.3597
    8FTM     C412097  -0.637   4.675   2.526  0.0014 -0.2808 -0.3320
    8FTM     F112098  -0.833   4.793   2.246  0.0255 -0.4126 -0.4041
    8FTM     C512099  -0.630   4.579   2.136 -0.2464 -0.6626  0.2379
    8FTM     C612100  -0.733   4.592   2.016 -0.0477 -0.6878  0.5806
    8FTM     C712101  -0.694   4.559   1.870  0.0586  0.7239  0.0199
    8FTM     C812102  -0.581   4.636   1.802 -0.3793  0.3286  0.3893
    8FTM     C912103  -0.619   4.779   1.784  0.1738  0.6301  0.7517
    8FTM    C1012104  -0.517   4.851   1.706  0.2105  0.1962  0.5125
    8FTM    C1112105  -0.868   4.529   2.056  0.2823  0.3470  0.1442
    8FTM    C1212106  -0.883   4.380   2.099 -0.1069  0.2923  0.1606
    9FTM     S112107  -0.322   4.633   3.148  0.2890  0.0633  0.0225
    9FTM     C112108  -0.380   4.605   3.316  0.1741 -0.1211 -0.0478
    9FTM     C212109  -0.512   4.570   3.314  0.1607 -0.0666 -0.1713
    9FTM     C312110  -0.574   4.564   3.186  0.2372  0.1173 -0.2175
    9FTM     C412111  -0.488   4.595   3.085  0.3116  0.2068 -0.1266
    9FTM     F112112  -0.583   4.542   3.430  0.0787 -0.1804 -0.2497
    9FTM     C512113  -0.287   4.611   3.439 -0.5511 -0.3040  1.0105
    9FTM     C612114  -0.191   4.499   3.486  0.7303 -0.2036 -0.1601
    9FTM     C712115  -0.128   4.505   3.628 -0.0002  0.1311 -0.0753
    9FTM     C812116  -0.026   4.616   3.653  0.1762 -0.4535  0.1830
    9FTM     C912117   0.022   4.640   3.791 -0.1044 -0.3524  0.0859
    9FTM    C1012118   0.133   4.737   3.787  0.0280  0.3185  0.3879
    9FTM    C1112119  -0.100   4.446   3.377  0.3971  0.1469 -0.6036
    9FTM    C1212120  -0.008   4.329   3.416 -0.0176 -0.0440 -0.2760
   10TPM     C112121  -0.768   4.174   2.831 -0.2755 -0.0357  0.0767
   10TPM     C212122  -0.858   4.124   2.742 -0.3984 -0.1725  0.2770
   10TPM     C312123  -0.900   3.989   2.771 -0.1462 -0.2288  0.3812
   10TPM     C412124  -0.841   3.936   2.881  0.1690 -0.1350  0.2603
   10TPM     S112125  -0.727   4.053   2.959  0.1711  0.0330  0.0037
   11BDD     C112126  -1.019   3.584   2.922 -0.1457 -0.1041 -0.1883
   11BDD     C212127  -0.944   3.595   3.036 -0.1955 -0.0610 -0.1594
   11BDD     C312128  -0.867   3.718   3.042 -0.2007 -0.0571 -0.1712
   11BDD     C412129  -0.885   3.799   2.934 -0.1549 -0.0972 -0.2087
   11BDD     S112130  -0.999   3.727   2.816 -0.1023 -0.1427 -0.2321
   11BDD     C512131  -0.940   3.493   3.142 -0.2396 -0.0218 -0.1200
   11BDD     C612132  -0.779   3.751   3.156 -0.2508 -0.0136 -0.1445
   11BDD     O112133  -0.712   3.857   3.162 -0.2556 -0.0103 -0.1546
   11BDD     O212134  -1.006   3.387   3.136 -0.2351 -0.0251 -0.1100
   11BDD     C712135  -0.774   3.649   3.263 -0.2954  0.0255 -0.1051
   11BDD     C812136  -0.851   3.526   3.256 -0.2902  0.0216 -0.0934
   11BDD     C912137  -0.833   3.444   3.365 -0.3359  0.0619 -0.0558
   11BDD     S212138  -0.719   3.516   3.483 -0.3886  0.1073 -0.0324
   11BDD    C1012139  -0.699   3.660   3.376 -0.3452  0.0687 -0.0762
   11BDD    C1112140  -0.595   3.757   3.435  0.0738 -0.3493  0.3591
   11BDD    C1212141  -0.442   3.733   3.410  0.0117 -0.2837  0.1225
   11BDD    C1312142  -0.352   3.856   3.457  0.9168 -0.2756 -0.7589
   11BDD    C1412143  -0.205   3.848   3.426  0.3469 -0.3280  0.0118
   11BDD    C1512144  -0.117   3.934   3.514 -0.6572  0.0583  0.0229
   11BDD    C1612145   0.029   3.909   3.491  0.0040 -0.2805  0.0131
   11BDD    C1712146  -0.401   3.592   3.453  0.2243 -0.0737 -0.0878
   11BDD    C1812147  -0.395   3.562   3.600  0.1351 -0.0965 -0.2322
   11BDD    C1912148  -0.896   3.313   3.404 -0.0550 -0.2346  0.6007
   11BDD    C2012149  -0.797   3.193   3.420  0.4272 -0.3687  0.5293
   11BDD    C2112150  -0.713   3.188   3.543 -0.4705 -0.6120  0.7559
   11BDD    C2212151  -0.773   3.211   3.682  0.3088  0.1859  0.6253
   11BDD    C2312152  -0.662   3.217   3.788  0.5125  1.2235 -0.3528
   11BDD    C2412153  -0.713   3.277   3.909  0.1650  0.9435 -0.1622
   11BDD    C2512154  -0.739   3.156   3.283 -0.3026 -0.6695 -0.1283
   11BDD    C2612155  -0.655   3.028   3.260  0.2142 -0.5056  0.4180
   12TPM     C112156  -1.115   3.486   2.863  0.2948  0.1309 -0.3965
   12TPM     C212157  -1.227   3.531   2.800  0.3934  0.1292 -0.5747
   12TPM     C312158  -1.317   3.427   2.760  0.2990  0.1489 -0.4150
   12TPM     C412159  -1.274   3.301   2.793  0.1281  0.1656 -0.1152
   12TPM     S112160  -1.114   3.306   2.877  0.0732  0.1576 -0.0103
   13BDTP    C112161  -1.488   2.764   2.547 -0.0691  0.1076 -0.0211
   13BDTP    C212162  -1.562   2.864   2.477 -0.0722  0.1086 -0.0164
   13BDTP    C312163  -1.548   3.000   2.503 -0.0579  0.1092 -0.0275
   13BDTP    C412164  -1.457   3.039   2.602 -0.0396  0.1089 -0.0440
   13BDTP    C512165  -1.383   2.940   2.672 -0.0365  0.1079 -0.0486
   13BDTP    C612166  -1.397   2.804   2.647 -0.0511  0.1071 -0.0375
   13BDTP    C712167  -1.426   3.174   2.646 -0.0223  0.1094 -0.0575
   13BDTP    C812168  -1.333   3.180   2.745 -0.0072  0.1088 -0.0720
   13BDTP    S112169  -1.272   3.016   2.796 -0.0119  0.1075 -0.0705
   13BDTP    C912170  -1.519   2.630   2.503 -0.0861  0.1070 -0.0075
   13BDTP   C1012171  -1.612   2.624   2.404 -0.1016  0.1076  0.0070
   13BDTP    S212172  -1.673   2.788   2.353 -0.0967  0.1089  0.0054
   14FTM     S112173  -1.568   3.257   2.366  0.0921 -0.1486 -0.4158
   14FTM     C112174  -1.730   3.297   2.300 -0.1460  0.0060  0.2456
   14FTM     C212175  -1.816   3.194   2.322 -0.3356  0.3421  1.1601
   14FTM     C312176  -1.762   3.080   2.390 -0.3080  0.4961  1.3965
   14FTM     C412177  -1.630   3.097   2.421 -0.0900  0.2706  0.6382
   14FTM     F112178  -1.949   3.196   2.282 -0.5455  0.5302  1.8375
   14FTM     C512179  -1.773   3.434   2.256 -0.5972  0.2452  0.2377
   14FTM     C612180  -1.694   3.513   2.140  0.1329 -0.1925 -0.4773
   14FTM     C712181  -1.549   3.555   2.185  0.4807 -1.1180  0.6536
   14FTM     C812182  -1.529   3.636   2.312  0.5425  0.6271 -0.5287
   14FTM     C912183  -1.623   3.750   2.346  0.1879  0.0617  0.3509
   14FTM    C1012184  -1.607   3.808   2.487  0.2863  0.3302 -0.3486
   14FTM    C1112185  -1.682   3.451   1.998 -0.2080  0.0485 -0.2703
   14FTM    C1212186  -1.820   3.431   1.933  0.0631  0.1227 -0.2040
   15FTM     S112187  -1.377   2.556   2.791  0.1059  0.0914 -0.2789
   15FTM     C112188  -1.213   2.507   2.845  0.1369  0.3169 -0.1635
   15FTM     C212189  -1.123   2.605   2.816  0.0594  0.3486 -0.2992
   15FTM     C312190  -1.176   2.722   2.752 -0.0267  0.2030 -0.4965
   15FTM     C412191  -1.310   2.713   2.731 -0.0150  0.0550 -0.5123
   15FTM     F112192  -0.988   2.595   2.846  0.0620  0.5113 -0.2529
   15FTM     C512193  -1.169   2.378   2.914  0.4590  0.1591  0.4240
   15FTM     C612194  -1.214   2.244   2.845 -0.3362 -0.4787 -0.8402
   15FTM     C712195  -1.360   2.201   2.872  0.2064  0.0844  0.0850
   15FTM     C812196  -1.402   2.190   3.015 -0.0998 -0.1415  0.1555
   15FTM     C912197  -1.550   2.172   3.043 -0.4470 -0.3797  0.6968
   15FTM    C1012198  -1.581   2.135   3.180 -0.3539  0.4037 -0.0238
   15FTM    C1112199  -1.171   2.238   2.693 -0.9807  0.4263 -0.0778
   15FTM    C1212200  -1.188   2.105   2.624 -0.5683  0.0813 -0.0427
   16TPM     C112201  -1.652   2.511   2.325  0.0663 -0.3466 -0.2241
   16TPM     C212202  -1.715   2.395   2.361 -0.0310 -0.2874 -0.2059
   16TPM     C312203  -1.752   2.312   2.249 -0.3889 -0.1227 -0.2135
   16TPM     C412204  -1.716   2.364   2.128 -0.5645 -0.0565 -0.2377
   16TPM     S112205  -1.633   2.523   2.146 -0.2893 -0.1980 -0.2527
   17BDD     C112206  -1.597   2.199   1.797 -0.2030 -0.0368 -0.0541
   17BDD     C212207  -1.721   2.145   1.820 -0.1948 -0.0393 -0.0147
   17BDD     C312208  -1.784   2.195   1.940 -0.2551  0.1344 -0.1174
   17BDD     C412209  -1.707   2.286   2.008 -0.3085  0.2670 -0.2336
   17BDD     S112210  -1.551   2.315   1.925 -0.2871  0.1833 -0.2225
   17BDD     C512211  -1.786   2.046   1.731 -0.1309 -0.2016  0.1188
   17BDD     C612212  -1.918   2.151   1.984 -0.2575  0.1627 -0.0964
   17BDD     O112213  -1.972   2.194   2.089 -0.3097  0.3126 -0.1850
   17BDD     O212214  -1.731   2.003   1.627 -0.0784 -0.3514  0.2073
   17BDD     C712215  -1.983   2.052   1.896 -0.1937  0.0005  0.0370
   17BDD     C812216  -1.920   2.002   1.775 -0.1334 -0.1732  0.1397
   17BDD     C912217  -1.996   1.911   1.707 -0.0800 -0.3057  0.2559
   17BDD     S212218  -2.153   1.882   1.790 -0.1015 -0.2221  0.2448
   17BDD    C1012219  -2.107   1.999   1.919 -0.1855 -0.0020  0.0765
   17BDD    C1112220  -2.225   2.021   2.008  0.2749  0.3534 -1.0442
   17BDD    C1212221  -2.226   1.954   2.149 -0.5193  0.0647 -1.0406
   17BDD    C1312222  -2.355   1.989   2.222  0.6736 -0.1955  0.3097
   17BDD    C1412223  -2.354   1.964   2.377  0.2070  0.1997 -0.0867
   17BDD    C1512224  -2.267   2.047   2.467 -0.1066 -0.0893  0.3065
   17BDD    C1612225  -2.271   2.200   2.467  0.0463  0.0751 -0.3446
   17BDD    C1712226  -2.164   1.804   2.163  0.3735 -0.2531  0.1526
   17BDD    C1812227  -2.241   1.683   2.108  0.6457  0.0513 -0.0280
   17BDD    C1912228  -1.973   1.823   1.580  0.3522 -0.0484 -0.3908
   17BDD    C2012229  -2.061   1.842   1.454  0.4281 -0.8817 -0.0159
   17BDD    C2112230  -2.033   1.967   1.367  0.0992 -0.2234 -0.2987
   17BDD    C2212231  -1.890   2.013   1.323  0.2619  0.0996 -0.4157
   17BDD    C2312232  -1.802   1.911   1.261 -0.9806 -0.5634 -0.1931
   17BDD    C2412233  -1.665   1.956   1.238 -0.7524  0.4800  0.3838
   17BDD    C2512234  -2.211   1.823   1.463 -0.5478  0.3979  0.3005
   17BDD    C2612235  -2.270   1.685   1.505 -0.1899  0.0441  0.4592
   18TPM     C112236  -1.487   2.181   1.696 -0.0570 -0.0016 -0.1851
   18TPM     C212237  -1.511   2.200   1.563 -0.0451  0.2562 -0.1506
   18TPM     C312238  -1.391   2.224   1.485 -0.0358  0.3874 -0.0972
   18TPM     C412239  -1.277   2.222   1.559 -0.0410  0.2296 -0.0912
   18TPM     S112240  -1.310   2.191   1.733 -0.0583 -0.0996 -0.1528
   19BDTP    C112241  -0.681   2.282   1.367 -0.0985  0.2148  0.3339
   19BDTP    C212242  -0.754   2.315   1.250 -0.0329  0.1934  0.2868
   19BDTP    C312243  -0.893   2.317   1.246 -0.0315  0.0915  0.1805
   19BDTP    C412244  -0.963   2.284   1.363 -0.0980  0.0067  0.1176
   19BDTP    C512245  -0.890   2.251   1.481 -0.1636  0.0282  0.1647
   19BDTP    C612246  -0.751   2.249   1.485 -0.1649  0.1300  0.2709
   19BDTP    C712247  -1.107   2.280   1.384 -0.1101 -0.1052  0.0059
   19BDTP    C812248  -1.144   2.245   1.509 -0.1810 -0.1680 -0.0326
   19BDTP    S112249  -1.003   2.213   1.619 -0.2420 -0.0942  0.0671
   19BDTP    C912250  -0.538   2.287   1.347 -0.0863  0.3267  0.4455
   19BDTP   C1012251  -0.500   2.322   1.222 -0.0155  0.3895  0.4840
   19BDTP    S212252  -0.641   2.354   1.112  0.0454  0.3157  0.3843
   20FTM     S112253  -1.081   2.481   1.099  0.2827  0.4459  0.0789
   20FTM     C112254  -1.101   2.435   0.926 -0.1407  0.2339  0.1836
   20FTM     C212255  -1.023   2.327   0.897 -0.4148  0.0302  0.1889
   20FTM     C312256  -0.944   2.276   1.005 -0.3147  0.0263  0.1138
   20FTM     C412257  -0.962   2.346   1.121  0.0476  0.2340  0.0488
   20FTM     F112258  -1.018   2.270   0.771 -0.7727 -0.1650  0.2622
   20FTM     C512259  -1.187   2.529   0.837 -0.5781  0.1694  0.1250
   20FTM     C612260  -1.112   2.651   0.784 -0.5480  0.2200  0.1221
   20FTM     C712261  -1.186   2.743   0.682  0.0199 -0.5302  0.8852
   20FTM     C812262  -1.320   2.811   0.726  0.8470  0.3500 -0.3497
   20FTM     C912263  -1.381   2.914   0.628 -0.2795 -0.1516  0.3642
   20FTM    C1012264  -1.437   2.861   0.498 -0.4194 -0.1239  0.3873
   20FTM    C1112265  -0.968   2.628   0.725 -0.0278  0.3619 -0.4617
   20FTM    C1212266  -0.887   2.760   0.710  0.1495  0.2085  0.4776
   21FTM     S112267  -0.630   2.356   1.723  0.1784  0.1986 -0.2322
   21FTM     C112268  -0.573   2.238   1.846  0.2611  0.2905 -0.1818
   21FTM     C212269  -0.593   2.111   1.801  0.3567  0.2570 -0.1314
   21FTM     C312270  -0.653   2.098   1.672  0.3715  0.1602 -0.1290
   21FTM     C412271  -0.679   2.220   1.615  0.2839  0.1182 -0.1792
   21FTM     F112272  -0.559   1.998   1.875  0.4373  0.3121 -0.0844
   21FTM     C512273  -0.522   2.303   1.974  0.1180  0.1856 -0.0414
   21FTM     C612274  -0.572   2.251   2.108  0.4924  0.6433 -0.0961
   21FTM     C712275  -0.475   2.229   2.224 -0.2984  0.0852  0.0980
   21FTM     C812276  -0.373   2.125   2.214 -1.1679  0.1162  0.5813
   21FTM     C912277  -0.401   1.978   2.166  0.8564 -0.6140 -0.2003
   21FTM    C1012278  -0.526   1.909   2.227 -0.9316  0.2543 -0.0449
   21FTM    C1112279  -0.718   2.277   2.141  0.8507 -0.1609  0.0337
   21FTM    C1212280  -0.791   2.193   2.255 -0.5051  0.8599  0.6166
   22TPM     C112281  -0.362   2.334   1.176  0.4537  0.0326 -0.1118
   22TPM     C212282  -0.266   2.238   1.191  0.6537  0.2239 -0.1579
   22TPM     C312283  -0.139   2.274   1.136  0.5789  0.5163 -0.1419
   22TPM     C412284  -0.137   2.398   1.078  0.3217  0.5480 -0.0837
   22TPM     S112285  -0.298   2.479   1.090  0.1525  0.2082 -0.0442
   23BDD     C112286   0.074   2.603   0.820  0.1629 -0.0775 -0.2400
   23BDD     C212287   0.166   2.534   0.894  0.1583 -0.0659 -0.2237
   23BDD     C312288   0.106   2.448   0.995  0.1529 -0.0210 -0.1885
   23BDD     C412289  -0.031   2.452   0.995  0.1536  0.0009 -0.1784
   23BDD     S112290  -0.094   2.564   0.870  0.1609 -0.0331 -0.2123
   23BDD     C512291   0.312   2.546   0.876  0.1586 -0.0956 -0.2399
   23BDD     C612292   0.187   2.366   1.087  0.1474 -0.0017 -0.1661
   23BDD     O112293   0.135   2.291   1.173  0.1428  0.0370 -0.1357
   23BDD     O212294   0.363   2.620   0.789  0.1631 -0.1342 -0.2703
   23BDD     C712295   0.333   2.377   1.068  0.1477 -0.0314 -0.1823
   23BDD     C812296   0.393   2.463   0.968  0.1530 -0.0762 -0.2175
   23BDD     C912297   0.529   2.459   0.967  0.1524 -0.0981 -0.2276
   23BDD     S212298   0.593   2.347   1.093  0.1450 -0.0642 -0.1936
   23BDD    C1012299   0.425   2.309   1.143  0.1431 -0.0198 -0.1661
   23BDD    C1112300   0.417   2.202   1.251 -0.0431 -0.2974 -0.1995
   23BDD    C1212301   0.434   2.241   1.397  0.2262 -0.2977  0.0454
   23BDD    C1312302   0.323   2.337   1.441  0.4093  0.0126 -0.2415
   23BDD    C1412303   0.317   2.403   1.575  0.0374  0.8397 -0.0672
   23BDD    C1512304   0.449   2.471   1.627  0.2332 -0.1497  0.2996
   23BDD    C1612305   0.444   2.536   1.762 -0.5273 -0.0906 -0.4217
   23BDD    C1712306   0.462   2.118   1.487  0.0023  0.2157  0.6196
   23BDD    C1812307   0.372   1.998   1.490 -0.0709  0.8880  0.5377
   23BDD    C1912308   0.634   2.522   0.891 -0.6001 -0.2020  0.3412
   23BDD    C2012309   0.679   2.653   0.952 -0.9909 -0.2709  0.4442
   23BDD    C2112310   0.760   2.748   0.859  0.0887  0.1617  0.4882
   23BDD    C2212311   0.698   2.816   0.733 -0.2717  0.9823  0.1464
   23BDD    C2312312   0.570   2.886   0.744  0.4195 -0.0464  0.0228
   23BDD    C2412313   0.520   2.927   0.603  0.0299  0.2578  1.0978
   23BDD    C2512314   0.759   2.632   1.085 -0.4621 -0.0542  0.2553
   23BDD    C2612315   0.782   2.762   1.159  0.1493  0.0202 -0.1446
   24TPM     C112316   0.075   2.716   0.739 -0.0740  0.1476  0.2328
   24TPM     C212317   0.176   2.807   0.744 -0.1141  0.1866  0.3329
   24TPM     C312318   0.152   2.926   0.666 -0.0914  0.1861  0.3250
   24TPM     C412319   0.032   2.925   0.601 -0.0340  0.1468  0.2189
   24TPM     S112320  -0.061   2.774   0.634 -0.0042  0.1069  0.1200
   25BDTP    C112321  -0.180   3.416   0.271  0.2255 -0.0313  0.2447
   25BDTP    C212322  -0.289   3.325   0.262  0.1261  0.0942  0.1682
   25BDTP    C312323  -0.287   3.200   0.323 -0.0248  0.0570  0.0964
   25BDTP    C412324  -0.173   3.164   0.397 -0.0803 -0.1120  0.1001
   25BDTP    C512325  -0.065   3.255   0.406  0.0188 -0.2375  0.1766
   25BDTP    C612326  -0.066   3.380   0.345  0.1695 -0.2002  0.2484
   25BDTP    C712327  -0.149   3.041   0.469 -0.2321 -0.1807  0.0339
   25BDTP    C812328  -0.029   3.035   0.531 -0.2513 -0.3496  0.0568
   25BDTP    S112329   0.071   3.185   0.507 -0.0799 -0.4454  0.1653
   25BDTP    C912330  -0.204   3.540   0.199  0.3772  0.0375  0.3108
   25BDTP   C1012331  -0.324   3.545   0.137  0.3963  0.2064  0.2880
   25BDTP    S212332  -0.424   3.395   0.161  0.2250  0.3021  0.1795
   26FTM     S112333  -0.564   3.182   0.364 -0.0642  0.2599 -0.1030
   26FTM     C112334  -0.640   3.020   0.349 -0.3118  0.4137 -0.5378
   26FTM     C212335  -0.546   2.927   0.316 -0.3350  0.2487 -0.1500
   26FTM     C312336  -0.412   2.976   0.302 -0.1664 -0.0014  0.4934
   26FTM     C412337  -0.403   3.110   0.324 -0.0082 -0.0287  0.6017
   26FTM     F112338  -0.575   2.793   0.298 -0.5109  0.3142 -0.3545
   26FTM     C512339  -0.784   3.011   0.375  0.2803  0.4891 -0.6391
   26FTM     C612340  -0.894   2.972   0.277 -0.2296 -0.2218  0.3576
   26FTM     C712341  -0.909   3.067   0.152 -0.5303 -0.5833 -0.6229
   26FTM     C812342  -0.951   3.213   0.178  0.1902  0.2332 -0.4505
   26FTM     C912343  -0.959   3.300   0.050  0.0857  0.6153 -0.1114
   26FTM    C1012344  -0.838   3.305  -0.041 -0.5183  0.2696 -1.0156
   26FTM    C1112345  -0.888   2.825   0.232 -0.2442  0.1536  0.3300
   26FTM    C1212346  -0.929   2.720   0.333  0.3773  0.3556  0.1077
   27FTM     S112347   0.082   3.533   0.538 -0.0834 -0.1365 -0.0205
   27FTM     C112348   0.221   3.628   0.475 -0.0391  0.0561  0.3644
   27FTM     C212349   0.232   3.612   0.340  0.0890  0.4203  0.3287
   27FTM     C312350   0.134   3.527   0.279  0.1588  0.5683  0.0076
   27FTM     C412351   0.046   3.476   0.370  0.0816  0.3089 -0.2097
   27FTM     F112352   0.330   3.673   0.265  0.1506  0.6414  0.5846
   27FTM     C512353   0.300   3.693   0.589 -0.0932 -0.0852  0.4760
   27FTM     C612354   0.407   3.796   0.552  0.4311  0.1927 -0.1247
   27FTM     C712355   0.491   3.822   0.679 -0.3295 -0.6521  0.5762
   27FTM     C812356   0.626   3.748   0.675  0.0570 -0.0635  0.1812
   27FTM     C912357   0.717   3.796   0.788 -0.1568 -0.2611  0.2514
   27FTM    C1012358   0.867   3.756   0.771 -0.3329  0.0053 -0.3485
   27FTM    C1112359   0.361   3.925   0.468  0.3145 -0.1878  0.9967
   27FTM    C1212360   0.260   4.022   0.538 -0.4331 -0.0503  0.0597
   28TPM     C112361  -0.381   3.651   0.055  0.3515 -0.2175  0.0655
   28TPM     C212362  -0.316   3.769   0.030  0.0014  0.1094  0.6552
   28TPM     C312363  -0.386   3.855  -0.062 -0.0656  0.1911  0.7820
   28TPM     C412364  -0.504   3.803  -0.107  0.2329 -0.0736  0.2895
   28TPM     S112365  -0.536   3.640  -0.036  0.6254 -0.4494 -0.3786
   29BDD     C112366  -0.627   4.065  -0.372  0.0623 -0.2619 -0.2901
   29BDD     C212367  -0.735   3.985  -0.351  0.0386 -0.2031 -0.1857
   29BDD     C312368  -0.712   3.881  -0.252  0.0031 -0.0722 -0.0393
   29BDD     C412369  -0.586   3.884  -0.199  0.0001 -0.0331 -0.0339
   29BDD     S112370  -0.488   4.016  -0.269  0.0415 -0.1576 -0.2122
   29BDD     C512371  -0.864   4.001  -0.421  0.0479 -0.2649 -0.2172
   29BDD     C612372  -0.816   3.783  -0.214 -0.0269  0.0095  0.0904
   29BDD     O112373  -0.796   3.693  -0.128 -0.0577  0.1223  0.2167
   29BDD     O212374  -0.884   4.090  -0.506  0.0789 -0.3778 -0.3436
   29BDD     C712375  -0.945   3.799  -0.284 -0.0174 -0.0525  0.0589
   29BDD     C812376  -0.968   3.903  -0.383  0.0181 -0.1833 -0.0877
   29BDD     C912377  -1.094   3.900  -0.436  0.0210 -0.2223 -0.0935
   29BDD     S212378  -1.193   3.767  -0.366 -0.0207 -0.0978  0.0848
   29BDD    C1012379  -1.054   3.718  -0.263 -0.0415  0.0066  0.1628
   29BDD    C1112380  -1.076   3.594  -0.179 -0.0990 -0.9804  0.2037
   29BDD    C1212381  -1.169   3.577  -0.053  0.1810  0.1190 -0.4284
   29BDD    C1312382  -1.320   3.591  -0.080 -0.1900 -0.0941  0.3567
   29BDD    C1412383  -1.383   3.507  -0.194 -0.6216  0.0739 -0.2768
   29BDD    C1512384  -1.365   3.354  -0.178 -0.1158  0.2540  0.0733
   29BDD    C1612385  -1.447   3.289  -0.283 -0.2071  0.0605  0.6308
   29BDD    C1712386  -1.126   3.666   0.063 -0.2287 -0.5433  0.3464
   29BDD    C1812387  -1.185   3.643   0.202 -0.8861  0.3733 -0.1223
   29BDD    C1912388  -1.180   3.981  -0.537 -0.6621  0.4589  0.0519
   29BDD    C2012389  -1.248   4.110  -0.490 -0.2068 -0.2907 -0.7334
   29BDD    C2112390  -1.309   4.189  -0.616  0.5002 -0.1684 -0.3262
   29BDD    C2212391  -1.219   4.203  -0.738 -0.1677  0.3580 -0.4175
   29BDD    C2312392  -1.105   4.301  -0.712  0.4160 -0.3310  0.2153
   29BDD    C2412393  -1.012   4.329  -0.829  0.1705  0.3508  0.8533
   29BDD    C2512394  -1.342   4.104  -0.373 -0.5137  0.6180 -0.0302
   29BDD    C2612395  -1.374   4.228  -0.294 -0.4943 -0.5075 -0.2229
   30TPM     C112396  -0.592   4.183  -0.445  0.2423 -0.1114  0.3257
   30TPM     C212397  -0.670   4.292  -0.469  0.1144 -0.2158  0.2608
   30TPM     C312398  -0.601   4.398  -0.539 -0.0546 -0.2403  0.0558
   30TPM     C412399  -0.471   4.369  -0.569 -0.0554 -0.1546 -0.0355
   30TPM     S112400  -0.425   4.205  -0.509  0.1585 -0.0352  0.1315
   31BDTP    C112401  -0.035   4.725  -0.843 -0.1564 -0.0526 -0.1891
   31BDTP    C212402   0.020   4.594  -0.848 -0.0210 -0.0023 -0.0374
   31BDTP    C312403  -0.044   4.483  -0.794  0.0732 -0.0136  0.0525
   31BDTP    C412404  -0.169   4.503  -0.732  0.0319 -0.0775 -0.0095
   31BDTP    C512405  -0.224   4.634  -0.727 -0.1032 -0.1278 -0.1616
   31BDTP    C612406  -0.159   4.745  -0.781 -0.1974 -0.1163 -0.2516
   31BDTP    C712407  -0.254   4.404  -0.670  0.1113 -0.1011  0.0618
   31BDTP    C812408  -0.369   4.454  -0.619  0.0429 -0.1657 -0.0284
   31BDTP    S112409  -0.386   4.633  -0.642 -0.1314 -0.2060 -0.2158
   31BDTP    C912410   0.051   4.824  -0.906 -0.2356 -0.0290 -0.2606
   31BDTP   C1012411   0.166   4.774  -0.957 -0.1674  0.0356 -0.1707
   31BDTP    S212412   0.182   4.594  -0.933  0.0071  0.0760  0.0165
   32FTM     S112413  -0.060   4.210  -0.868  0.0341 -0.1709  0.2425
   32FTM     C112414   0.086   4.109  -0.839  0.0857 -0.1259  0.1419
   32FTM     C212415   0.183   4.185  -0.780  0.2496  0.0070 -0.2944
   32FTM     C312416   0.150   4.322  -0.756  0.3424  0.0801 -0.5703
   32FTM     C412417   0.024   4.353  -0.797  0.2470  0.0007 -0.3377
   32FTM     F112418   0.308   4.134  -0.746  0.3247  0.0703 -0.4702
   32FTM     C512419   0.084   3.959  -0.868  0.6376  0.4628 -0.6572
   32FTM     C612420   0.111   3.900  -1.011  0.0379 -0.3053 -0.2495
   32FTM     C712421   0.225   3.972  -1.078  0.1170  0.0541 -0.0434
   32FTM     C812422   0.213   3.990  -1.229 -0.1265  0.0788  0.7554
   32FTM     C912423   0.091   4.068  -1.286 -0.5598  0.1656 -0.0591
   32FTM    C1012424   0.026   4.196  -1.227 -0.4630 -0.2231 -0.4527
   32FTM    C1112425   0.098   3.748  -1.023 -0.2103 -0.3738 -0.3300
   32FTM    C1212426   0.188   3.651  -0.942  0.2234 -0.4713  0.0526
   33FTM     S112427  -0.208   5.007  -0.882  0.2676  0.1023  0.3012
   33FTM     C112428  -0.294   5.120  -0.771 -0.3866 -0.0939  0.0043
   33FTM     C212429  -0.323   5.057  -0.654 -0.8330 -0.2190 -0.1681
   33FTM     C312430  -0.281   4.921  -0.644 -0.6971 -0.1709 -0.0820
   33FTM     C412431  -0.218   4.877  -0.756 -0.1281 -0.0037  0.1645
   33FTM     F112432  -0.389   5.119  -0.549 -1.3916 -0.3843 -0.4144
   33FTM     C512433  -0.282   5.270  -0.803 -0.1982  1.4648  0.5626
   33FTM     C612434  -0.400   5.366  -0.821  0.1684 -0.0223 -0.0668
   33FTM     C712435  -0.362   5.509  -0.853 -0.6666 -0.7978  0.3447
   33FTM     C812436  -0.279   5.587  -0.752 -0.4376  0.1081 -0.4094
   33FTM     C912437  -0.351   5.593  -0.615  0.1807  0.4360 -0.0208
   33FTM    C1012438  -0.305   5.701  -0.521 -1.0181 -0.0752 -0.2054
   33FTM    C1112439  -0.523   5.320  -0.905 -0.3201 -0.0463  0.6056
   33FTM    C1212440  -0.651   5.396  -0.891  0.0615 -0.2881  0.1005
   34TPM     C112441   0.260   4.842  -1.047  0.0035  0.1727 -0.1871
   34TPM     C212442   0.294   4.974  -1.058  0.1938  0.1330 -0.0823
   34TPM     C312443   0.390   5.001  -1.162  0.3681  0.0529  0.0572
   34TPM     C412444   0.429   4.889  -1.231  0.3106  0.0315  0.0587
   34TPM     S112445   0.347   4.741  -1.169  0.0298  0.1116 -0.1169
   35BDD     C112446   0.724   4.968  -1.481 -0.0921 -0.0146  0.1617
   35BDD     C212447   0.647   4.876  -1.546 -0.1160 -0.0113  0.1850
   35BDD     C312448   0.533   4.831  -1.469 -0.0515 -0.0638  0.2499
   35BDD     C412449   0.525   4.889  -1.345  0.0208 -0.1064  0.2750
   35BDD     S112450   0.659   5.004  -1.317  0.0130 -0.0838  0.2189
   35BDD     C512451   0.675   4.826  -1.682 -0.1991  0.0403  0.1490
   35BDD     C612452   0.436   4.731  -1.520 -0.0638 -0.0699  0.2847
   35BDD     O112453   0.338   4.692  -1.453 -0.0081 -0.1152  0.3407
   35BDD     O212454   0.774   4.865  -1.749 -0.2548  0.0855  0.0930
   35BDD     C712455   0.465   4.682  -1.656 -0.1469 -0.0181  0.2483
   35BDD     C812456   0.579   4.727  -1.734 -0.2115  0.0345  0.1837
   35BDD     C912457   0.587   4.669  -1.857 -0.2837  0.0770  0.1585
   35BDD     S212458   0.452   4.553  -1.885 -0.2759  0.0543  0.2145
   35BDD    C1012459   0.387   4.590  -1.721 -0.1708 -0.0148  0.2718
   35BDD    C1112460   0.266   4.505  -1.696 -0.0040 -0.0014  0.6021
   35BDD    C1212461   0.295   4.357  -1.660 -0.4294  0.5601 -0.0105
   35BDD    C1312462   0.398   4.330  -1.550  0.3743 -0.3451 -0.6328
   35BDD    C1412463   0.362   4.343  -1.403  0.4576  0.3012 -0.9957
   35BDD    C1512464   0.467   4.308  -1.301 -0.2153  0.0644 -0.8291
   35BDD    C1612465   0.422   4.319  -1.153 -0.0778  0.1687 -0.2151
   35BDD    C1712466   0.172   4.270  -1.672  0.3902 -0.0887 -0.5575
   35BDD    C1812467   0.205   4.121  -1.678 -0.4084 -0.4333  0.4339
   35BDD    C1912468   0.692   4.679  -1.969 -0.1323  0.4468  0.2620
   35BDD    C2012469   0.813   4.582  -1.971  0.3841  0.1583 -0.6561
   35BDD    C2112470   0.784   4.431  -1.945 -0.1568  0.1531 -0.6353
   35BDD    C2212471   0.704   4.349  -2.042  0.1343  0.9890 -0.0949
   35BDD    C2312472   0.661   4.209  -1.999  0.2572 -0.1212  0.1898
   35BDD    C2412473   0.573   4.135  -2.099 -0.4185  0.6098 -0.1518
   35BDD    C2512474   0.894   4.642  -2.084 -0.3486  0.2232 -0.3313
   35BDD    C2612475   1.032   4.577  -2.118  0.6962  0.1379 -0.2500
   36TPM     C112476   0.836   5.052  -1.509  0.1069  0.0474 -0.2252
   36TPM     C212477   0.945   5.017  -1.583  0.5841  0.3264  0.3295
   36TPM     C312478   1.041   5.123  -1.599  0.4424  0.5473  0.9005
   36TPM     C412479   1.005   5.239  -1.537 -0.1429  0.4368  0.7811
   36TPM     S112480   0.846   5.223  -1.453 -0.5637  0.0422 -0.0680
   37BDTP    C112481   1.411   5.709  -1.421 -0.0140  0.0539  0.0980
   37BDTP    C212482   1.327   5.710  -1.306  0.0130 -0.0392  0.1194
   37BDTP    C312483   1.222   5.621  -1.289  0.0076 -0.0432  0.0648
   37BDTP    C412484   1.199   5.526  -1.390 -0.0260  0.0486 -0.0141
   37BDTP    C512485   1.283   5.525  -1.505 -0.0529  0.1417 -0.0353
   37BDTP    C612486   1.388   5.614  -1.522 -0.0476  0.1458  0.0190
   37BDTP    C712487   1.096   5.424  -1.395 -0.0377  0.0633 -0.0808
   37BDTP    C812488   1.099   5.347  -1.506 -0.0718  0.1616 -0.1500
   37BDTP    S112489   1.232   5.393  -1.621 -0.0938  0.2496 -0.1407
   37BDTP    C912490   1.514   5.811  -1.417 -0.0022  0.0393  0.1647
   37BDTP   C1012491   1.511   5.888  -1.305  0.0319 -0.0591  0.2341
   37BDTP    S212492   1.378   5.842  -1.191  0.0538 -0.1469  0.2249
   38FTM     S112493   1.044   5.763  -1.117 -0.0977  0.1256  0.0854
   38FTM     C112494   0.988   5.674  -0.971 -0.4575 -0.0258 -0.1436
   38FTM     C212495   1.047   5.551  -0.966 -0.3521  0.0280 -0.0470
   38FTM     C312496   1.137   5.520  -1.073  0.0063  0.1868  0.2050
   38FTM     C412497   1.147   5.622  -1.163  0.1810  0.2566  0.3048
   38FTM     F112498   1.022   5.460  -0.864 -0.5739 -0.0631 -0.1810
   38FTM     C512499   0.883   5.735  -0.881 -0.4352  0.7430 -0.3451
   38FTM     C612500   0.910   5.751  -0.730  0.4739 -0.5639  0.5830
   38FTM     C712501   0.783   5.782  -0.639 -1.0405 -0.0717 -0.6039
   38FTM     C812502   0.684   5.670  -0.637 -0.0843  0.2337  0.1726
   38FTM     C912503   0.557   5.678  -0.557 -0.1218 -0.5220  0.3027
   38FTM    C1012504   0.467   5.553  -0.565 -0.9465  0.5902 -0.3454
   38FTM    C1112505   1.037   5.835  -0.711 -0.4078  0.2549  0.3632
   38FTM    C1212506   1.041   5.986  -0.756  0.3953 -0.4846 -0.0303
   39FTM     S112507   1.397   5.599  -1.816  0.2893  0.3780 -0.0397
   39FTM     C112508   1.560   5.598  -1.891  0.2278  0.1643 -0.1716
   39FTM     C212509   1.656   5.600  -1.794  0.3107 -0.1527 -0.2431
   39FTM     C312510   1.608   5.603  -1.659  0.4243 -0.2464 -0.2007
   39FTM     C412511   1.472   5.603  -1.652  0.4286  0.0069 -0.0934
   39FTM     F112512   1.792   5.599  -1.822  0.2886 -0.3768 -0.3512
   39FTM     C512513   1.580   5.602  -2.035 -0.0303 -0.4456  0.3092
   39FTM     C612514   1.506   5.504  -2.136  0.2996 -0.0443 -0.3357
   39FTM     C712515   1.353   5.524  -2.151  0.0952 -0.4570 -0.2809
   39FTM     C812516   1.304   5.644  -2.217  0.0976 -0.2083 -0.6532
   39FTM     C912517   1.351   5.678  -2.354 -0.7373 -0.3797  0.4848
   39FTM    C1012518   1.283   5.807  -2.402  0.9839  0.2829 -0.4833
   39FTM    C1112519   1.546   5.360  -2.132  0.2668  0.1003 -0.6783
   39FTM    C1212520   1.702   5.325  -2.128  0.2188  0.7396 -0.1238
   40TPM     C112521   1.587   6.010  -1.273  0.0550  0.0397  0.2426
   40TPM     C212522   1.545   6.127  -1.217  0.3856 -0.0370  0.6673
   40TPM     C312523   1.647   6.228  -1.211  0.5384 -0.1842  0.5736
   40TPM     C412524   1.767   6.188  -1.261  0.3245 -0.2198  0.0774
   40TPM     S112525   1.761   6.018  -1.321 -0.0898 -0.0694 -0.3128
   41BDD     C112526   2.064   6.382  -1.426 -0.0473 -0.1481 -0.0052
   41BDD     C212527   2.037   6.451  -1.311 -0.0641 -0.1355 -0.0165
   41BDD     C312528   1.928   6.395  -1.234 -0.1414 -0.0694 -0.0768
   41BDD     C412529   1.873   6.283  -1.290 -0.1823 -0.0323 -0.1106
   41BDD     S112530   1.954   6.241  -1.445 -0.1269 -0.0777 -0.0691
   41BDD     C512531   2.111   6.572  -1.269 -0.0099 -0.1844  0.0272
   41BDD     C612532   1.882   6.454  -1.106 -0.1718 -0.0455 -0.0987
   41BDD     O112533   1.788   6.405  -1.039 -0.2384  0.0116 -0.1504
   41BDD     O212534   2.205   6.620  -1.336  0.0567 -0.2415  0.0794
   41BDD     C712535   1.956   6.575  -1.064 -0.1175 -0.0941 -0.0548
   41BDD     C812536   2.065   6.631  -1.141 -0.0403 -0.1603  0.0052
   41BDD     C912537   2.120   6.743  -1.084  0.0006 -0.1975  0.0389
   41BDD     S212538   2.039   6.785  -0.930 -0.0548 -0.1521 -0.0024
   41BDD    C1012539   1.930   6.644  -0.949 -0.1344 -0.0818 -0.0663
   41BDD    C1112540   1.831   6.622  -0.831 -0.6427 -0.5924  0.6862
   41BDD    C1212541   1.709   6.726  -0.804  0.0940  0.7053  0.3484
   41BDD    C1312542   1.615   6.726  -0.921  0.0948 -0.3765  0.5041
   41BDD    C1412543   1.534   6.600  -0.958 -0.1191  0.6361 -0.4429
   41BDD    C1512544   1.491   6.506  -0.849 -0.2277 -0.0955 -0.7568
   41BDD    C1612545   1.427   6.375  -0.900 -0.4735  0.0104 -0.4191
   41BDD    C1712546   1.734   6.871  -0.772 -0.5963 -0.2852 -0.3763
   41BDD    C1812547   1.825   6.906  -0.655  0.2275  0.4845 -0.0437
   41BDD    C1912548   2.233   6.841  -1.128  0.1019  0.4273  0.0601
   41BDD    C2012549   2.335   6.888  -1.019 -0.0122  0.3242 -0.3203
   41BDD    C2112550   2.300   7.019  -0.954  0.1546  0.3745 -0.1578
   41BDD    C2212551   2.419   7.089  -0.901 -0.7610  0.0838  0.3706
   41BDD    C2312552   2.381   7.175  -0.782  0.6728 -0.6322  0.3018
   41BDD    C2412553   2.490   7.211  -0.691 -0.2143 -0.1461  0.3987
   41BDD    C2512554   2.415   6.782  -0.933  0.1510 -0.0833 -0.3160
   41BDD    C2612555   2.484   6.674  -1.007  0.2951  0.3051 -0.4564
   42TPM     C112556   2.171   6.380  -1.536  0.8297  0.4520  0.0950
   42TPM     C212557   2.248   6.485  -1.577  1.0325  0.3071  0.0968
   42TPM     C312558   2.334   6.454  -1.689  0.7333  0.2304 -0.1158
   42TPM     C412559   2.323   6.325  -1.732  0.3022  0.3172 -0.2803
   42TPM     S112560   2.203   6.232  -1.634  0.2404  0.5037 -0.1783
   43BDTP    C112561   2.644   6.080  -2.219  0.0924 -0.0730 -0.1426
   43BDTP    C212562   2.554   5.975  -2.186  0.1629 -0.1347 -0.1459
   43BDTP    C312563   2.461   5.986  -2.083  0.1832 -0.2158 -0.1192
   43BDTP    C412564   2.457   6.105  -2.009  0.1317 -0.2367 -0.0877
   43BDTP    C512565   2.548   6.210  -2.042  0.0614 -0.1748 -0.0845
   43BDTP    C612566   2.641   6.199  -2.145  0.0411 -0.0936 -0.1112
   43BDTP    C712567   2.370   6.139  -1.898  0.1402 -0.3166 -0.0563
   43BDTP    C812568   2.391   6.263  -1.847  0.0803 -0.3173 -0.0304
   43BDTP    S112569   2.524   6.354  -1.932  0.0049 -0.2171 -0.0415
   43BDTP    C912570   2.731   6.046  -2.329  0.0840  0.0070 -0.1738
   43BDTP   C1012571   2.711   5.922  -2.381  0.1438  0.0077 -0.1999
   43BDTP    S212572   2.578   5.832  -2.296  0.2194 -0.0923 -0.1887
   44FTM     S112573   2.332   5.823  -1.887  0.1966 -0.0132  0.0660
   44FTM     C112574   2.195   5.721  -1.946  0.0698  0.0265  0.2877
   44FTM     C212575   2.184   5.734  -2.081 -0.2577  0.1665  0.3266
   44FTM     C312576   2.278   5.821  -2.145 -0.4259  0.2495  0.1899
   44FTM     C412577   2.365   5.877  -2.057 -0.2205  0.1704  0.0411
   44FTM     F112578   2.087   5.667  -2.155 -0.4246  0.2278  0.4889
   44FTM     C512579   2.119   5.636  -1.849  0.1529  0.5425  0.3110
   44FTM     C612580   2.082   5.710  -1.726 -0.0067 -0.1696 -0.2953
   44FTM     C712581   2.048   5.630  -1.598 -0.2426 -0.2646 -0.1422
   44FTM     C812582   2.144   5.531  -1.534  0.0980  0.5939  0.2908
   44FTM     C912583   2.257   5.582  -1.448 -0.2737 -0.8213 -0.0371
   44FTM    C1012584   2.225   5.676  -1.331 -0.1636  0.1203 -0.3313
   44FTM    C1112585   2.002   5.835  -1.745 -0.3179  0.2835 -0.1154
   44FTM    C1212586   1.979   5.924  -1.620  0.1582 -0.2643 -0.1127
   45FTM     S112587   2.667   6.469  -2.195  0.1007  0.1404  0.0419
   45FTM     C112588   2.830   6.545  -2.191  0.1312  0.0776 -0.0059
   45FTM     C212589   2.925   6.450  -2.166  0.1125  0.0244 -0.1371
   45FTM     C312590   2.877   6.316  -2.149  0.0743  0.0293 -0.2071
   45FTM     C412591   2.741   6.308  -2.162  0.0632  0.0881 -0.1264
   45FTM     F112592   3.060   6.479  -2.157  0.1290 -0.0317 -0.2021
   45FTM     C512593   2.850   6.686  -2.233 -0.4368  0.6498  0.2457
   45FTM     C612594   2.847   6.805  -2.128 -0.3662  0.7769 -0.0187
   45FTM     C712595   2.881   6.942  -2.194 -0.3191 -0.2722  0.0316
   45FTM     C812596   3.010   6.986  -2.255 -1.3507  0.0545  0.4973
   45FTM     C912597   3.132   6.973  -2.171  0.4179  0.4109 -0.0191
   45FTM    C1012598   3.143   7.069  -2.054 -0.4145  0.0872  0.4600
   45FTM    C1112599   2.719   6.808  -2.046  0.2581  0.3651 -1.0683
   45FTM    C1212600   2.706   6.905  -1.927  0.0011  0.0208  0.0928
   46TPM     C112601   2.770   5.863  -2.498  0.1546  0.2025  0.1147
   46TPM     C212602   2.709   5.786  -2.592  0.3522 -0.4339  0.4945
   46TPM     C312603   2.787   5.765  -2.711  0.4231 -0.8696  0.6113
   46TPM     C412604   2.908   5.827  -2.708  0.2795 -0.5656  0.3207
   46TPM     S112605   2.933   5.916  -2.553  0.0416  0.3015 -0.1266
   47BDD     C112606   3.089   5.686  -3.034  0.1180 -0.2194 -0.0626
   47BDD     C212607   3.188   5.750  -2.966  0.0816 -0.1535 -0.0718
   47BDD     C312608   3.144   5.810  -2.841  0.0036  0.0098 -0.1774
   47BDD     C412609   3.011   5.790  -2.816 -0.0182  0.0662 -0.2474
   47BDD     S112610   2.932   5.695  -2.946  0.0572 -0.0813 -0.1857
   47BDD     C512611   3.328   5.759  -3.013  0.1171 -0.2385  0.0165
   47BDD     C612612   3.234   5.885  -2.752 -0.0463  0.1040 -0.2052
   47BDD     O112613   3.196   5.936  -2.644 -0.1135  0.2449 -0.2962
   47BDD     O212614   3.366   5.708  -3.120  0.1844 -0.3793  0.1076
   47BDD     C712615   3.374   5.894  -2.799 -0.0108  0.0191 -0.1169
   47BDD     C812616   3.419   5.834  -2.923  0.0671 -0.1442 -0.0113
   47BDD     C912617   3.552   5.854  -2.949  0.0889 -0.2006  0.0587
   47BDD     S212618   3.630   5.949  -2.818  0.0135 -0.0531 -0.0030
   47BDD    C1012619   3.474   5.959  -2.731 -0.0473  0.0849 -0.1261
   47BDD    C1112620   3.485   6.021  -2.592  0.6699 -0.1647  0.2924
   47BDD    C1212621   3.466   6.168  -2.575  0.0754  0.2230  0.1480
   47BDD    C1312622   3.455   6.216  -2.431  0.0380 -0.5541 -0.1910
   47BDD    C1412623   3.367   6.155  -2.314  0.0987  0.8766 -0.0984
   47BDD    C1512624   3.218   6.150  -2.361 -0.3383 -0.0208  0.1678
   47BDD    C1612625   3.134   6.104  -2.248  0.0896  0.1241  0.1400
   47BDD    C1712626   3.538   6.261  -2.680  0.4846  0.5218  0.2116
   47BDD    C1812627   3.484   6.402  -2.702 -0.0829 -0.3250 -0.3170
   47BDD    C1912628   3.646   5.792  -3.054 -0.2919 -0.2693  0.3382
   47BDD    C2012629   3.744   5.685  -3.010  0.1162  0.7180  0.2922
   47BDD    C2112630   3.673   5.560  -2.971 -0.0532  0.4012 -0.1468
   47BDD    C2212631   3.759   5.426  -2.971 -0.1342  0.0760 -0.2236
   47BDD    C2312632   3.824   5.385  -3.103 -0.5184  0.0182  0.5523
   47BDD    C2412633   3.731   5.342  -3.217 -0.6058 -0.4237  0.4187
   47BDD    C2512634   3.869   5.717  -2.932 -0.0700  0.6180  0.0364
   47BDD    C2612635   3.958   5.830  -2.989 -0.2024  0.4818 -0.4651
   48TPM     C112636   3.078   5.599  -3.145 -0.2412  0.0401 -0.1314
   48TPM     C212637   3.129   5.639  -3.265 -0.3977  0.0378 -0.1994
   48TPM     C312638   3.082   5.560  -3.377 -0.4456 -0.0452 -0.1214
   48TPM     C412639   2.995   5.461  -3.342 -0.3256 -0.1060  0.0059
   48TPM     S112640   2.966   5.459  -3.164 -0.1414 -0.0629  0.0374
   49BDTP    C112641   2.727   5.085  -3.764 -0.1580  0.0839 -0.0242
   49BDTP    C212642   2.657   5.053  -3.644 -0.0336 -0.0145  0.0224
   49BDTP    C312643   2.683   5.116  -3.523  0.0871 -0.1091  0.0460
   49BDTP    C412644   2.783   5.215  -3.520  0.0854 -0.1066  0.0226
   49BDTP    C512645   2.853   5.247  -3.640 -0.0389 -0.0080 -0.0240
   49BDTP    C612646   2.827   5.184  -3.761 -0.1596  0.0866 -0.0477
   49BDTP    C712647   2.827   5.294  -3.407  0.1975 -0.1944  0.0400
   49BDTP    C812648   2.926   5.382  -3.435  0.1639 -0.1667  0.0091
   49BDTP    S112649   2.976   5.378  -3.610 -0.0147 -0.0256 -0.0466
   49BDTP    C912650   2.683   5.007  -3.878 -0.2702  0.1718 -0.0417
   49BDTP   C1012651   2.584   4.918  -3.849 -0.2365  0.1440 -0.0107
   49BDTP    S212652   2.534   4.922  -3.674 -0.0579  0.0031  0.0450
   50FTM     S112653   2.499   5.205  -3.315 -0.0256  0.1884  0.2832
   50FTM     C112654   2.431   5.073  -3.212  0.1065 -0.1596 -0.0710
   50FTM     C212655   2.486   4.954  -3.248  0.0004 -0.0565 -0.6028
   50FTM     C312656   2.582   4.958  -3.354 -0.1857  0.2909 -0.7635
   50FTM     C412657   2.602   5.084  -3.401 -0.2232  0.4593 -0.3408
   50FTM     F112658   2.452   4.834  -3.186  0.0653 -0.2710 -0.9757
   50FTM     C512659   2.344   5.109  -3.098  0.2654  0.2620  0.1077
   50FTM     C612660   2.401   5.132  -2.951 -0.4340  0.0808  0.9615
   50FTM     C712661   2.298   5.151  -2.836 -0.6442  0.5464  0.8234
   50FTM     C812662   2.186   5.049  -2.815 -0.1488  0.5924  0.2997
   50FTM     C912663   2.237   4.899  -2.801 -0.5532 -0.0440  0.4189
   50FTM    C1012664   2.326   4.869  -2.686  0.5830  0.0089 -0.1896
   50FTM    C1112665   2.536   5.204  -2.936 -0.6750  0.0711 -0.0068
   50FTM    C1212666   2.532   5.355  -2.952  0.5274 -0.1574 -0.0417
   51FTM     S112667   2.895   5.402  -3.931 -0.2507  0.0376  0.0812
   51FTM     C112668   3.000   5.360  -4.070 -0.3530 -0.1890  0.0717
   51FTM     C212669   3.027   5.227  -4.069 -0.2321 -0.1636  0.3533
   51FTM     C312670   2.968   5.151  -3.962 -0.0567  0.0290  0.5882
   51FTM     C412671   2.894   5.229  -3.879 -0.0429  0.1551  0.4828
   51FTM     F112672   3.107   5.165  -4.164 -0.2730 -0.3132  0.4154
   51FTM     C512673   3.042   5.474  -4.161 -0.0532  0.2021  0.4860
   51FTM     C612674   2.955   5.508  -4.279 -0.5218  0.8935  0.0713
   51FTM     C712675   2.920   5.393  -4.381 -0.3592 -0.4690  0.0122
   51FTM     C812676   2.805   5.303  -4.359 -0.0399 -0.6761  0.8391
   51FTM     C912677   2.806   5.181  -4.451 -0.0197  0.1584  0.7970
   51FTM    C1012678   2.700   5.074  -4.431 -0.1873  0.5482 -0.3525
   51FTM    C1112679   2.997   5.627  -4.357  0.2308 -0.2479 -0.0340
   51FTM    C1212680   3.029   5.758  -4.286  0.0538  0.0869 -0.3435
   52TPM     C112681   2.493   4.860  -3.945  0.1201  0.3545 -0.0957
   52TPM     C212682   2.361   4.834  -3.928  0.1561  0.2559  0.0397
   52TPM     C312683   2.296   4.783  -4.046  0.1453 -0.1107  0.2003
   52TPM     C412684   2.379   4.770  -4.153  0.1010 -0.2917  0.1871
   52TPM     S112685   2.547   4.821  -4.113  0.0692 -0.0112 -0.0308
   53BDD     C112686   2.261   4.817  -4.528  0.0313  0.0835  0.1349
   53BDD     C212687   2.189   4.711  -4.479  0.0524  0.0746  0.1467
   53BDD     C312688   2.222   4.679  -4.341  0.0047  0.1442  0.1744
   53BDD     C412689   2.317   4.760  -4.287 -0.0519  0.2050  0.1833
   53BDD     S112690   2.374   4.883  -4.405 -0.0497  0.1795  0.1576
   53BDD     C512691   2.089   4.636  -4.557  0.1171  0.0019  0.1330
   53BDD     C612692   2.156   4.568  -4.268  0.0172  0.1478  0.1909
   53BDD     O112693   2.184   4.541  -4.149 -0.0238  0.2079  0.2147
   53BDD     O212694   2.061   4.664  -4.676  0.1581 -0.0582  0.1092
   53BDD     C712695   2.056   4.493  -4.346  0.0820  0.0752  0.1774
   53BDD     C812696   2.024   4.526  -4.484  0.1295  0.0055  0.1498
   53BDD     C912697   1.928   4.444  -4.537  0.1863 -0.0554  0.1409
   53BDD     S212698   1.872   4.321  -4.419  0.1840 -0.0298  0.1667
   53BDD    C1012699   1.984   4.388  -4.297  0.1030  0.0663  0.1892
   53BDD    C1112700   1.989   4.299  -4.178 -0.1591  0.3349  0.0160
   53BDD    C1212701   2.039   4.156  -4.196 -0.2159  0.6040  0.2174
   53BDD    C1312702   1.962   4.067  -4.097 -0.5670 -0.0021 -0.3726
   53BDD    C1412703   1.984   3.914  -4.108  0.9066 -0.5567  0.1716
   53BDD    C1512704   1.950   3.837  -3.980  0.9154 -0.3346 -0.5430
   53BDD    C1612705   1.998   3.691  -3.974  0.6541 -0.4639  0.0648
   53BDD    C1712706   2.189   4.133  -4.242 -0.2697 -0.6269 -0.5503
   53BDD    C1812707   2.296   4.163  -4.137 -0.3887 -0.1586 -0.1954
   53BDD    C1912708   1.857   4.430  -4.666  0.1974 -0.5121  0.9172
   53BDD    C2012709   1.704   4.463  -4.663 -0.0928 -0.0937 -0.1236
   53BDD    C2112710   1.665   4.587  -4.586  0.2751 -0.1391 -0.0632
   53BDD    C2212711   1.522   4.599  -4.538  0.6562 -0.0044  0.2222
   53BDD    C2312712   1.500   4.735  -4.493  0.1499 -0.2360 -0.0493
   53BDD    C2412713   1.373   4.761  -4.403  0.1200 -0.3158  0.3436
   53BDD    C2512714   1.622   4.430  -4.790  0.1138  0.3057 -1.0252
   53BDD    C2612715   1.629   4.514  -4.912 -0.7561 -0.1824  0.0272
   54TPM     C112716   2.276   4.893  -4.655  0.3494  0.0278 -0.2636
   54TPM     C212717   2.382   4.977  -4.676  0.1476  0.1980 -0.6250
   54TPM     C312718   2.385   5.035  -4.808 -0.3269  0.1092 -0.6800
   54TPM     C412719   2.283   4.995  -4.888 -0.4868 -0.1286 -0.3607
   54TPM     S112720   2.173   4.880  -4.802 -0.0471 -0.2599  0.0375
   55BDTP    C112721   2.216   5.279  -5.446  0.0631 -0.0647 -0.0217
   55BDTP    C212722   2.092   5.209  -5.434  0.0473 -0.0278  0.0324
   55BDTP    C312723   2.061   5.130  -5.325  0.0733 -0.0210  0.0447
   55BDTP    C412724   2.156   5.120  -5.221  0.1169 -0.0521  0.0015
   55BDTP    C512725   2.280   5.190  -5.233  0.1327 -0.0889 -0.0525
   55BDTP    C612726   2.311   5.268  -5.343  0.1067 -0.0958 -0.0650
   55BDTP    C712727   2.146   5.044  -5.098  0.1499 -0.0521  0.0043
   55BDTP    C812728   2.255   5.054  -5.018  0.1892 -0.0868 -0.0446
   55BDTP    S112729   2.385   5.160  -5.087  0.1900 -0.1243 -0.1010
   55BDTP    C912730   2.226   5.355  -5.569  0.0300 -0.0646 -0.0244
   55BDTP   C1012731   2.118   5.345  -5.650 -0.0094 -0.0298  0.0243
   55BDTP    S212732   1.987   5.239  -5.580 -0.0100  0.0076  0.0810
   56FTM     S112733   1.914   4.887  -5.262  0.0621 -0.2235 -0.0310
   56FTM     C112734   1.735   4.906  -5.254  0.0861 -0.1402  0.3544
   56FTM     C212735   1.701   5.033  -5.289  0.0555 -0.1894  0.2035
   56FTM     C312736   1.809   5.121  -5.323  0.0125 -0.2924 -0.2110
   56FTM     C412737   1.930   5.059  -5.314  0.0102 -0.3229 -0.3831
   56FTM     F112738   1.569   5.077  -5.292  0.0645 -0.1441  0.4318
   56FTM     C512739   1.648   4.795  -5.194 -0.2025  0.1542 -0.4801
   56FTM     C612740   1.550   4.705  -5.269  0.3408 -0.3113 -0.0997
   56FTM     C712741   1.607   4.636  -5.396 -0.2789 -0.2559 -0.1895
   56FTM     C812742   1.706   4.527  -5.367 -0.0545 -0.1054  0.6699
   56FTM     C912743   1.660   4.411  -5.280 -0.1577  0.2012  0.5349
   56FTM    C1012744   1.701   4.278  -5.337  0.0922 -0.1248 -0.2329
   56FTM    C1112745   1.415   4.771  -5.298  0.4538  0.1300 -0.3805
   56FTM    C1212746   1.316   4.816  -5.189  0.0436 -0.3437  0.0618
   57FTM     S112747   2.571   5.262  -5.463 -0.2218  0.0525 -0.2505
   57FTM     C112748   2.679   5.401  -5.426 -0.0914 -0.1796  0.2602
   57FTM     C212749   2.616   5.488  -5.343 -0.1236 -0.2745  0.3350
   57FTM     C312750   2.482   5.452  -5.304 -0.2487 -0.1749  0.0076
   57FTM     C412751   2.443   5.334  -5.359 -0.3144  0.0021 -0.3288
   57FTM     F112752   2.674   5.605  -5.297 -0.0417 -0.4572  0.7045
   57FTM     C512753   2.814   5.399  -5.478  0.1513 -0.6409  0.0174
   57FTM     C612754   2.852   5.487  -5.598 -0.3326 -0.0581  0.2887
   57FTM     C712755   3.001   5.489  -5.627  0.1346 -0.7555 -0.1989
   57FTM     C812756   3.096   5.556  -5.521 -0.0598  0.4324  0.2158
   57FTM     C912757   3.059   5.692  -5.470  0.6535  0.2838  0.6515
   57FTM    C1012758   3.160   5.760  -5.384  0.0014  0.4084 -0.5548
   57FTM    C1112759   2.778   5.456  -5.729  0.1400 -0.4031  0.2754
   57FTM    C1212760   2.628   5.509  -5.739  0.0172  0.4428 -0.0592
   58TPM     C112761   2.080   5.413  -5.769 -0.4551  0.0545 -0.1793
   58TPM     C212762   1.959   5.442  -5.824 -0.3271 -0.0097 -0.5007
   58TPM     C312763   1.966   5.520  -5.945 -0.0470 -0.0567 -0.5145
   58TPM     C412764   2.094   5.551  -5.982  0.0386 -0.0284 -0.2037
   58TPM     S112765   2.215   5.483  -5.866 -0.2302  0.0608  0.1333
   59BDD     C112766   2.044   5.744  -6.320  0.2422  0.1194 -0.1386
   59BDD     C212767   2.177   5.757  -6.293  0.2432  0.1112 -0.1398
   59BDD     C312768   2.218   5.693  -6.170  0.2697 -0.0299 -0.2211
   59BDD     C412769   2.115   5.632  -6.103  0.2884 -0.1272 -0.2807
   59BDD     S112770   1.960   5.651  -6.191  0.2743 -0.0490 -0.2391
   59BDD     C512771   2.272   5.829  -6.381  0.2199  0.2328 -0.0663
   59BDD     C612772   2.358   5.694  -6.122  0.2753 -0.0631 -0.2367
   59BDD     O112773   2.393   5.639  -6.015  0.2981 -0.1849 -0.3069
   59BDD     O212774   2.237   5.884  -6.488  0.1971  0.3545  0.0038
   59BDD     C712775   2.453   5.766  -6.210  0.2521  0.0587 -0.1633
   59BDD     C812776   2.412   5.830  -6.334  0.2255  0.1999 -0.0820
   59BDD     C912777   2.515   5.891  -6.400  0.2068  0.2972 -0.0224
   59BDD     S212778   2.670   5.872  -6.312  0.2209  0.2190 -0.0640
   59BDD    C1012779   2.586   5.779  -6.184  0.2531  0.0504 -0.1645
   59BDD    C1112780   2.683   5.724  -6.080  0.1095  0.1087  0.1309
   59BDD    C1212781   2.747   5.832  -5.994 -0.2723  0.4209 -0.2721
   59BDD    C1312782   2.640   5.922  -5.922  0.5811 -0.4665  0.2707
   59BDD    C1412783   2.694   6.041  -5.843 -0.1755 -1.1414 -0.0828
   59BDD    C1512784   2.584   6.138  -5.796 -0.2728  0.7411 -0.9214
   59BDD    C1612785   2.634   6.266  -5.732 -0.1920 -0.5421  0.3620
   59BDD    C1712786   2.858   5.788  -5.895 -0.2651 -0.1261 -0.0465
   59BDD    C1812787   2.972   5.714  -5.967 -0.2118  0.0734  0.3041
   59BDD    C1912788   2.531   5.953  -6.533 -0.6146  0.7821  0.2360
   59BDD    C2012789   2.617   5.871  -6.634 -0.2636  0.0568 -0.6879
   59BDD    C2112790   2.588   5.720  -6.663  0.1748  0.5702 -0.3537
   59BDD    C2212791   2.461   5.682  -6.744 -0.3254  0.4511 -0.1926
   59BDD    C2312792   2.335   5.626  -6.668  0.0962 -0.1586 -0.1330
   59BDD    C2412793   2.355   5.515  -6.567 -0.6176 -0.4978  0.3639
   59BDD    C2512794   2.638   5.957  -6.759 -0.0689  0.0101  0.2402
   59BDD    C2612795   2.739   5.917  -6.864  0.2447  0.2798  0.2035
   60TPM     C112796   1.959   5.784  -6.428  0.0462 -0.1814 -0.3153
   60TPM     C212797   1.982   5.761  -6.560 -0.1910 -0.2357 -0.3490
   60TPM     C312798   1.868   5.784  -6.645 -0.2818 -0.0616 -0.1793
   60TPM     C412799   1.757   5.826  -6.577 -0.1138  0.1248 -0.0163
   60TPM     S112800   1.789   5.838  -6.400  0.1743  0.0953 -0.0648
    1BDTP    C112801   5.024   5.887   3.399  0.1061  0.0081  0.1404
    1BDTP    C212802   5.088   5.760   3.391  0.0987  0.0039  0.1459
    1BDTP    C312803   5.226   5.746   3.392  0.0973 -0.0081  0.2076
    1BDTP    C412804   5.305   5.862   3.400  0.1036 -0.0165  0.2668
    1BDTP    C512805   5.240   5.989   3.407  0.1109 -0.0123  0.2614
    1BDTP    C612806   5.102   6.004   3.407  0.1123 -0.0005  0.1997
    1BDTP    C712807   5.449   5.873   3.402  0.1035 -0.0293  0.3364
    1BDTP    C812808   5.496   6.000   3.411  0.1104 -0.0348  0.3828
    1BDTP    S112809   5.363   6.124   3.417  0.1178 -0.0249  0.3452
    1BDTP    C912810   4.879   5.877   3.396  0.1061  0.0207  0.0709
    1BDTP   C1012811   4.833   5.750   3.388  0.0992  0.0266  0.0243
    1BDTP    S212812   4.965   5.626   3.381  0.0917  0.0164  0.0620
    2FTM     S112813   5.269   5.520   3.230 -0.1856 -0.1618  0.0040
    2FTM     C112814   5.374   5.389   3.296 -0.0685  0.0129  0.1673
    2FTM     C212815   5.416   5.422   3.420 -0.0260  0.2462  0.0918
    2FTM     C312816   5.371   5.549   3.471 -0.0805  0.3017 -0.0932
    2FTM     C412817   5.291   5.614   3.383 -0.1678  0.1048 -0.1615
    2FTM     F112818   5.499   5.340   3.496  0.0651  0.4232  0.1857
    2FTM     C512819   5.379   5.257   3.227 -0.2883 -0.5965 -0.8796
    2FTM     C612820   5.254   5.184   3.177  0.5351 -0.4104 -0.0519
    2FTM     C712821   5.289   5.100   3.053  0.8946  0.0542 -0.4437
    2FTM     C812822   5.350   5.172   2.928 -0.5938  0.1711  0.3925
    2FTM     C912823   5.269   5.290   2.869 -0.0554  0.0325 -0.4902
    2FTM    C1012824   5.165   5.236   2.773 -0.7613 -0.3731  0.5881
    2FTM    C1112825   5.151   5.130   3.281  0.0961  0.3145  0.1534
    2FTM    C1212826   5.010   5.128   3.223  0.1709 -0.3508 -0.4562
    3FTM     S112827   4.915   6.182   3.270 -0.1725 -0.3754 -0.1436
    3FTM     C112828   4.893   6.340   3.353 -0.3744 -0.3973 -0.1548
    3FTM     C212829   4.975   6.348   3.461 -0.3560 -0.2707 -0.1766
    3FTM     C312830   5.058   6.233   3.486 -0.1879 -0.1516 -0.1860
    3FTM     C412831   5.039   6.135   3.393 -0.0738 -0.1884 -0.1707
    3FTM     F112832   4.980   6.458   3.544 -0.4902 -0.2550 -0.1896
    3FTM     C512833   4.794   6.431   3.289 -0.0074  0.0157 -0.5420
    3FTM     C612834   4.642   6.435   3.319 -0.1662  0.7475 -0.5899
    3FTM     C712835   4.591   6.498   3.453 -0.9292 -0.3512  0.6869
    3FTM     C812836   4.677   6.606   3.527 -0.3327 -0.3698  0.0645
    3FTM     C912837   4.609   6.635   3.662  0.1301  0.0268 -0.2938
    3FTM    C1012838   4.676   6.733   3.750  0.2590  0.3395 -0.0699
    3FTM    C1112839   4.584   6.293   3.280 -0.0749  0.1058 -0.3426
    3FTM    C1212840   4.435   6.278   3.289  0.2492  0.1978  0.5675
    4TPM     C112841   4.693   5.713   3.392  0.2346  0.3638  0.3922
    4TPM     C212842   4.643   5.590   3.422  0.3333  0.4792  1.0469
    4TPM     C312843   4.499   5.581   3.411  0.3556  0.2601  0.9164
    4TPM     C412844   4.440   5.698   3.373  0.2739 -0.0227  0.1622
    4TPM     S112845   4.562   5.829   3.346  0.1615 -0.0342 -0.4465
    5BDD     C112846   4.055   5.631   3.335 -0.1466 -0.3281 -0.1172
    5BDD     C212847   4.089   5.703   3.224 -0.1299 -0.2048 -0.0324
    5BDD     C312848   4.228   5.744   3.222 -0.1889  0.0110  0.1529
    5BDD     C412849   4.299   5.702   3.331 -0.2497  0.0488  0.2069
    5BDD     S112850   4.196   5.609   3.445 -0.2373 -0.1827  0.0293
    5BDD     C512851   3.994   5.737   3.116 -0.0591 -0.2806 -0.1189
    5BDD     C612852   4.286   5.823   3.111 -0.1827  0.1717  0.2698
    5BDD     O112853   4.406   5.858   3.109 -0.2335  0.3576  0.4296
    5BDD     O212854   3.874   5.701   3.118 -0.0082 -0.4666 -0.2787
    5BDD     C712855   4.191   5.857   3.003 -0.1119  0.0956  0.1833
    5BDD     C812856   4.051   5.816   3.005 -0.0529 -0.1200 -0.0020
    5BDD     C912857   3.981   5.857   2.896  0.0079 -0.1580 -0.0560
    5BDD     S212858   4.083   5.950   2.782 -0.0044  0.0736  0.1215
    5BDD    C1012859   4.224   5.929   2.892 -0.0951  0.2191  0.2680
    5BDD    C1112860   4.353   5.993   2.835  0.0141  0.0833 -0.2110
    5BDD    C1212861   4.358   6.150   2.816  0.7285  0.4439 -0.0088
    5BDD    C1312862   4.489   6.212   2.762  0.4147 -0.5204 -0.6267
    5BDD    C1412863   4.611   6.176   2.851 -0.7406 -0.4043  0.1755
    5BDD    C1512864   4.747   6.239   2.819 -0.6639 -0.2812  0.8589
    5BDD    C1612865   4.753   6.389   2.842  0.0059  0.3385  0.0662
    5BDD    C1712866   4.300   6.225   2.939  0.0476 -0.2399  0.0328
    5BDD    C1812867   4.259   6.367   2.918 -0.7611 -0.2287 -0.0698
    5BDD    C1912868   3.841   5.846   2.845  0.2956  0.7687 -0.8576
    5BDD    C2012869   3.753   5.969   2.821 -0.9327  0.3447 -0.4611
    5BDD    C2112870   3.773   6.074   2.933 -0.0586 -0.0649  0.5800
    5BDD    C2212871   3.703   6.209   2.918  0.0610  0.4282 -0.0675
    5BDD    C2312872   3.733   6.287   2.798 -0.1131  0.0699 -0.7139
    5BDD    C2412873   3.696   6.437   2.798 -0.5218  0.4294  0.2842
    5BDD    C2512874   3.611   5.945   2.776 -0.3848  0.5731  0.2679
    5BDD    C2612875   3.597   5.881   2.639 -0.1702  0.1221 -0.4370
    6TPM     C112876   3.932   5.567   3.386  0.1040 -0.0672  0.4533
    6TPM     C212877   3.939   5.444   3.445 -0.0135  0.1742  0.9752
    6TPM     C312878   3.811   5.392   3.486 -0.1051  0.3076  0.8603
    6TPM     C412879   3.706   5.475   3.458 -0.0576  0.1678  0.2506
    6TPM     S112880   3.762   5.626   3.377  0.1080 -0.1455 -0.2293
    7BDTP    C112881   3.086   5.378   3.459 -0.0126 -0.1068 -0.0004
    7BDTP    C212882   3.128   5.300   3.570 -0.0916 -0.0632  0.0600
    7BDTP    C312883   3.261   5.289   3.609 -0.1175 -0.0553  0.1531
    7BDTP    C412884   3.357   5.358   3.533 -0.0632 -0.0921  0.1884
    7BDTP    C512885   3.315   5.436   3.422  0.0156 -0.1357  0.1280
    7BDTP    C612886   3.182   5.447   3.383  0.0417 -0.1438  0.0348
    7BDTP    C712887   3.501   5.363   3.554 -0.0766 -0.0922  0.2823
    7BDTP    C812888   3.568   5.439   3.464 -0.0122 -0.1334  0.2950
    7BDTP    S112889   3.458   5.516   3.341  0.0742 -0.1776  0.1900
    7BDTP    C912890   2.943   5.373   3.438  0.0007 -0.1067 -0.0943
    7BDTP   C1012891   2.876   5.297   3.528 -0.0637 -0.0657 -0.1070
    7BDTP    S212892   2.985   5.220   3.651 -0.1501 -0.0214 -0.0020
    8FTM     S112893   3.361   5.250   3.868  0.0802 -0.0799  0.0723
    8FTM     C112894   3.387   5.083   3.928 -0.0957 -0.0296  0.2920
    8FTM     C212895   3.350   4.993   3.833 -0.3415 -0.1200  0.4686
    8FTM     C312896   3.301   5.048   3.710 -0.4063 -0.2314  0.4443
    8FTM     C412897   3.300   5.184   3.711 -0.2037 -0.2261  0.2425
    8FTM     F112898   3.359   4.856   3.851 -0.5222 -0.1074  0.6627
    8FTM     C512899   3.441   5.065   4.071  0.0396 -0.6572 -0.3447
    8FTM     C612900   3.355   5.077   4.194  0.5595  0.1879  0.3981
    8FTM     C712901   3.246   4.974   4.220  0.2945 -0.0562  0.4384
    8FTM     C812902   3.280   4.829   4.228  0.4770  0.1575 -0.1635
    8FTM     C912903   3.155   4.742   4.233  0.1990  0.0835  0.0118
    8FTM    C1012904   3.184   4.594   4.278  0.3201  0.0962 -0.4087
    8FTM    C1112905   3.307   5.223   4.215 -0.5017  0.2319  0.8733
    8FTM    C1212906   3.266   5.277   4.350  0.4502  0.2394 -0.6297
    9FTM     S112907   3.132   5.472   3.097 -0.2206  0.0865 -0.1621
    9FTM     C112908   3.048   5.624   3.049  0.0692  0.2964 -0.0081
    9FTM     C212909   3.035   5.706   3.156  0.5600  0.3737 -0.0027
    9FTM     C312910   3.088   5.657   3.280  0.7365  0.2770 -0.1154
    9FTM     C412911   3.143   5.533   3.267  0.3687  0.1205 -0.2101
    9FTM     F112912   2.975   5.831   3.149  0.8789  0.5367  0.1045
    9FTM     C512913   3.017   5.660   2.906  0.3843  0.4081 -0.4715
    9FTM     C612914   2.993   5.561   2.791  0.0792  0.7372 -0.2774
    9FTM     C712915   2.981   5.638   2.659  0.1840 -0.2069  0.0568
    9FTM     C812916   3.112   5.698   2.601 -0.1746 -0.0779  0.0468
    9FTM     C912917   3.103   5.793   2.482 -0.3602  0.7423 -0.1507
    9FTM    C1012918   3.231   5.839   2.419 -0.4674  0.1010 -0.0486
    9FTM    C1112919   2.872   5.465   2.805  0.0129 -0.1836  0.3894
    9FTM    C1212920   2.851   5.360   2.689 -0.0919  0.2824 -0.3122
   10TPM     C112921   2.734   5.286   3.549  0.0178  0.2727 -0.2617
   10TPM     C212922   2.633   5.368   3.508  0.0705  0.1721 -0.6011
   10TPM     C312923   2.502   5.318   3.539  0.0304  0.2483 -0.6472
   10TPM     C412924   2.503   5.197   3.603 -0.0529  0.4066 -0.3431
   10TPM     S112925   2.671   5.138   3.630 -0.0874  0.4727  0.0281
   11BDD     C112926   2.230   5.012   3.820  0.0388 -0.1416  0.0263
   11BDD     C212927   2.161   5.066   3.715 -0.0100 -0.1681  0.0448
   11BDD     C312928   2.245   5.142   3.624 -0.0690 -0.1093  0.0395
   11BDD     C412929   2.377   5.145   3.661 -0.0643 -0.0390  0.0171
   11BDD     S112930   2.405   5.053   3.812  0.0144 -0.0416  0.0011
   11BDD     C512931   2.016   5.050   3.694 -0.0044 -0.2481  0.0679
   11BDD     C612932   2.192   5.210   3.504 -0.1280 -0.1249  0.0568
   11BDD     O112933   2.264   5.275   3.425 -0.1788 -0.0745  0.0522
   11BDD     O212934   1.944   4.984   3.772  0.0464 -0.2986  0.0725
   11BDD     C712935   2.046   5.193   3.483 -0.1224 -0.2052  0.0799
   11BDD     C812936   1.962   5.117   3.574 -0.0634 -0.2638  0.0852
   11BDD     C912937   1.831   5.114   3.536 -0.0682 -0.3340  0.1076
   11BDD     S212938   1.803   5.206   3.385 -0.1468 -0.3317  0.1236
   11BDD    C1012939   1.977   5.247   3.378 -0.1712 -0.2315  0.0983
   11BDD    C1112940   2.021   5.348   3.269 -0.1642 -0.2205 -0.3778
   11BDD    C1212941   2.046   5.294   3.124 -0.2149 -0.2224 -0.2836
   11BDD    C1312942   1.924   5.270   3.042  0.2420  0.4586  0.3401
   11BDD    C1412943   1.818   5.383   3.019  0.0776  0.1769 -0.4315
   11BDD    C1512944   1.693   5.325   2.952  0.1175 -0.2503 -0.1201
   11BDD    C1612945   1.609   5.443   2.902  0.8320 -0.1001 -0.1944
   11BDD    C1712946   2.144   5.179   3.119 -0.2352 -0.2707  0.4030
   11BDD    C1812947   2.187   5.131   2.977 -0.5872 -0.4230  0.4152
   11BDD    C1912948   1.697   5.064   3.588  0.5785  0.3357  0.2407
   11BDD    C2012949   1.665   5.101   3.739 -0.4640 -0.4325  0.7593
   11BDD    C2112950   1.552   5.020   3.793  0.3533  0.7498 -0.5260
   11BDD    C2212951   1.577   4.871   3.801 -0.5298  0.4957  0.2813
   11BDD    C2312952   1.689   4.835   3.901  0.7097  0.0292 -0.9408
   11BDD    C2412953   1.743   4.702   3.875 -0.4211  0.0622 -0.1100
   11BDD    C2512954   1.652   5.254   3.768  0.1429  0.6516  0.5771
   11BDD    C2612955   1.611   5.295   3.909 -0.2803 -0.1542  0.6578
   12TPM     C112956   2.208   4.931   3.933  0.8427 -0.0200 -0.2200
   12TPM     C212957   2.129   4.820   3.934  1.0165 -0.1557 -0.7699
   12TPM     C312958   2.136   4.745   4.056  0.3425 -0.1718 -0.7305
   12TPM     C412959   2.221   4.798   4.149 -0.3453 -0.0485 -0.1507
   12TPM     S112960   2.299   4.949   4.088 -0.1939  0.0988  0.3951
   13BDTP    C112961   2.373   4.562   4.713  0.1036  0.0706  0.0278
   13BDTP    C212962   2.479   4.655   4.688  0.0041  0.1968  0.0719
   13BDTP    C312963   2.487   4.731   4.573 -0.0312  0.1955  0.0687
   13BDTP    C412964   2.385   4.716   4.476  0.0347  0.0635  0.0198
   13BDTP    C512965   2.279   4.623   4.501  0.1342 -0.0627 -0.0243
   13BDTP    C612966   2.272   4.547   4.617  0.1694 -0.0612 -0.0211
   13BDTP    C712967   2.372   4.784   4.349  0.0152  0.0356  0.0068
   13BDTP    C812968   2.263   4.748   4.278  0.0943 -0.1036 -0.0441
   13BDTP    S112969   2.161   4.622   4.362  0.2045 -0.2186 -0.0830
   13BDTP    C912970   2.387   4.494   4.840  0.1230  0.0987  0.0408
   13BDTP   C1012971   2.496   4.531   4.911  0.0440  0.2377  0.0917
   13BDTP    S212972   2.597   4.656   4.827 -0.0662  0.3530  0.1305
   14FTM     S112973   2.676   4.919   4.687 -0.1434 -0.0511  0.0991
   14FTM     C112974   2.803   4.976   4.572 -0.4548  0.4064 -0.0249
   14FTM     C212975   2.776   4.928   4.447 -0.5032  0.4585 -0.0341
   14FTM     C312976   2.659   4.848   4.434 -0.3060  0.1532  0.0526
   14FTM     C412977   2.593   4.832   4.552 -0.0997 -0.1421  0.1306
   14FTM     F112978   2.857   4.956   4.337 -0.7292  0.7856 -0.1216
   14FTM     C512979   2.916   5.068   4.607 -0.7178  0.2391 -0.6667
   14FTM     C612980   3.044   5.007   4.683  0.5569 -0.6262 -0.1845
   14FTM     C712981   3.107   4.886   4.624 -0.3297  0.9689 -0.9593
   14FTM     C812982   3.039   4.754   4.661  0.1008  0.1064 -0.1000
   14FTM     C912983   3.018   4.723   4.809 -0.5380 -0.1329 -0.7952
   14FTM    C1012984   2.955   4.593   4.839  0.3803  0.8603  0.4027
   14FTM    C1112985   3.158   5.111   4.716  0.6206 -0.8027  0.1034
   14FTM    C1212986   3.132   5.253   4.777  0.0737  0.1475 -0.7491
   15FTM     S112987   2.223   4.276   4.694 -0.3158  0.1078  0.1048
   15FTM     C112988   2.055   4.213   4.677 -0.2480  0.0093 -0.2128
   15FTM     C212989   1.975   4.311   4.627 -0.2539  0.0262 -0.1702
   15FTM     C312990   2.037   4.437   4.600 -0.3101  0.1149  0.1054
   15FTM     C412991   2.170   4.436   4.630 -0.3486  0.1672  0.2794
   15FTM     F112992   1.839   4.292   4.603 -0.2086 -0.0373 -0.3781
   15FTM     C512993   2.008   4.070   4.713  0.2445 -0.5706  0.2082
   15FTM     C612994   1.932   4.029   4.841  0.2745 -0.0318 -0.9385
   15FTM     C712995   1.782   4.050   4.837 -0.0530 -0.2504 -0.0871
   15FTM     C812996   1.700   3.974   4.744  0.9675  0.7103  0.1028
   15FTM     C912997   1.682   3.825   4.771 -0.1707  0.5554 -0.5004
   15FTM    C1012998   1.644   3.769   4.639 -0.4772 -0.0848  0.1759
   15FTM    C1112999   2.004   4.064   4.973 -0.2416 -0.5515  0.3349
   15FTM    C1213000   2.154   4.049   4.988 -0.7065  1.0811  0.1295
   16TPM     C113001   2.523   4.492   5.046 -0.1496  0.4829 -0.0857
   16TPM     C213002   2.439   4.427   5.131 -0.4091  0.7718 -0.1191
   16TPM     C313003   2.493   4.407   5.263 -0.4697  0.4592 -0.1390
   16TPM     C413004   2.619   4.458   5.279 -0.2564 -0.0680 -0.1208
   16TPM     S113005   2.679   4.534   5.127  0.0399 -0.2116 -0.0768
   17BDD     C113006   2.900   4.277   5.485  0.0115  0.1424  0.2295
   17BDD     C213007   2.804   4.308   5.577 -0.0289  0.0854  0.2065
   17BDD     C313008   2.690   4.378   5.521 -0.0689 -0.0055  0.1743
   17BDD     C413009   2.701   4.399   5.386 -0.0583 -0.0163  0.1734
   17BDD     S113010   2.855   4.334   5.321  0.0023  0.0865  0.2127
   17BDD     C513011   2.814   4.273   5.721 -0.0323  0.1122  0.2130
   17BDD     C613012   2.575   4.420   5.602 -0.1161 -0.0781  0.1457
   17BDD     O113013   2.476   4.481   5.553 -0.1504 -0.1564  0.1179
   17BDD     O213014   2.912   4.213   5.769  0.0021  0.1905  0.2407
   17BDD     C713015   2.584   4.386   5.746 -0.1193 -0.0514  0.1522
   17BDD     C813016   2.698   4.316   5.802 -0.0794  0.0395  0.1843
   17BDD     C913017   2.687   4.294   5.937 -0.0899  0.0504  0.1853
   17BDD     S213018   2.533   4.360   6.002 -0.1505 -0.0523  0.1459
   17BDD    C1013019   2.488   4.417   5.838 -0.1597 -0.1082  0.1291
   17BDD    C1113020   2.361   4.499   5.821 -0.4024  0.3656  0.0957
   17BDD    C1213021   2.227   4.456   5.885  0.0151  0.0737  0.2377
   17BDD    C1313022   2.207   4.462   6.040 -0.2807  0.1840  0.1394
   17BDD    C1413023   2.239   4.600   6.108 -0.0867  0.4627 -0.4996
   17BDD    C1513024   2.166   4.731   6.067  0.0288 -0.0796  0.7441
   17BDD    C1613025   2.017   4.720   6.077  0.1676 -0.6081 -0.9994
   17BDD    C1713026   2.168   4.325   5.821 -0.3956 -0.6045 -0.1138
   17BDD    C1813027   2.020   4.311   5.853  0.1848  0.2883 -0.0205
   17BDD    C1913028   2.782   4.222   6.035  0.2431 -0.1732  0.2997
   17BDD    C2013029   2.731   4.105   6.113 -0.3232  0.8793  0.6298
   17BDD    C2113030   2.706   3.971   6.032  0.5074 -0.9303  0.5936
   17BDD    C2213031   2.581   3.985   5.945  0.5408  0.3576 -0.0509
   17BDD    C2313032   2.448   3.986   6.021 -0.0117 -0.6861  0.4052
   17BDD    C2413033   2.326   3.994   5.932 -0.4450 -0.0772  0.3701
   17BDD    C2513034   2.820   4.071   6.229  0.0704  0.3619  0.0515
   17BDD    C2613035   2.809   4.175   6.337 -0.6159 -1.0186  0.0815
   18TPM     C113036   3.030   4.211   5.490  0.4001 -0.0227  0.3800
   18TPM     C213037   3.033   4.084   5.539  0.6422  0.0057  0.4451
   18TPM     C313038   3.149   4.009   5.500  0.6220  0.0982  0.2035
   18TPM     C413039   3.236   4.079   5.421  0.3645  0.1402 -0.0461
   18TPM     S113040   3.176   4.247   5.390  0.1257  0.0658  0.0051
   19BDTP    C113041   3.797   3.883   5.246 -0.0412  0.0381 -0.1378
   19BDTP    C213042   3.749   3.946   5.127 -0.1410 -0.0495 -0.1447
   19BDTP    C313043   3.623   4.005   5.119 -0.1835 -0.1348 -0.1112
   19BDTP    C413044   3.541   4.002   5.233 -0.1250 -0.1338 -0.0688
   19BDTP    C513045   3.589   3.939   5.352 -0.0253 -0.0461 -0.0619
   19BDTP    C613046   3.714   3.880   5.360  0.0172  0.0393 -0.0955
   19BDTP    C713047   3.408   4.056   5.249 -0.1528 -0.2129 -0.0291
   19BDTP    C813048   3.354   4.037   5.371 -0.0796 -0.1894  0.0068
   19BDTP    S113049   3.464   3.948   5.485  0.0347 -0.0634 -0.0044
   19BDTP    C913050   3.930   3.829   5.230 -0.0135  0.1174 -0.1775
   19BDTP   C1013051   3.984   3.848   5.108 -0.0866  0.0938 -0.2136
   19BDTP    S213052   3.873   3.937   4.994 -0.2010 -0.0322 -0.2022
   20FTM     S113053   3.603   4.252   4.952  0.0208  0.2069  0.0705
   20FTM     C113054   3.510   4.226   4.800 -0.3093  0.0896  0.2893
   20FTM     C213055   3.473   4.096   4.790 -0.2388  0.0595  0.4184
   20FTM     C313056   3.513   4.010   4.898  0.0687  0.1241  0.3564
   20FTM     C413057   3.583   4.077   4.993  0.2392  0.2063  0.1741
   20FTM     F113058   3.400   4.046   4.683 -0.4485 -0.0285  0.6003
   20FTM     C513059   3.483   4.341   4.706  0.0827 -0.0821 -0.4309
   20FTM     C613060   3.598   4.431   4.659  0.4018  0.0088  0.8688
   20FTM     C713061   3.551   4.557   4.578 -0.3281  0.4981 -0.6326
   20FTM     C813062   3.480   4.667   4.652  0.5369  0.6518  0.4532
   20FTM     C913063   3.563   4.742   4.753 -0.3900 -0.2087  0.3152
   20FTM    C1013064   3.477   4.866   4.799 -0.4230  0.6057  0.6527
   20FTM    C1113065   3.730   4.354   4.617 -0.1237  0.0121  0.0166
   20FTM    C1213066   3.848   4.456   4.607  0.3115 -0.1022 -0.0868
   21FTM     S113067   3.809   3.631   5.460  0.2476  0.0143 -0.0923
   21FTM     C113068   3.854   3.630   5.635 -0.0549  0.3012 -0.0105
   21FTM     C213069   3.826   3.750   5.690 -0.1903  0.3806 -0.2474
   21FTM     C313070   3.770   3.849   5.603 -0.0700  0.2270 -0.5009
   21FTM     C413071   3.754   3.802   5.476  0.1653  0.0232 -0.4567
   21FTM     F113072   3.851   3.779   5.824 -0.4312  0.5972 -0.2487
   21FTM     C513073   3.916   3.501   5.699 -0.2346 -0.0359 -0.0241
   21FTM     C613074   4.010   3.414   5.602  0.6154 -0.6503 -0.2502
   21FTM     C713075   4.026   3.272   5.657 -0.0008 -0.0325  0.1241
   21FTM     C813076   3.906   3.177   5.677  0.4262 -0.0192  0.6405
   21FTM     C913077   3.937   3.030   5.714  0.2543  0.0543 -0.4358
   21FTM    C1013078   3.805   2.958   5.696 -0.2826 -0.1733  0.4547
   21FTM    C1113079   4.144   3.492   5.578  0.6073  1.0432  0.5488
   21FTM    C1213080   4.223   3.423   5.463  0.1207 -0.9406  0.0797
   22TPM     C113081   4.108   3.792   5.065  0.3478  0.1007 -0.0942
   22TPM     C213082   4.163   3.808   4.941  0.3887 -0.2015 -0.1172
   22TPM     C313083   4.295   3.751   4.929  0.3362 -0.3552  0.0229
   22TPM     C413084   4.340   3.691   5.043  0.2551 -0.1701  0.1526
   22TPM     S113085   4.219   3.703   5.176  0.2388  0.2156  0.1076
   23BDD     C113086   4.603   3.407   5.111 -0.1276 -0.0245  0.0792
   23BDD     C213087   4.667   3.494   5.026 -0.0676 -0.0318  0.1171
   23BDD     C313088   4.585   3.608   4.988 -0.0725 -0.0829 -0.0237
   23BDD     C413089   4.460   3.606   5.043 -0.1363 -0.1138 -0.1669
   23BDD     S113090   4.436   3.462   5.148 -0.1947 -0.0812 -0.1352
   23BDD     C513091   4.805   3.476   4.978 -0.0035  0.0081  0.2840
   23BDD     C613092   4.633   3.713   4.897 -0.0137 -0.0990 -0.0112
   23BDD     O113093   4.563   3.811   4.864 -0.0179 -0.1431 -0.1327
   23BDD     O213094   4.876   3.378   5.011  0.0006  0.0522  0.4054
   23BDD     C713095   4.772   3.695   4.849  0.0505 -0.0592  0.1558
   23BDD     C813096   4.854   3.582   4.887  0.0553 -0.0081  0.2966
   23BDD     C913097   4.979   3.583   4.832  0.1191  0.0229  0.4398
   23BDD     S213098   5.002   3.727   4.727  0.1776 -0.0097  0.4080
   23BDD    C1013099   4.835   3.782   4.764  0.1106 -0.0664  0.1936
   23BDD    C1113100   4.778   3.894   4.682 -0.2751 -0.1394 -0.1266
   23BDD    C1213101   4.813   4.048   4.705  0.0269 -0.2038 -0.0616
   23BDD    C1313102   4.961   4.095   4.667  0.1848  0.1114 -0.3018
   23BDD    C1413103   5.074   4.062   4.762  0.3583  0.0935  0.2340
   23BDD    C1513104   5.209   4.082   4.703 -0.2412  1.0084 -0.1558
   23BDD    C1613105   5.326   4.018   4.789 -0.0429 -1.1467  0.3469
   23BDD    C1713106   4.757   4.096   4.837 -0.0925 -0.0569  0.0004
   23BDD    C1813107   4.774   4.240   4.872  0.5578 -0.8184  0.3571
   23BDD    C1913108   5.106   3.511   4.858 -0.5867  0.2277 -0.9972
   23BDD    C2013109   5.137   3.387   4.765  0.5106 -0.2312  0.4532
   23BDD    C2113110   5.117   3.399   4.609 -0.9253  0.3398  0.0599
   23BDD    C2213111   5.225   3.483   4.542  0.4776 -0.2046 -0.1873
   23BDD    C2313112   5.222   3.477   4.386 -0.9898 -0.0971  0.3744
   23BDD    C2413113   5.087   3.504   4.318 -0.3036  0.4457 -0.6961
   23BDD    C2513114   5.244   3.293   4.824  0.1869 -0.3074 -0.0957
   23BDD    C2613115   5.275   3.154   4.770 -0.4903 -0.5219 -0.8205
   24TPM     C113116   4.633   3.281   5.184 -0.0584 -0.1469 -0.2531
   24TPM     C213117   4.526   3.207   5.226  0.0069 -0.2331 -0.2388
   24TPM     C313118   4.561   3.075   5.273  0.1452 -0.1259 -0.0379
   24TPM     C413119   4.695   3.049   5.267  0.1857  0.0422  0.1008
   24TPM     S113120   4.787   3.189   5.201  0.0510  0.0783 -0.0122
   25BDTP    C113121   4.995   2.518   5.420 -0.3077 -0.0051 -0.1264
   25BDTP    C213122   5.077   2.573   5.317 -0.2226  0.0616 -0.0240
   25BDTP    C313123   5.049   2.693   5.254 -0.1830  0.0914  0.0156
   25BDTP    C413124   4.934   2.764   5.295 -0.2292  0.0537 -0.0486
   25BDTP    C513125   4.852   2.709   5.398 -0.3142 -0.0129 -0.1513
   25BDTP    C613126   4.881   2.588   5.461 -0.3539 -0.0427 -0.1908
   25BDTP    C713127   4.885   2.891   5.246 -0.2019  0.0739 -0.0248
   25BDTP    C813128   4.771   2.933   5.305 -0.2612  0.0262 -0.1035
   25BDTP    S113129   4.711   2.819   5.433 -0.3604 -0.0509 -0.2186
   25BDTP    C913130   5.045   2.391   5.470 -0.3350 -0.0252 -0.1502
   25BDTP   C1013131   5.159   2.349   5.410 -0.2756  0.0225 -0.0719
   25BDTP    S213132   5.219   2.463   5.282 -0.1764  0.0995  0.0437
   26FTM     S113133   5.158   2.633   4.992 -0.0143  0.2964 -0.1859
   26FTM     C113134   5.262   2.764   4.926 -0.0645  0.4813  0.0978
   26FTM     C213135   5.267   2.868   5.014 -0.0730  0.2784  0.3417
   26FTM     C313136   5.192   2.852   5.135 -0.0418 -0.0259  0.3232
   26FTM     C413137   5.127   2.733   5.140 -0.0082 -0.0571  0.0564
   26FTM     F113138   5.340   2.984   4.989 -0.1094  0.3560  0.5963
   26FTM     C513139   5.349   2.734   4.810 -0.7837 -0.1593  0.1776
   26FTM     C613140   5.494   2.683   4.820  0.0222  0.3316 -0.5786
   26FTM     C713141   5.511   2.537   4.865  0.1184 -0.2021 -0.2672
   26FTM     C813142   5.437   2.430   4.795  0.2354  0.6106  0.1943
   26FTM     C913143   5.478   2.408   4.647 -0.2886  0.1501 -0.3050
   26FTM    C1013144   5.379   2.318   4.575 -0.1673 -0.8182  0.1237
   26FTM    C1113145   5.586   2.784   4.893  0.1686  0.2964 -0.3687
   26FTM    C1213146   5.736   2.772   4.891 -0.1295  1.0296  0.3008
   27FTM     S113147   4.831   2.430   5.709  0.0758  0.1029 -0.0204
   27FTM     C113148   4.664   2.364   5.724  0.1601 -0.2409 -0.5277
   27FTM     C213149   4.588   2.406   5.620  0.2271  0.1063 -0.4400
   27FTM     C313150   4.653   2.490   5.524  0.2173  0.6480  0.0161
   27FTM     C413151   4.783   2.513   5.555  0.1401  0.7176  0.2864
   27FTM     F113152   4.454   2.371   5.605  0.3014 -0.0455 -0.7672
   27FTM     C513153   4.633   2.261   5.833 -0.0180 -0.3232  0.1445
   27FTM     C613154   4.707   2.123   5.840 -0.0070 -0.2633 -0.3710
   27FTM     C713155   4.654   2.034   5.956 -0.0163  1.3131 -0.5088
   27FTM     C813156   4.674   2.061   6.108  0.2189 -0.2083  0.0195
   27FTM     C913157   4.815   2.032   6.155  0.5612 -0.3472  0.3947
   27FTM    C1013158   4.837   2.077   6.300 -0.2828  0.1369  0.8103
   27FTM    C1113159   4.715   2.036   5.715  0.4427  0.1840 -0.3574
   27FTM    C1213160   4.592   1.982   5.641 -0.5639 -0.6655  0.7012
   28TPM     C113161   5.240   2.233   5.439  0.1241  0.4502  0.1936
   28TPM     C213162   5.206   2.102   5.421 -0.1566  0.4818  0.4799
   28TPM     C313163   5.318   2.012   5.434 -0.3070  0.2921  0.4492
   28TPM     C413164   5.436   2.073   5.462 -0.1410  0.1159  0.1394
   28TPM     S113165   5.416   2.252   5.473  0.2209  0.1764 -0.1397
   29BDD     C113166   5.773   1.955   5.634  0.1524 -0.0076 -0.0813
   29BDD     C213167   5.753   1.864   5.534  0.1349 -0.0254 -0.0619
   29BDD     C313168   5.632   1.889   5.457  0.0437 -0.1260  0.0483
   29BDD     C413169   5.562   1.998   5.500 -0.0069 -0.1835  0.1110
   29BDD     S113170   5.642   2.077   5.640  0.0560 -0.1156  0.0368
   29BDD     C513171   5.844   1.752   5.504  0.2012  0.0494 -0.1436
   29BDD     C613172   5.591   1.804   5.343  0.0101 -0.1616  0.0871
   29BDD     O113173   5.487   1.826   5.277 -0.0684 -0.2483  0.1822
   29BDD     O213174   5.948   1.730   5.570  0.2800  0.1362 -0.2385
   29BDD     C713175   5.682   1.692   5.314  0.0764 -0.0867  0.0051
   29BDD     C813176   5.803   1.667   5.391  0.1676  0.0139 -0.1049
   29BDD     C913177   5.873   1.558   5.347  0.2183  0.0714 -0.1676
   29BDD     S213178   5.793   1.479   5.207  0.1554  0.0034 -0.0934
   29BDD    C1013179   5.662   1.601   5.213  0.0589 -0.1045  0.0248
   29BDD    C1113180   5.551   1.581   5.109 -0.5844 -0.3637  0.5669
   29BDD    C1213181   5.566   1.635   4.965  0.8355  0.7609 -0.3043
   29BDD    C1313182   5.434   1.625   4.890  0.3448  0.1647 -0.2988
   29BDD    C1413183   5.307   1.693   4.950 -0.0855 -0.9378  0.5065
   29BDD    C1513184   5.314   1.847   4.961 -0.4379 -0.1875  0.1335
   29BDD    C1613185   5.186   1.911   5.002  0.6421  0.4068  0.2327
   29BDD    C1713186   5.690   1.580   4.896  0.4748  0.2713 -0.6832
   29BDD    C1813187   5.718   1.595   4.749  0.3779 -0.7531 -0.0794
   29BDD    C1913188   6.013   1.503   5.379 -0.1280 -0.3742 -0.3977
   29BDD    C2013189   6.033   1.356   5.430 -0.6160 -0.0577 -0.0910
   29BDD    C2113190   5.927   1.307   5.527 -0.2070 -0.0690  0.6329
   29BDD    C2213191   5.930   1.160   5.533  0.3124  1.2647  0.6635
   29BDD    C2313192   5.822   1.111   5.622  0.4243 -0.2550  0.8521
   29BDD    C2413193   5.831   0.964   5.647 -0.6687 -0.2206 -0.2741
   29BDD    C2513194   6.181   1.329   5.459 -0.6452 -0.3168  0.3004
   29BDD    C2613195   6.265   1.400   5.568 -0.0354  0.4573 -0.4883
   30TPM     C113196   5.872   1.996   5.740 -0.2991 -0.3555  0.0168
   30TPM     C213197   5.971   1.914   5.784 -0.5438 -0.5088  0.2857
   30TPM     C313198   6.049   1.970   5.891 -0.4575 -0.4437  0.1887
   30TPM     C413199   6.010   2.096   5.928 -0.1474 -0.2409 -0.1542
   30TPM     S113200   5.870   2.152   5.830  0.0619 -0.1153 -0.3829
   31BDTP    C113201   6.334   2.446   6.343  0.3263  0.0064 -0.1398
   31BDTP    C213202   6.274   2.542   6.257  0.1959 -0.0544 -0.1168
   31BDTP    C313203   6.190   2.507   6.152  0.1312 -0.1350 -0.0387
   31BDTP    C413204   6.165   2.371   6.130  0.1978 -0.1568  0.0197
   31BDTP    C513205   6.225   2.274   6.216  0.3279 -0.0961 -0.0035
   31BDTP    C613206   6.309   2.309   6.321  0.3927 -0.0155 -0.0815
   31BDTP    C713207   6.081   2.311   6.028  0.1510 -0.2364  0.1041
   31BDTP    C813208   6.076   2.175   6.033  0.2385 -0.2383  0.1451
   31BDTP    S113209   6.177   2.105   6.167  0.3928 -0.1395  0.0825
   31BDTP    C913210   6.417   2.506   6.445  0.3731  0.0859 -0.2244
   31BDTP   C1013211   6.422   2.641   6.441  0.2855  0.0877 -0.2652
   31BDTP    S213212   6.322   2.711   6.306  0.1312 -0.0109 -0.2028
   32FTM     S113213   5.953   2.631   6.057  0.1001  0.1352 -0.0321
   32FTM     C113214   5.974   2.776   5.952  0.3537  0.0135 -0.1508
   32FTM     C213215   6.106   2.802   5.936  0.3973 -0.1201 -0.0191
   32FTM     C313216   6.197   2.713   6.002  0.2398 -0.1354  0.1775
   32FTM     C413217   6.132   2.616   6.072  0.0703 -0.0096  0.1968
   32FTM     F113218   6.153   2.908   5.859  0.5825 -0.2363 -0.0685
   32FTM     C513219   5.852   2.848   5.905 -0.3584  0.5401 -0.2511
   32FTM     C613220   5.776   2.807   5.777 -0.1402  0.1283 -0.5886
   32FTM     C713221   5.676   2.907   5.732  0.0048  0.4015  0.4382
   32FTM     C813222   5.723   3.043   5.681 -0.0175  0.2583  0.0532
   32FTM     C913223   5.813   3.042   5.566 -1.0307 -0.4209  1.0025
   32FTM    C1013224   5.845   3.175   5.496 -0.1695  0.5068 -0.4007
   32FTM    C1113225   5.726   2.664   5.754  0.3728 -0.1224 -0.3084
   32FTM    C1213226   5.641   2.598   5.865 -0.6250 -0.1299  0.2910
   33FTM     S113227   6.283   2.076   6.488 -0.0065 -0.1133 -0.2085
   33FTM     C113228   6.435   1.986   6.524  0.1005  0.1546  0.0249
   33FTM     C213229   6.541   2.049   6.467  0.0471  0.2214 -0.0012
   33FTM     C313230   6.511   2.169   6.394 -0.0775  0.0720 -0.1991
   33FTM     C413231   6.378   2.199   6.395 -0.1207 -0.1154 -0.3294
   33FTM     F113232   6.671   2.002   6.478  0.1078  0.4219  0.1532
   33FTM     C513233   6.430   1.868   6.623  0.2658  0.5982  0.3653
   33FTM     C613234   6.551   1.788   6.646 -0.3265 -0.0917  0.1000
   33FTM     C713235   6.607   1.721   6.512 -0.1796  0.4049 -0.7483
   33FTM     C813236   6.763   1.719   6.502 -0.3446 -0.1475 -0.5271
   33FTM     C913237   6.827   1.613   6.594 -0.0935 -0.2039 -0.7426
   33FTM    C1013238   6.796   1.469   6.587 -0.5462  0.0848  0.0895
   33FTM    C1113239   6.532   1.699   6.771 -0.0566  0.7260  0.0884
   33FTM    C1213240   6.425   1.586   6.766  0.7634 -0.4947 -0.3110
   34TPM     C113241   6.477   2.737   6.530  0.0179  0.1474 -0.2496
   34TPM     C213242   6.545   2.716   6.647  0.5547 -0.0517 -0.5929
   34TPM     C313243   6.588   2.837   6.711  0.5661 -0.1481 -0.4189
   34TPM     C413244   6.553   2.950   6.644  0.0380 -0.0222  0.0573
   34TPM     S113245   6.462   2.913   6.493 -0.5189  0.2295  0.3248
   35BDD     C113246   6.632   3.259   6.874  0.1486 -0.0462  0.1872
   35BDD     C213247   6.503   3.277   6.832  0.1642 -0.0806  0.1233
   35BDD     C313248   6.457   3.175   6.740  0.2587 -0.0557  0.0492
   35BDD     C413249   6.553   3.081   6.711  0.3137 -0.0026  0.0578
   35BDD     S113250   6.706   3.114   6.799  0.2513  0.0198  0.1591
   35BDD     C513251   6.416   3.388   6.877  0.0929 -0.1377  0.1277
   35BDD     C613252   6.321   3.174   6.682  0.2909 -0.0854 -0.0275
   35BDD     O113253   6.282   3.087   6.602  0.3723 -0.0640 -0.0913
   35BDD     O213254   6.456   3.476   6.957  0.0113 -0.1592  0.1915
   35BDD     C713255   6.235   3.286   6.727  0.2195 -0.1425 -0.0229
   35BDD     C813256   6.280   3.388   6.820  0.1249 -0.1674  0.0510
   35BDD     C913257   6.185   3.482   6.848  0.0701 -0.2205  0.0423
   35BDD     S213258   6.032   3.449   6.760  0.1325 -0.2430 -0.0590
   35BDD    C1013259   6.106   3.304   6.686  0.2352 -0.1769 -0.0870
   35BDD    C1113260   6.023   3.218   6.588  0.0010 -0.3819  0.0298
   35BDD    C1213261   5.991   3.264   6.443  0.3595 -0.3386  0.0136
   35BDD    C1313262   6.126   3.284   6.362 -0.3020 -0.3601 -0.3695
   35BDD    C1413263   6.217   3.168   6.320  0.0810  0.0144 -0.7213
   35BDD    C1513264   6.347   3.236   6.279  0.1312 -0.1593  0.9540
   35BDD    C1613265   6.457   3.136   6.249  0.0673 -0.0318  0.1598
   35BDD    C1713266   5.892   3.160   6.382  0.2971 -1.2305  0.4740
   35BDD    C1813267   5.836   3.192   6.242  0.4372  0.2560 -0.2173
   35BDD    C1913268   6.190   3.606   6.941 -0.0218  0.0034 -0.1795
   35BDD    C2013269   6.087   3.605   7.055 -0.4278  0.1042  0.3351
   35BDD    C2113270   6.084   3.477   7.139  0.6511  0.2911  0.0032
   35BDD    C2213271   6.214   3.432   7.197  0.0117 -0.4502 -0.1212
   35BDD    C2313272   6.222   3.300   7.262 -0.1834  0.4665  0.0690
   35BDD    C2413273   6.355   3.252   7.319  0.0387  0.0202 -0.1745
   35BDD    C2513274   6.088   3.743   7.118 -0.0695  0.1800 -0.1988
   35BDD    C2613275   5.974   3.779   7.208  0.5723  0.5416  0.5759
   36TPM     C113276   6.725   3.336   6.952 -0.1169 -0.1485 -0.2087
   36TPM     C213277   6.748   3.468   6.926  0.2593 -0.2493 -0.4054
   36TPM     C313278   6.874   3.516   6.976  0.3014 -0.4798 -0.2882
   36TPM     C413279   6.947   3.421   7.041 -0.0426 -0.5547 -0.0023
   36TPM     S113280   6.862   3.262   7.043 -0.4495 -0.3382  0.1422
   37BDTP    C113281   7.452   3.600   7.367 -0.2066  0.1290 -0.0825
   37BDTP    C213282   7.434   3.466   7.410 -0.1230  0.1057 -0.1210
   37BDTP    C313283   7.334   3.384   7.360 -0.0088  0.0253 -0.2195
   37BDTP    C413284   7.247   3.437   7.263  0.0248 -0.0352 -0.2832
   37BDTP    C513285   7.264   3.572   7.220 -0.0587 -0.0119 -0.2446
   37BDTP    C613286   7.365   3.654   7.270 -0.1729  0.0686 -0.1462
   37BDTP    C713287   7.136   3.372   7.197  0.1381 -0.1223 -0.3878
   37BDTP    C813288   7.070   3.450   7.108  0.1435 -0.1650 -0.4292
   37BDTP    S113289   7.140   3.617   7.095  0.0061 -0.1009 -0.3415
   37BDTP    C913290   7.563   3.666   7.433 -0.3200  0.2162  0.0222
   37BDTP   C1013291   7.628   3.588   7.522 -0.3254  0.2589  0.0637
   37BDTP    S213292   7.559   3.420   7.535 -0.1879  0.1948 -0.0240
   38FTM     S113293   7.270   3.109   7.326 -0.0446 -0.1412  0.0038
   38FTM     C113294   7.243   3.015   7.477  0.3011  0.4156  0.4190
   38FTM     C213295   7.261   3.095   7.585  0.3554  0.8687  0.0802
   38FTM     C313296   7.296   3.232   7.558  0.1367  0.8119 -0.5089
   38FTM     C413297   7.305   3.257   7.424 -0.0923  0.2986 -0.6247
   38FTM     F113298   7.247   3.050   7.716  0.6061  1.3618  0.2834
   38FTM     C513299   7.193   2.872   7.468 -0.1861  0.3719 -1.2658
   38FTM     C613300   7.083   2.817   7.375  0.9242  0.1256 -0.2396
   38FTM     C713301   7.056   2.670   7.390  0.0050 -0.0060 -0.5614
   38FTM     C813302   7.172   2.593   7.337 -0.4332  0.0468  0.0376
   38FTM     C913303   7.193   2.454   7.388  0.2887 -0.1100  0.4247
   38FTM    C1013304   7.327   2.383   7.350  0.7944 -0.1891  0.2930
   38FTM    C1113305   6.956   2.908   7.372  0.4829 -0.1604  0.3368
   38FTM    C1213306   6.830   2.873   7.287 -0.1636  0.0054  0.2542
   39FTM     S113307   7.404   3.936   7.336 -0.1972 -0.2836 -0.1600
   39FTM     C113308   7.402   4.049   7.196 -0.2600 -0.0460  0.0325
   39FTM     C213309   7.384   3.980   7.081 -0.1556  0.1323 -0.0924
   39FTM     C313310   7.370   3.838   7.093 -0.0232  0.0963 -0.3390
   39FTM     C413311   7.378   3.797   7.223 -0.0267 -0.1168 -0.4053
   39FTM     F113312   7.378   4.041   6.956 -0.1733  0.3392  0.0095
   39FTM     C513313   7.423   4.193   7.219 -0.1950 -0.3170  0.0946
   39FTM     C613314   7.308   4.293   7.228 -0.1099 -0.3566  0.2707
   39FTM     C713315   7.257   4.345   7.094  0.5740 -0.2142 -0.0508
   39FTM     C813316   7.365   4.417   7.004 -0.1198  0.2823 -0.0457
   39FTM     C913317   7.447   4.541   7.052 -0.1604  0.5521 -0.4941
   39FTM    C1013318   7.357   4.659   7.083 -0.0554 -0.6948 -0.1597
   39FTM    C1113319   7.216   4.275   7.347  0.0088 -0.0768 -0.2179
   39FTM    C1213320   7.084   4.188   7.345  0.3386  0.7348  0.0502
   40TPM     C113321   7.740   3.629   7.604  0.1133 -0.1030 -0.0594
   40TPM     C213322   7.820   3.560   7.690  0.3207 -0.1911 -0.3203
   40TPM     C313323   7.933   3.635   7.738  0.2844 -0.1482 -0.3021
   40TPM     C413324   7.939   3.762   7.689  0.0493 -0.0273 -0.0271
   40TPM     S113325   7.801   3.797   7.577 -0.1458  0.0421  0.2321
   41BDD     C113326   8.103   4.102   7.813  0.2918  0.1120  0.0832
   41BDD     C213327   8.205   4.011   7.816  0.2313  0.0429  0.0702
   41BDD     C313328   8.165   3.877   7.781  0.1495  0.0831  0.0105
   41BDD     C413329   8.031   3.866   7.751  0.1488  0.1824 -0.0211
   41BDD     S113330   7.948   4.024   7.765  0.2502  0.2323  0.0215
   41BDD     C513331   8.344   4.046   7.852  0.2465 -0.0627  0.1124
   41BDD     C613332   8.259   3.763   7.778  0.0753  0.0216 -0.0130
   41BDD     O113333   8.224   3.647   7.747  0.0048  0.0563 -0.0646
   41BDD     O213334   8.379   4.162   7.883  0.3171 -0.0974  0.1639
   41BDD     C713335   8.398   3.797   7.813  0.0906 -0.0840  0.0290
   41BDD     C813336   8.439   3.932   7.849  0.1724 -0.1242  0.0889
   41BDD     C913337   8.572   3.943   7.879  0.1731 -0.2236  0.1204
   41BDD     S213338   8.655   3.784   7.865  0.0716 -0.2734  0.0776
   41BDD    C1013339   8.501   3.707   7.817  0.0303 -0.1531  0.0159
   41BDD    C1113340   8.513   3.561   7.771 -0.2269 -0.1372 -0.4111
   41BDD    C1213341   8.577   3.533   7.637  0.1530  0.1529  0.2240
   41BDD    C1313342   8.722   3.584   7.608  1.0330  0.7498 -0.4719
   41BDD    C1413343   8.830   3.525   7.692 -0.3331  0.1940 -0.4601
   41BDD    C1513344   8.969   3.588   7.682  0.2035 -0.3623 -0.2451
   41BDD    C1613345   8.975   3.727   7.737 -0.5407 -0.0726  0.1766
   41BDD    C1713346   8.480   3.573   7.525  0.4924 -0.3347  0.1182
   41BDD    C1813347   8.495   3.526   7.383 -0.5548 -0.6497 -0.0250
   41BDD    C1913348   8.656   4.065   7.916 -0.5134 -0.0585  0.0834
   41BDD    C2013349   8.712   4.074   8.061 -0.3012  0.5468 -0.0048
   41BDD    C2113350   8.779   4.204   8.081  0.5875 -0.3941 -0.6614
   41BDD    C2213351   8.697   4.332   8.055 -0.1249  0.1062 -0.5098
   41BDD    C2313352   8.598   4.367   8.164 -0.1881 -0.1283  0.2675
   41BDD    C2413353   8.512   4.483   8.118  0.1819 -0.2416  0.1863
   41BDD    C2513354   8.800   3.957   8.117 -0.4580 -0.7131  0.1056
   41BDD    C2613355   8.935   3.943   8.047 -0.0554  0.5098 -0.0966
   42TPM     C113356   8.087   4.250   7.833  0.2209 -0.0076 -0.0234
   42TPM     C213357   7.990   4.316   7.762  0.1649 -0.1090 -0.0408
   42TPM     C313358   7.995   4.459   7.776 -0.0843 -0.1119  0.0825
   42TPM     C413359   8.095   4.503   7.858 -0.2178 -0.0129  0.1940
   42TPM     S113360   8.192   4.366   7.924 -0.0378  0.0927  0.1516
   43BDTP    C113361   8.202   5.119   7.907 -0.2871 -0.0306 -0.1174
   43BDTP    C213362   8.287   5.067   8.009 -0.2923  0.0370 -0.0792
   43BDTP    C313363   8.298   4.932   8.037 -0.3011  0.0556  0.0179
   43BDTP    C413364   8.222   4.842   7.959 -0.3057  0.0051  0.0803
   43BDTP    C513365   8.137   4.894   7.857 -0.3006 -0.0625  0.0422
   43BDTP    C613366   8.126   5.029   7.830 -0.2913 -0.0811 -0.0550
   43BDTP    C713367   8.217   4.698   7.969 -0.3149  0.0124  0.1836
   43BDTP    C813368   8.133   4.639   7.880 -0.3176 -0.0460  0.2241
   43BDTP    S113369   8.049   4.758   7.771 -0.3078 -0.1181  0.1374
   43BDTP    C913370   8.208   5.263   7.897 -0.2778 -0.0378 -0.2205
   43BDTP   C1013371   8.291   5.322   7.986 -0.2754  0.0205 -0.2611
   43BDTP    S213372   8.375   5.203   8.095 -0.2851  0.0927 -0.1743
   44FTM     S113373   8.298   4.802   8.287  0.2696  0.0182  0.0600
   44FTM     C113374   8.457   4.762   8.363  0.3347  0.5877  0.2278
   44FTM     C213375   8.558   4.809   8.286  0.2565  0.7038  0.1934
   44FTM     C313376   8.520   4.876   8.165  0.1435  0.3651  0.0386
   44FTM     C413377   8.385   4.881   8.150  0.1347 -0.0229 -0.0489
   44FTM     F113378   8.692   4.793   8.319  0.2825  1.1235  0.3004
   44FTM     C513379   8.462   4.710   8.506 -0.2557  0.3456 -0.2691
   44FTM     C613380   8.353   4.619   8.567  0.0592  0.3336  0.5987
   44FTM     C713381   8.235   4.671   8.640  0.1981  0.2913  0.2439
   44FTM     C813382   8.257   4.734   8.774  0.2998 -0.8159 -0.5287
   44FTM     C913383   8.320   4.642   8.877  0.1050 -0.2740 -0.0915
   44FTM    C1013384   8.353   4.713   9.014  0.4592  0.1637  0.5355
   44FTM    C1113385   8.319   4.474   8.516 -0.3482  0.3949 -0.1811
   44FTM    C1213386   8.429   4.372   8.488 -0.0387  0.4366 -0.1212
   45FTM     S113387   7.915   5.209   7.733  0.1765 -0.0277 -0.1667
   45FTM     C113388   7.871   5.188   7.560  0.0617  0.1496 -0.1591
   45FTM     C213389   7.943   5.086   7.506 -0.0494  0.1370 -0.2841
   45FTM     C313390   8.034   5.019   7.594 -0.0522 -0.0076 -0.3906
   45FTM     C413391   8.032   5.072   7.720  0.0605 -0.1094 -0.3459
   45FTM     F113392   7.930   5.047   7.373 -0.1554  0.2558 -0.3093
   45FTM     C513393   7.791   5.291   7.494  0.5139  0.3778 -0.3297
   45FTM     C613394   7.643   5.271   7.450  0.2266 -0.2113 -0.6562
   45FTM     C713395   7.579   5.399   7.394  0.1673 -0.1288  0.0169
   45FTM     C813396   7.532   5.493   7.509  0.3476  0.3535 -0.2012
   45FTM     C913397   7.437   5.595   7.453  1.1639 -0.2570  0.8475
   45FTM    C1013398   7.387   5.693   7.558 -0.5205  0.4143 -0.1599
   45FTM    C1113399   7.605   5.142   7.374  0.3540  0.8556  0.3826
   45FTM    C1213400   7.658   5.117   7.229 -0.2426 -0.4837 -0.1196
   46TPM     C113401   8.313   5.457   8.000 -0.1355  0.2845  0.1181
   46TPM     C213402   8.372   5.517   8.108  0.3226  0.1754 -0.0694
   46TPM     C313403   8.382   5.660   8.097  0.6258  0.1514 -0.1323
   46TPM     C413404   8.330   5.710   7.981  0.3989  0.2422  0.0068
   46TPM     S113405   8.264   5.578   7.876 -0.2204  0.3662  0.2305
   47BDD     C113406   8.132   6.043   7.927  0.0618 -0.0987  0.0007
   47BDD     C213407   8.248   6.080   7.989  0.0579 -0.1097  0.0145
   47BDD     C313408   8.335   5.968   8.020  0.0172 -0.1245  0.0775
   47BDD     C413409   8.285   5.847   7.981 -0.0094 -0.1241  0.1108
   47BDD     S113410   8.124   5.865   7.902  0.0150 -0.1056  0.0654
   47BDD     C513411   8.283   6.220   8.023  0.0918 -0.1072 -0.0296
   47BDD     C613412   8.466   5.985   8.087  0.0062 -0.1379  0.1028
   47BDD     O113413   8.541   5.889   8.114 -0.0291 -0.1506  0.1569
   47BDD     O213414   8.207   6.316   7.996  0.1268 -0.0947 -0.0840
   47BDD     C713415   8.500   6.125   8.121  0.0396 -0.1357  0.0582
   47BDD     C813416   8.413   6.237   8.090  0.0803 -0.1210 -0.0048
   47BDD     C913417   8.464   6.357   8.129  0.1073 -0.1210 -0.0379
   47BDD     S213418   8.624   6.340   8.207  0.0830 -0.1397  0.0076
   47BDD    C1013419   8.616   6.162   8.183  0.0360 -0.1466  0.0725
   47BDD    C1113420   8.738   6.087   8.221 -0.2159 -0.0065  0.3854
   47BDD    C1213421   8.776   6.102   8.371 -0.0205 -0.0793 -0.2723
   47BDD    C1313422   8.895   6.021   8.417 -0.3313  0.1631  0.1918
   47BDD    C1413423   9.030   6.025   8.345  0.1166 -0.5188  0.3896
   47BDD    C1513424   9.141   5.955   8.426 -0.7771  0.2074 -0.0375
   47BDD    C1613425   9.281   5.973   8.383  0.0769 -0.1664 -0.3934
   47BDD    C1713426   8.654   6.096   8.473  0.1102  0.4598 -0.7191
   47BDD    C1813427   8.683   6.123   8.620 -0.0216 -0.1317  0.2457
   47BDD    C1913428   8.419   6.499   8.116 -0.2476 -0.9814 -0.4256
   47BDD    C2013429   8.503   6.598   8.029  0.2769 -0.4534  0.3195
   47BDD    C2113430   8.468   6.743   8.075  0.0954 -0.6764  0.8785
   47BDD    C2213431   8.521   6.792   8.209  0.8941 -0.5016 -0.5180
   47BDD    C2313432   8.666   6.787   8.203  0.4268  0.0756  0.0742
   47BDD    C2413433   8.711   6.828   8.344  0.0532 -0.0950  0.2612
   47BDD    C2513434   8.495   6.568   7.881 -0.1634  0.0911 -1.0503
   47BDD    C2613435   8.358   6.580   7.812  0.3113  0.0585  0.7200
   48TPM     C113436   8.016   6.112   7.859 -0.0119 -0.0096 -0.0733
   48TPM     C213437   8.033   6.232   7.798 -0.3574  0.3896  0.5934
   48TPM     C313438   7.926   6.267   7.708 -0.4187  0.5436  0.7265
   48TPM     C413439   7.827   6.173   7.702 -0.1202  0.2620  0.1608
   48TPM     S113440   7.863   6.032   7.808  0.2647 -0.2237 -0.5892
   49BDTP    C113441   7.328   6.173   7.318  0.0653  0.0452 -0.1415
   49BDTP    C213442   7.313   6.296   7.388  0.0024  0.0044 -0.0818
   49BDTP    C313443   7.403   6.339   7.485 -0.0298 -0.0056 -0.0477
   49BDTP    C413444   7.513   6.256   7.515  0.0013  0.0259 -0.0733
   49BDTP    C513445   7.527   6.132   7.445  0.0640  0.0666 -0.1330
   49BDTP    C613446   7.437   6.090   7.348  0.0963  0.0767 -0.1671
   49BDTP    C713447   7.618   6.279   7.611 -0.0223  0.0229 -0.0465
   49BDTP    C813448   7.710   6.179   7.617  0.0191  0.0589 -0.0830
   49BDTP    S113449   7.676   6.043   7.502  0.0939  0.1019 -0.1559
   49BDTP    C913450   7.222   6.150   7.222  0.0889  0.0483 -0.1682
   49BDTP   C1013451   7.130   6.249   7.215  0.0473  0.0123 -0.1320
   49BDTP    S213452   7.164   6.385   7.331 -0.0275 -0.0306 -0.0588
   50FTM     S113453   7.411   6.632   7.480 -0.0449  0.2365 -0.0974
   50FTM     C113454   7.331   6.713   7.620 -0.4003  0.2042 -0.2785
   50FTM     C213455   7.295   6.620   7.712 -0.3678  0.2130 -0.2571
   50FTM     C313456   7.327   6.484   7.681 -0.0716  0.2444 -0.1024
   50FTM     C413457   7.389   6.472   7.560  0.1291  0.2604 -0.0020
   50FTM     F113458   7.232   6.653   7.831 -0.6042  0.1929 -0.3765
   50FTM     C513459   7.315   6.864   7.612  0.0803  0.4185  0.7254
   50FTM     C613460   7.385   6.969   7.700  1.2814  0.1289 -0.4084
   50FTM     C713461   7.533   6.967   7.687  0.1259  0.0609 -0.0516
   50FTM     C813462   7.600   6.972   7.544  0.3180 -0.3048 -0.1044
   50FTM     C913463   7.751   6.976   7.547  0.0781 -0.0022 -1.0640
   50FTM    C1013464   7.804   7.114   7.577  0.0403 -0.3337  0.3773
   50FTM    C1113465   7.346   6.965   7.845 -0.3874  0.3163 -0.4022
   50FTM    C1213466   7.199   6.981   7.888 -0.6347  0.4057 -0.0733
   51FTM     S113467   7.349   5.840   7.220 -0.0832  0.1790 -0.1400
   51FTM     C113468   7.463   5.775   7.096  0.0459  0.3331 -0.1026
   51FTM     C213469   7.576   5.850   7.094 -0.0011  0.4084  0.0259
   51FTM     C313470   7.581   5.960   7.185 -0.1365  0.3520  0.1012
   51FTM     C413471   7.468   5.970   7.261 -0.1956  0.2298  0.0279
   51FTM     F113472   7.682   5.824   7.008  0.0764  0.5325  0.0827
   51FTM     C513473   7.436   5.644   7.020  0.1059 -0.1341  0.3971
   51FTM     C613474   7.332   5.642   6.903  0.1278 -0.1287 -0.2861
   51FTM     C713475   7.311   5.503   6.837  0.1705 -0.0047  0.7224
   51FTM     C813476   7.245   5.388   6.916 -0.3162  0.8294  1.2285
   51FTM     C913477   7.269   5.243   6.870 -0.8401 -0.4314 -0.2281
   51FTM    C1013478   7.394   5.178   6.923 -0.2449  0.2428 -0.9106
   51FTM    C1113479   7.339   5.754   6.796  0.1019 -1.1487 -0.1277
   51FTM    C1213480   7.456   5.750   6.695 -0.0185 -0.3741 -0.6134
   52TPM     C113481   7.007   6.238   7.138 -0.4450 -0.0630  0.6640
   52TPM     C213482   6.971   6.130   7.063 -0.6387 -0.2573  1.0352
   52TPM     C313483   6.844   6.144   6.996 -0.3589 -0.0311  0.5441
   52TPM     C413484   6.783   6.264   7.020  0.0481  0.3357 -0.2014
   52TPM     S113485   6.882   6.369   7.129  0.1104  0.4244 -0.3420
   53BDD     C113486   6.575   6.484   6.773 -0.0719 -0.1994 -0.1472
   53BDD     C213487   6.517   6.360   6.764 -0.1205 -0.1798 -0.1065
   53BDD     C313488   6.576   6.263   6.854 -0.2646 -0.1321  0.0399
   53BDD     C413489   6.677   6.313   6.931 -0.3241 -0.1161  0.1087
   53BDD     S113490   6.706   6.487   6.894 -0.2035 -0.1596 -0.0051
   53BDD     C513491   6.406   6.327   6.673 -0.0361 -0.2043 -0.2006
   53BDD     C613492   6.529   6.123   6.862 -0.3383 -0.1042  0.1065
   53BDD     O113493   6.580   6.039   6.940 -0.4627 -0.0629  0.2327
   53BDD     O213494   6.355   6.410   6.595  0.0883 -0.2453 -0.3268
   53BDD     C713495   6.418   6.089   6.771 -0.2538 -0.1286  0.0122
   53BDD     C813496   6.359   6.187   6.680 -0.1096 -0.1763 -0.1343
   53BDD     C913497   6.257   6.136   6.604 -0.0503 -0.1925 -0.2029
   53BDD     S213498   6.228   5.962   6.641 -0.1707 -0.1490 -0.0892
   53BDD    C1013499   6.360   5.966   6.762 -0.3023 -0.1091  0.0530
   53BDD    C1113500   6.394   5.831   6.823  0.3488 -0.4979  0.0362
   53BDD    C1213501   6.431   5.717   6.730 -0.1740 -0.0051  0.4674
   53BDD    C1313502   6.563   5.746   6.650  0.1661 -0.1305 -0.2699
   53BDD    C1413503   6.692   5.758   6.731 -0.0138  0.3970 -0.1978
   53BDD    C1513504   6.815   5.772   6.638  0.3914 -0.6038 -1.0811
   53BDD    C1613505   6.939   5.781   6.726 -0.4297  0.2691 -0.3319
   53BDD    C1713506   6.416   5.573   6.778 -0.0783  0.3441 -0.1895
   53BDD    C1813507   6.497   5.543   6.901 -0.5103  0.5781 -0.6004
   53BDD    C1913508   6.191   6.181   6.480  0.0654  0.5288  0.4402
   53BDD    C2013509   6.065   6.263   6.492 -0.8388 -0.8615  0.1959
   53BDD    C2113510   6.012   6.325   6.358 -0.1350  0.4494  0.3386
   53BDD    C2213511   6.107   6.394   6.256  0.2875  0.3871  0.2792
   53BDD    C2313512   6.189   6.514   6.294  0.5269 -0.0266 -0.2766
   53BDD    C2413513   6.094   6.628   6.321  0.4056 -0.0320 -0.0220
   53BDD    C2513514   5.952   6.213   6.585 -0.4614  0.6917  0.2921
   53BDD    C2613515   5.824   6.291   6.616  0.6306  0.2975  0.4946
   54TPM     C113516   6.569   6.609   6.701  0.3326 -0.1573 -0.1097
   54TPM     C213517   6.458   6.687   6.702  0.1650 -0.3805 -0.5703
   54TPM     C313518   6.481   6.822   6.660 -0.0015 -0.4170 -0.7839
   54TPM     C413519   6.610   6.848   6.627  0.0392 -0.2215 -0.4864
   54TPM     S113520   6.714   6.701   6.646  0.2931  0.0258  0.0913
   55BDTP    C113521   6.894   7.363   6.394  0.1789 -0.1737  0.1889
   55BDTP    C213522   6.769   7.415   6.438  0.1094 -0.2179  0.0461
   55BDTP    C313523   6.672   7.335   6.498  0.0950 -0.2400 -0.0068
   55BDTP    C413524   6.699   7.199   6.515  0.1515 -0.2174  0.0857
   55BDTP    C513525   6.825   7.147   6.471  0.2209 -0.1733  0.2285
   55BDTP    C613526   6.922   7.226   6.411  0.2355 -0.1512  0.2812
   55BDTP    C713527   6.614   7.097   6.574  0.1494 -0.2335  0.0551
   55BDTP    C813528   6.669   6.973   6.576  0.2131 -0.2040  0.1667
   55BDTP    S113529   6.836   6.967   6.504  0.2848 -0.1514  0.3260
   55BDTP    C913530   6.980   7.464   6.335  0.1812 -0.1576  0.2193
   55BDTP   C1013531   6.925   7.588   6.333  0.1175 -0.1873  0.1079
   55BDTP    S213532   6.758   7.594   6.405  0.0456 -0.2396 -0.0516
   56FTM     S113533   6.572   7.558   6.651 -0.1608 -0.1757  0.0120
   56FTM     C113534   6.394   7.583   6.646 -0.1629 -0.2573 -0.4460
   56FTM     C213535   6.334   7.484   6.576  0.0652 -0.2775 -0.6109
   56FTM     C313536   6.422   7.384   6.522  0.2508 -0.2320 -0.3965
   56FTM     C413537   6.552   7.407   6.553  0.1622 -0.1750 -0.0561
   56FTM     F113538   6.197   7.477   6.555  0.1192 -0.3386 -0.9660
   56FTM     C513539   6.337   7.712   6.707  0.1976  0.3745 -0.1903
   56FTM     C613540   6.393   7.845   6.654 -0.9273  0.1767 -0.4519
   56FTM     C713541   6.375   7.872   6.503 -0.0267 -0.1299  0.6462
   56FTM     C813542   6.241   7.870   6.441 -0.1951 -0.0946  0.3941
   56FTM     C913543   6.165   7.993   6.472 -0.1664  0.1621 -0.1041
   56FTM    C1013544   6.036   8.022   6.403  0.3546 -0.0617 -0.2606
   56FTM    C1113545   6.535   7.874   6.709  0.0766  0.2045 -0.0605
   56FTM    C1213546   6.603   8.002   6.675  0.2724 -0.0371  0.0132
   57FTM     S113547   7.163   7.080   6.477 -0.1788 -0.0699 -0.0782
   57FTM     C113548   7.273   7.042   6.339 -0.0212  0.3227 -0.0639
   57FTM     C213549   7.223   7.095   6.224  0.2015  0.8037  0.0558
   57FTM     C313550   7.099   7.167   6.236  0.2618  0.8943  0.1416
   57FTM     C413551   7.053   7.169   6.364  0.0793  0.4686  0.0860
   57FTM     F113552   7.286   7.082   6.102  0.3638  1.1908  0.0947
   57FTM     C513553   7.398   6.966   6.373  0.2831 -0.1941  0.3763
   57FTM     C613554   7.402   6.815   6.386 -0.2427  0.0646  0.1310
   57FTM     C713555   7.329   6.759   6.512  0.2799  0.1296 -0.0077
   57FTM     C813556   7.359   6.809   6.652  0.2781  0.0886 -0.3109
   57FTM     C913557   7.504   6.798   6.702 -0.0965 -0.0861 -0.7784
   57FTM    C1013558   7.573   6.658   6.719 -0.0638  0.3605 -0.5632
   57FTM    C1113559   7.382   6.742   6.247  0.6396  0.0806 -0.1703
   57FTM    C1213560   7.381   6.587   6.244 -0.0633 -0.1807  0.7427
   58TPM     C113561   6.981   7.715   6.282 -0.1921  0.2078 -0.1062
   58TPM     C213562   6.956   7.837   6.339 -0.0468  0.2666 -0.1686
   58TPM     C313563   7.012   7.947   6.265  0.2469  0.1483 -0.1239
   58TPM     C413564   7.080   7.910   6.153  0.3257 -0.0008 -0.0276
   58TPM     S113565   7.078   7.731   6.131  0.0327 -0.0033  0.0146
   59BDD     C113566   7.148   8.096   5.821  0.1910 -0.0429  0.2117
   59BDD     C213567   7.172   8.190   5.918  0.1609 -0.0176  0.1944
   59BDD     C313568   7.154   8.139   6.053 -0.1272  0.0849  0.1967
   59BDD     C413569   7.117   8.008   6.057 -0.3127  0.1360  0.2156
   59BDD     S113570   7.103   7.938   5.892 -0.1396  0.0602  0.2317
   59BDD     C513571   7.211   8.330   5.890  0.3960 -0.0870  0.1755
   59BDD     C613572   7.174   8.224   6.173 -0.2081  0.1280  0.1800
   59BDD     O113573   7.159   8.180   6.289 -0.4566  0.2167  0.1819
   59BDD     O213574   7.226   8.373   5.773  0.6444 -0.1755  0.1734
   59BDD     C713575   7.213   8.363   6.144  0.0271  0.0591  0.1607
   59BDD     C813576   7.231   8.414   6.009  0.3153 -0.0436  0.1585
   59BDD     C913577   7.267   8.546   6.005  0.5007 -0.0949  0.1397
   59BDD     S213578   7.282   8.615   6.170  0.3274 -0.0186  0.1235
   59BDD    C1013579   7.236   8.457   6.241 -0.0030  0.0844  0.1435
   59BDD    C1113580   7.221   8.451   6.391  0.3436  0.1281 -0.3164
   59BDD    C1213581   7.344   8.443   6.481  0.2231  0.2821 -0.7171
   59BDD    C1313582   7.312   8.402   6.627 -0.1277  0.7158 -0.2832
   59BDD    C1413583   7.428   8.355   6.706  0.5272 -0.0583 -0.7622
   59BDD    C1513584   7.391   8.325   6.850  0.3593  0.1431  0.1310
   59BDD    C1613585   7.519   8.360   6.931  0.1832  0.1067  0.1407
   59BDD    C1713586   7.458   8.553   6.458  1.0504  1.0346 -0.5228
   59BDD    C1813587   7.430   8.695   6.513  0.8329  0.4940  0.2575
   59BDD    C1913588   7.285   8.651   5.892  0.2773 -0.0499 -0.0539
   59BDD    C2013589   7.417   8.733   5.892 -0.5806  0.2255  0.1664
   59BDD    C2113590   7.391   8.864   5.812  0.2461  0.2299  0.3556
   59BDD    C2213591   7.502   8.977   5.814  0.5698 -0.9268 -0.2093
   59BDD    C2313592   7.565   9.024   5.948  0.5836  1.1327  0.4404
   59BDD    C2413593   7.472   9.083   6.058  0.3621 -1.4098  0.1075
   59BDD    C2513594   7.547   8.658   5.859  0.6311 -0.3183  0.0665
   59BDD    C2613595   7.554   8.605   5.715  0.0765  0.2227  0.3520
   60TPM     C113596   7.149   8.101   5.673  0.4497 -0.1315 -0.0201
   60TPM     C213597   7.065   8.021   5.602  0.8658 -0.5434 -0.0622
   60TPM     C313598   7.089   8.023   5.460  0.9619 -0.4687 -0.0451
   60TPM     C413599   7.192   8.104   5.423  0.6190  0.0002  0.0100
   60TPM     S113600   7.267   8.185   5.565  0.1445  0.3867  0.0449
    1BDTP    C113601   9.408   1.321   5.440  0.1462  0.0767  0.0329
    1BDTP    C213602   9.298   1.322   5.530  0.0937  0.0155 -0.0304
    1BDTP    C313603   9.275   1.427   5.619 -0.0367  0.0201 -0.0696
    1BDTP    C413604   9.364   1.535   5.619 -0.1190  0.0883 -0.0454
    1BDTP    C513605   9.474   1.534   5.528 -0.0665  0.1495  0.0179
    1BDTP    C613606   9.498   1.430   5.440  0.0636  0.1449  0.0572
    1BDTP    C713607   9.360   1.654   5.701 -0.2569  0.1064 -0.0770
    1BDTP    C813608   9.461   1.741   5.678 -0.3099  0.1773 -0.0411
    1BDTP    S113609   9.575   1.685   5.547 -0.1924  0.2312  0.0381
    1BDTP    C913610   9.412   1.202   5.357  0.2840  0.0587  0.0647
    1BDTP   C1013611   9.311   1.115   5.381  0.3369 -0.0122  0.0285
    1BDTP    S213612   9.197   1.171   5.511  0.2194 -0.0661 -0.0505
    2FTM     S113613   8.994   1.425   5.596  0.2290 -0.1253  0.0068
    2FTM     C113614   8.900   1.447   5.748  0.1312 -0.1096 -0.0558
    2FTM     C213615   8.985   1.462   5.853  0.0639 -0.0905 -0.0039
    2FTM     C313616   9.125   1.457   5.823  0.0837 -0.0870  0.0852
    2FTM     C413617   9.148   1.438   5.690  0.1689 -0.1039  0.1024
    2FTM     F113618   8.941   1.480   5.984 -0.0196 -0.0751 -0.0345
    2FTM     C513619   8.750   1.462   5.755  0.5397 -0.2045 -0.0215
    2FTM     C613620   8.681   1.581   5.686 -0.3482  0.6269  0.3653
    2FTM     C713621   8.712   1.715   5.759 -0.0286  0.3761  0.5535
    2FTM     C813622   8.648   1.736   5.897 -0.5152 -0.6699 -0.4984
    2FTM     C913623   8.702   1.865   5.965 -0.1193 -0.0794 -0.4115
    2FTM    C1013624   8.691   1.867   6.118 -0.9789  0.2929  0.2263
    2FTM    C1113625   8.682   1.587   5.533  0.8593 -0.3432  0.7948
    2FTM    C1213626   8.653   1.465   5.449 -0.2913 -0.2804  0.1574
    3FTM     S113627   9.727   1.312   5.307 -0.3035  0.0064  0.0605
    3FTM     C113628   9.784   1.405   5.164  0.1749  0.0844  0.3010
    3FTM     C213629   9.715   1.522   5.155  0.4126  0.2278  0.3017
    3FTM     C313630   9.615   1.545   5.255  0.2414  0.2843  0.1193
    3FTM     C413631   9.608   1.442   5.344 -0.1399  0.1809 -0.0255
    3FTM     F113632   9.737   1.615   5.054  0.7994  0.3163  0.4673
    3FTM     C513633   9.893   1.349   5.078  0.3990 -0.1020 -0.2859
    3FTM     C613634   9.836   1.254   4.963  0.0429  0.8572  0.0970
    3FTM     C713635   9.919   1.145   4.914 -0.6449 -0.4543  0.0497
    3FTM     C813636   9.953   1.038   5.018 -0.0612  0.1978  0.1641
    3FTM     C913637   9.825   0.956   5.059 -0.2531  0.3066 -0.0765
    3FTM    C1013638   9.842   0.861   5.170 -0.4827 -0.3148 -0.2191
    3FTM    C1113639   9.741   1.308   4.861  0.8162 -0.8719  0.6510
    3FTM    C1213640   9.802   1.391   4.744 -0.4078 -0.5382 -0.0725
    4TPM     C113641   9.292   0.986   5.326 -0.1122  0.3874 -0.2474
    4TPM     C213642   9.178   0.922   5.289 -0.1280  0.4848 -0.3673
    4TPM     C313643   9.200   0.790   5.237 -0.2079  0.3638 -0.0978
    4TPM     C413644   9.331   0.753   5.234 -0.2531  0.1741  0.2278
    4TPM     S113645   9.438   0.883   5.298 -0.1977  0.1333  0.2189
    5BDD     C113646   9.492   0.397   5.232 -0.0323 -0.3072  0.0804
    5BDD     C213647   9.434   0.412   5.110 -0.0207 -0.2321  0.0838
    5BDD     C313648   9.369   0.541   5.092  0.1085 -0.1647  0.1029
    5BDD     C413649   9.379   0.623   5.201  0.1933 -0.1894  0.1134
    5BDD     S113650   9.470   0.544   5.334  0.1178 -0.2987  0.1005
    5BDD     C513651   9.435   0.309   5.004 -0.1280 -0.2195  0.0699
    5BDD     C613652   9.300   0.579   4.966  0.1426 -0.0782  0.1097
    5BDD     O113653   9.245   0.690   4.951  0.2539 -0.0201  0.1260
    5BDD     O213654   9.490   0.197   5.020 -0.2396 -0.2776  0.0535
    5BDD     C713655   9.302   0.475   4.861  0.0358 -0.0657  0.0957
    5BDD     C813656   9.366   0.346   4.879 -0.0935 -0.1331  0.0769
    5BDD     C913657   9.356   0.265   4.770 -0.1783 -0.1084  0.0662
    5BDD     S213658   9.265   0.344   4.637 -0.1027  0.0009  0.0791
    5BDD    C1013659   9.243   0.490   4.738  0.0474  0.0094  0.0993
    5BDD    C1113660   9.165   0.602   4.684  0.8573  0.0616 -0.1268
    5BDD    C1213661   9.223   0.662   4.554 -0.6641  0.3381  0.1614
    5BDD    C1313662   9.142   0.777   4.486 -0.1686 -0.0194 -0.1421
    5BDD    C1413663   8.993   0.758   4.456  0.2204  0.1891 -0.4188
    5BDD    C1513664   8.948   0.885   4.387 -0.0870  1.2612  0.1451
    5BDD    C1613665   8.798   0.882   4.358 -0.0012  0.0758  0.5294
    5BDD    C1713666   9.369   0.715   4.558 -0.2991  0.6832  0.4220
    5BDD    C1813667   9.423   0.831   4.640 -0.1343  0.2015 -0.6371
    5BDD    C1913668   9.420   0.133   4.734  0.6713  0.4022  0.4096
    5BDD    C2013669   9.345   0.015   4.807 -0.8826  0.3853  0.6271
    5BDD    C2113670   9.445  -0.104   4.816  0.5144  0.3724 -0.5005
    5BDD    C2213671   9.402  -0.210   4.923  0.5846 -0.4207  0.6248
    5BDD    C2313672   9.508  -0.302   4.981 -0.1675  0.9421  0.7833
    5BDD    C2413673   9.550  -0.410   4.882  1.1996  0.7317  0.4037
    5BDD    C2513674   9.191  -0.010   4.778  0.6968 -0.0689  0.1789
    5BDD    C2613675   9.148  -0.048   4.639 -0.4515  0.3144  0.4164
    6TPM     C113676   9.567   0.291   5.303  0.2366 -0.0161 -0.3226
    6TPM     C213677   9.525   0.162   5.301  0.6161 -0.1385 -0.5813
    6TPM     C313678   9.575   0.083   5.411  0.6373 -0.1424 -0.5938
    6TPM     C413679   9.656   0.153   5.496  0.2739 -0.0230 -0.3445
    6TPM     S113680   9.674   0.325   5.445 -0.1265  0.1046 -0.0724
    7BDTP    C113681   9.994  -0.001   6.009  0.0308 -0.1278 -0.1429
    7BDTP    C213682   9.920  -0.120   5.984 -0.0684 -0.0753 -0.1017
    7BDTP    C313683   9.833  -0.133   5.877 -0.1271 -0.0174 -0.0607
    7BDTP    C413684   9.817  -0.024   5.791 -0.0862 -0.0112 -0.0601
    7BDTP    C513685   9.891   0.096   5.816  0.0131 -0.0636 -0.1011
    7BDTP    C613686   9.978   0.109   5.923  0.0718 -0.1214 -0.1422
    7BDTP    C713687   9.732  -0.013   5.674 -0.1326  0.0442 -0.0216
    7BDTP    C813688   9.738   0.106   5.611 -0.0738  0.0356 -0.0318
    7BDTP    S113689   9.853   0.223   5.691  0.0487 -0.0435 -0.0916
    7BDTP    C913690  10.079  -0.011   6.126  0.0773 -0.1829 -0.1814
    7BDTP   C1013691  10.073  -0.131   6.189  0.0185 -0.1743 -0.1712
    7BDTP    S213692   9.958  -0.248   6.109 -0.1040 -0.0953 -0.1115
    8FTM     S113693   9.774  -0.359   5.698  0.0384 -0.3185 -0.0076
    8FTM     C113694   9.662  -0.478   5.773 -0.1880 -0.0635  0.0621
    8FTM     C213695   9.635  -0.442   5.901  0.0570 -0.0601  0.1116
    8FTM     C313696   9.700  -0.323   5.948  0.4267 -0.2508  0.0991
    8FTM     C413697   9.777  -0.265   5.852  0.4661 -0.4056  0.0376
    8FTM     F113698   9.552  -0.516   5.984 -0.0389  0.1161  0.1715
    8FTM     C513699   9.626  -0.607   5.702  0.3913  0.0478  0.1877
    8FTM     C613700   9.479  -0.658   5.696 -0.0175  0.0902 -0.3428
    8FTM     C713701   9.468  -0.794   5.618 -0.0022 -0.1891  0.3969
    8FTM     C813702   9.525  -0.924   5.673 -0.1301 -0.2716 -0.0860
    8FTM     C913703   9.477  -0.955   5.812 -0.6626  0.2982 -0.1505
    8FTM    C1013704   9.545  -1.086   5.865 -0.4471  0.2436  0.1782
    8FTM    C1113705   9.371  -0.554   5.658  0.0120  0.1734  0.3682
    8FTM    C1213706   9.352  -0.516   5.510 -0.5318 -0.6125 -0.8732
    9FTM     S113707  10.163   0.295   5.816 -0.1206  0.1815  0.0488
    9FTM     C113708  10.204   0.437   5.918 -0.0535 -0.1147  0.4409
    9FTM     C213709  10.136   0.432   6.035 -0.0042 -0.4386  0.4570
    9FTM     C313710  10.049   0.319   6.053 -0.0153 -0.4753  0.1723
    9FTM     C413711  10.051   0.236   5.945 -0.0751 -0.1695 -0.0695
    9FTM     F113712  10.148   0.529   6.134  0.0540 -0.7211  0.7305
    9FTM     C513713  10.313   0.536   5.874  0.2165  0.4808  0.2891
    9FTM     C613714  10.437   0.490   5.791  0.8361 -0.1370 -0.4265
    9FTM     C713715  10.518   0.361   5.835  0.3056  0.2946  0.0848
    9FTM     C813716  10.536   0.353   5.991 -0.0600 -0.0604 -0.8037
    9FTM     C913717  10.579   0.211   6.040 -0.1648 -0.1068  0.4644
    9FTM    C1013718  10.550   0.193   6.187  0.2533  0.2982 -0.0108
    9FTM    C1113719  10.514   0.618   5.750  0.1901 -0.7494  0.3022
    9FTM    C1213720  10.593   0.606   5.625 -0.2284 -0.2992  0.1587
   10TPM     C113721  10.134  -0.171   6.309 -0.0849  0.3695 -0.0056
   10TPM     C213722  10.087  -0.247   6.413 -0.2118  0.9556  0.3735
   10TPM     C313723  10.188  -0.280   6.510 -0.2368  1.1530  0.4678
   10TPM     C413724  10.311  -0.230   6.481 -0.1289  0.7175  0.1609
   10TPM     S113725  10.310  -0.136   6.327  0.0138  0.0187 -0.2747
   11BDD     C113726  10.631  -0.157   6.687 -0.0957  0.2929  0.4484
   11BDD     C213727  10.579  -0.269   6.746 -0.0791  0.2232  0.3299
   11BDD     C313728  10.457  -0.316   6.682  0.1041  0.0856  0.0787
   11BDD     C413729  10.418  -0.239   6.576  0.2245  0.0524  0.0097
   11BDD     S113730  10.531  -0.102   6.549  0.1168  0.1907  0.2539
   11BDD     C513731  10.639  -0.338   6.862 -0.2311  0.2809  0.4427
   11BDD     C613732  10.384  -0.436   6.728  0.1530 -0.0074 -0.0834
   11BDD     O113733  10.280  -0.477   6.673  0.3109 -0.1256 -0.2998
   11BDD     O213734  10.744  -0.297   6.917 -0.3890  0.3994  0.6591
   11BDD     C713735  10.445  -0.504   6.844  0.0011  0.0505  0.0296
   11BDD     C813736  10.566  -0.457   6.908 -0.1821  0.1879  0.2805
   11BDD     C913737  10.605  -0.535   7.014 -0.3026  0.2213  0.3495
   11BDD     S213738  10.492  -0.671   7.041 -0.1949  0.0832  0.1052
   11BDD    C1013739  10.393  -0.617   6.902  0.0177 -0.0191 -0.0893
   11BDD    C1113740  10.274  -0.708   6.879  0.0877 -0.5375  0.2605
   11BDD    C1213741  10.277  -0.858   6.852  0.3862  0.4211  0.0409
   11BDD    C1313742  10.364  -0.904   6.740  0.3800  0.5968  0.0215
   11BDD    C1413743  10.349  -0.843   6.600 -0.3052 -0.4055  0.1825
   11BDD    C1513744  10.215  -0.847   6.522  0.5608  0.3547  0.0796
   11BDD    C1613745  10.125  -0.730   6.537  0.3021 -0.0851  0.2477
   11BDD    C1713746  10.282  -0.957   6.969  0.5433  0.1991  0.0864
   11BDD    C1813747  10.182  -0.939   7.086  0.4968  0.3318  0.2378
   11BDD    C1913748  10.735  -0.541   7.090 -0.1416 -0.1855  0.5562
   11BDD    C2013749  10.719  -0.575   7.231  0.3341 -0.1617 -0.3418
   11BDD    C2113750  10.635  -0.474   7.324  0.4550  0.6895 -0.0407
   11BDD    C2213751  10.699  -0.341   7.344  0.1474 -0.4037 -0.3917
   11BDD    C2313752  10.640  -0.253   7.454 -0.2118  0.8301 -0.0320
   11BDD    C2413753  10.653  -0.301   7.599  0.2256  0.5730 -0.2184
   11BDD    C2513754  10.850  -0.622   7.293 -0.2759  0.0144 -0.3230
   11BDD    C2613755  10.840  -0.700   7.427  0.3896 -0.1607  0.0695
   12TPM     C113756  10.745  -0.067   6.717 -0.1681  0.2083  0.4166
   12TPM     C213757  10.871  -0.111   6.744 -0.2062  0.1383  0.4839
   12TPM     C313758  10.971  -0.007   6.734 -0.1170  0.0391  0.3388
   12TPM     C413759  10.921   0.115   6.700 -0.0109  0.0340  0.1612
   12TPM     S113760  10.742   0.109   6.677 -0.0155  0.1547  0.1633
   13BDTP    C113761  11.253   0.602   6.476 -0.0638 -0.0423  0.1125
   13BDTP    C213762  11.125   0.624   6.416  0.0041 -0.2180 -0.0986
   13BDTP    C313763  11.017   0.540   6.439  0.0462 -0.2947 -0.1774
   13BDTP    C413764  11.035   0.430   6.525  0.0201 -0.1935 -0.0416
   13BDTP    C513765  11.163   0.409   6.585 -0.0478 -0.0178  0.1695
   13BDTP    C613766  11.271   0.492   6.562 -0.0899  0.0588  0.2482
   13BDTP    C713767  10.938   0.330   6.564  0.0541 -0.2444 -0.0875
   13BDTP    C813768  10.986   0.236   6.649  0.0155 -0.1171  0.0769
   13BDTP    S113769  11.161   0.261   6.692 -0.0694  0.0853  0.3128
   13BDTP    C913770  11.350   0.702   6.437 -0.0978  0.0086  0.1583
   13BDTP   C1013771  11.302   0.797   6.352 -0.0591 -0.1187 -0.0060
   13BDTP    S213772  11.127   0.772   6.310  0.0257 -0.3211 -0.2420
   14FTM     S113773  10.726   0.570   6.444  0.0940  0.2404 -0.0867
   14FTM     C113774  10.651   0.603   6.284  0.0431 -0.1838 -0.1521
   14FTM     C213775  10.746   0.604   6.187  0.0182 -0.3964 -0.1791
   14FTM     C313776  10.881   0.579   6.231  0.0369 -0.2459 -0.1512
   14FTM     C413777  10.888   0.559   6.365  0.0773  0.0928 -0.1012
   14FTM     F113778  10.718   0.626   6.053 -0.0228 -0.7397 -0.2307
   14FTM     C513779  10.502   0.632   6.283 -0.3086  0.4235 -0.0980
   14FTM     C613780  10.426   0.759   6.335  0.5096  0.0442  0.2174
   14FTM     C713781  10.430   0.780   6.486 -0.3118 -0.0600  0.1123
   14FTM     C813782  10.319   0.696   6.554  0.9023 -0.1355 -1.0552
   14FTM     C913783  10.171   0.717   6.517  0.4153  0.2270  0.7900
   14FTM    C1013784  10.072   0.662   6.615  0.7346 -0.0922 -0.5435
   14FTM    C1113785  10.450   0.896   6.264 -0.3516 -0.0539  0.3232
   14FTM    C1213786  10.442   0.893   6.108 -0.0660 -0.4127  0.0782
   15FTM     S113787  11.499   0.602   6.701  0.0793 -0.0693  0.2060
   15FTM     C113788  11.624   0.487   6.760 -0.2343 -0.2984  0.4286
   15FTM     C213789  11.591   0.360   6.724 -0.4059 -0.2389  0.3760
   15FTM     C313790  11.469   0.345   6.651 -0.3063 -0.0168  0.1643
   15FTM     C413791  11.407   0.464   6.629 -0.0502  0.0975  0.0512
   15FTM     F113792  11.669   0.249   6.756 -0.6633 -0.3819  0.5162
   15FTM     C513793  11.749   0.527   6.839  0.1877 -0.1142 -0.6272
   15FTM     C613794  11.762   0.518   6.995 -0.0027  0.3985 -0.1003
   15FTM     C713795  11.649   0.602   7.058 -0.0541 -0.1077  0.1134
   15FTM     C813796  11.513   0.544   7.084  0.2990  0.8481 -0.6527
   15FTM     C913797  11.526   0.417   7.167  0.2285  0.9859  0.2433
   15FTM    C1013798  11.394   0.342   7.178 -0.0949 -0.4504  0.1772
   15FTM    C1113799  11.898   0.564   7.048  0.4204  0.8183  0.2471
   15FTM    C1213800  12.014   0.469   7.014 -0.5039 -0.4549 -0.4835
   16TPM     C113801  11.367   0.907   6.284  0.0217  0.1317 -0.1660
   16TPM     C213802  11.500   0.935   6.266  0.0603  0.2856  0.3113
   16TPM     C313803  11.524   1.057   6.194  0.1834  0.4310  0.5999
   16TPM     C413804  11.411   1.123   6.158  0.2387  0.3879  0.3424
   16TPM     S113805  11.263   1.035   6.212  0.1388  0.1586 -0.2892
   17BDD     C113806  11.311   1.366   5.875 -0.0288 -0.0975  0.0123
   17BDD     C213807  11.419   1.424   5.935 -0.0283 -0.0599 -0.0243
   17BDD     C313808  11.472   1.345   6.045 -0.0025 -0.0111 -0.0019
   17BDD     C413809  11.404   1.229   6.066  0.0162 -0.0123  0.0516
   17BDD     S113810  11.268   1.210   5.951  0.0029 -0.0745  0.0776
   17BDD     C513811  11.477   1.553   5.894 -0.0514 -0.0674 -0.0815
   17BDD     C613812  11.589   1.388   6.124  0.0026  0.0348 -0.0343
   17BDD     O113813  11.635   1.320   6.219  0.0248  0.0769 -0.0149
   17BDD     O213814  11.431   1.621   5.800 -0.0736 -0.1094 -0.1010
   17BDD     C713815  11.648   1.518   6.083 -0.0205  0.0274 -0.0913
   17BDD     C813816  11.594   1.596   5.974 -0.0463 -0.0214 -0.1138
   17BDD     C913817  11.663   1.713   5.952 -0.0650 -0.0202 -0.1673
   17BDD     S213818  11.799   1.732   6.068 -0.0517  0.0420 -0.1932
   17BDD    C1013819  11.756   1.575   6.144 -0.0200  0.0650 -0.1279
   17BDD    C1113820  11.843   1.543   6.271  0.0500 -0.7827  0.0929
   17BDD    C1213821  11.780   1.589   6.406  0.1210  0.1445  0.1994
   17BDD    C1313822  11.716   1.725   6.423 -0.2317 -0.7897  0.1107
   17BDD    C1413823  11.812   1.854   6.417  0.0183  0.5186 -0.0051
   17BDD    C1513824  11.741   1.987   6.432  0.4428 -0.4942  0.5373
   17BDD    C1613825  11.829   2.110   6.438  0.6538  0.0221 -1.0569
   17BDD    C1713826  11.852   1.550   6.534  0.7036 -0.3098  0.4244
   17BDD    C1813827  11.883   1.406   6.551  0.6854 -0.1550 -0.0139
   17BDD    C1913828  11.653   1.822   5.852  0.0024  0.1461  0.2214
   17BDD    C2013829  11.626   1.965   5.913 -0.1119 -0.1884  0.6978
   17BDD    C2113830  11.658   2.085   5.822 -0.2497  0.2630 -0.3991
   17BDD    C2213831  11.798   2.123   5.765  0.0935 -0.4909 -0.1603
   17BDD    C2313832  11.913   2.106   5.863 -0.2853  0.5894 -0.4579
   17BDD    C2413833  12.053   2.105   5.802 -0.5481  0.9659  0.2444
   17BDD    C2513834  11.493   1.986   5.986  0.4335 -0.4612 -0.1983
   17BDD    C2613835  11.363   1.981   5.917  0.3854 -0.2443  0.5032
   18TPM     C113836  11.207   1.405   5.775 -0.6953 -0.3996 -0.0440
   18TPM     C213837  11.137   1.310   5.707 -0.4547  0.0791 -0.9942
   18TPM     C313838  11.061   1.361   5.596  0.2085  0.8290 -1.1168
   18TPM     C413839  11.073   1.496   5.579  0.4736  0.9221 -0.2599
   18TPM     S113840  11.181   1.569   5.704 -0.0982  0.0632  0.7762
   19BDTP    C113841  10.866   1.816   5.082  0.0866 -0.1192 -0.0237
   19BDTP    C213842  10.955   1.908   5.147  0.1574 -0.1610 -0.0619
   19BDTP    C313843  11.024   1.876   5.263  0.1789 -0.1874 -0.0819
   19BDTP    C413844  11.005   1.748   5.318  0.1281 -0.1719 -0.0633
   19BDTP    C513845  10.917   1.657   5.254  0.0573 -0.1301 -0.0252
   19BDTP    C613846  10.847   1.689   5.138  0.0359 -0.1037 -0.0051
   19BDTP    C713847  11.066   1.693   5.437  0.1379 -0.1932 -0.0783
   19BDTP    C813848  11.028   1.566   5.466  0.0786 -0.1699 -0.0534
   19BDTP    S113849  10.909   1.499   5.345  0.0020 -0.1175 -0.0075
   19BDTP    C913850  10.805   1.872   4.963  0.0768 -0.0978 -0.0087
   19BDTP   C1013851  10.844   1.999   4.935  0.1361 -0.1212 -0.0336
   19BDTP    S213852  10.962   2.066   5.056  0.2128 -0.1736 -0.0795
   20FTM     S113853  11.107   2.015   5.497  0.0443 -0.1443  0.1937
   20FTM     C113854  11.247   2.127   5.479  0.1073 -0.2028  0.3142
   20FTM     C213855  11.293   2.123   5.351  0.3306 -0.3567  0.3973
   20FTM     C313856  11.224   2.035   5.261  0.4630 -0.4367  0.3732
   20FTM     C413857  11.122   1.969   5.323  0.3371 -0.3408  0.2678
   20FTM     F113858  11.401   2.199   5.307  0.4282 -0.4345  0.5006
   20FTM     C513859  11.295   2.204   5.598  0.0148  0.0635  0.1112
   20FTM     C613860  11.227   2.334   5.641 -0.4078  0.0044 -0.2352
   20FTM     C713861  11.099   2.316   5.721  0.1674 -0.0817  0.6553
   20FTM     C813862  11.108   2.257   5.856  0.1715 -0.6180 -0.0497
   20FTM     C913863  10.968   2.259   5.921  0.0714 -0.2514 -0.0509
   20FTM    C1013864  10.976   2.212   6.067 -0.7525 -0.3387  0.0653
   20FTM    C1113865  11.229   2.446   5.537  0.0335 -0.6244  0.0961
   20FTM    C1213866  11.184   2.578   5.584  0.2990 -0.2255  0.2589
   21FTM     S113867  10.601   1.539   5.197  0.2909  0.1997  0.0725
   21FTM     C113868  10.542   1.432   5.064  0.1629  0.2416  0.0948
   21FTM     C213869  10.622   1.446   4.955  0.2520  0.0341  0.1321
   21FTM     C313870  10.731   1.539   4.968  0.4212 -0.1652  0.1451
   21FTM     C413871  10.735   1.597   5.091  0.4630 -0.1085  0.1170
   21FTM     F113872  10.601   1.376   4.837  0.1857  0.0124  0.1565
   21FTM     C513873  10.433   1.331   5.096 -0.4963  0.3438  0.4725
   21FTM     C613874  10.458   1.227   5.210  0.2395 -0.4903  0.1999
   21FTM     C713875  10.589   1.149   5.199  0.2340 -0.5290 -0.2402
   21FTM     C813876  10.658   1.162   5.334  0.2845  0.6316 -0.2304
   21FTM     C913877  10.741   1.036   5.361 -0.5875 -0.3674 -0.3373
   21FTM    C1013878  10.797   1.040   5.506 -0.2253  0.1757  0.5231
   21FTM    C1113879  10.329   1.149   5.241  0.2365 -0.0153 -0.5012
   21FTM    C1213880  10.303   1.033   5.146  0.6871  0.1800  0.2738
   22TPM     C113881  10.817   2.087   4.826  0.5169 -0.1566 -0.1663
   22TPM     C213882  10.867   2.212   4.807  0.4805 -0.1803 -0.4131
   22TPM     C313883  10.835   2.267   4.677  0.0165 -0.2392 -0.3302
   22TPM     C413884  10.763   2.183   4.598 -0.3009 -0.2604 -0.0202
   22TPM     S113885  10.727   2.027   4.682 -0.0363 -0.2072  0.1928
   23BDD     C113886  10.522   2.215   4.289 -0.0252 -0.0833  0.0353
   23BDD     C213887  10.621   2.307   4.265  0.0074 -0.1389 -0.0447
   23BDD     C313888  10.720   2.314   4.370  0.0358 -0.1161 -0.0728
   23BDD     C413889  10.696   2.227   4.473  0.0244 -0.0434 -0.0139
   23BDD     S113890  10.548   2.131   4.445 -0.0227  0.0015  0.0808
   23BDD     C513891  10.627   2.392   4.144  0.0138 -0.2150 -0.0981
   23BDD     C613892  10.835   2.406   4.365  0.0733 -0.1673 -0.1571
   23BDD     O113893  10.921   2.412   4.456  0.0978 -0.1476 -0.1814
   23BDD     O213894  10.541   2.386   4.053 -0.0107 -0.2346 -0.0737
   23BDD     C713895  10.841   2.491   4.244  0.0796 -0.2433 -0.2105
   23BDD     C813896  10.742   2.484   4.139  0.0512 -0.2661 -0.1824
   23BDD     C913897  10.766   2.571   4.036  0.0626 -0.3388 -0.2413
   23BDD     S213898  10.914   2.668   4.064  0.1097 -0.3838 -0.3361
   23BDD    C1013899  10.940   2.583   4.220  0.1123 -0.2990 -0.2905
   23BDD    C1113900  11.061   2.638   4.292 -0.1075 -0.4536 -0.0989
   23BDD    C1213901  11.047   2.783   4.340  0.0207 -1.0958  0.2450
   23BDD    C1313902  11.170   2.842   4.413  0.0557 -0.0105  0.3914
   23BDD    C1413903  11.300   2.840   4.338 -0.2169  0.0940 -0.8725
   23BDD    C1513904  11.418   2.903   4.416  0.0902  0.6077  0.5602
   23BDD    C1613905  11.560   2.885   4.359  0.6115 -0.3132  0.4501
   23BDD    C1713906  10.916   2.831   4.411 -0.2432 -0.1426 -0.1235
   23BDD    C1813907  10.874   2.980   4.406  0.0386  0.7953 -0.2924
   23BDD    C1913908  10.697   2.591   3.902  0.5025  0.4228  0.5743
   23BDD    C2013909  10.603   2.706   3.871  0.1364  0.2223 -0.9285
   23BDD    C2113910  10.662   2.839   3.879  0.6254 -0.3182 -0.2515
   23BDD    C2213911  10.764   2.885   3.782 -0.0777 -0.1902 -0.0596
   23BDD    C2313912  10.803   3.032   3.786 -0.1215  0.1750  0.3532
   23BDD    C2413913  10.861   3.081   3.913 -0.1902  1.1135 -0.4282
   23BDD    C2513914  10.514   2.688   3.747  0.2263 -0.8719 -0.1986
   23BDD    C2613915  10.417   2.572   3.753  0.4655 -0.3147  0.0037
   24TPM     C113916  10.412   2.163   4.209 -0.5590  0.4860 -0.0075
   24TPM     C213917  10.291   2.139   4.268 -0.7268  0.7884 -0.2290
   24TPM     C313918  10.189   2.098   4.175 -0.5014  0.4603 -0.3358
   24TPM     C413919  10.232   2.091   4.046 -0.1616 -0.0921 -0.1957
   24TPM     S113920  10.407   2.135   4.031 -0.0996 -0.2420  0.0841
   25BDTP    C113921   9.828   1.960   3.581  0.0729 -0.1197  0.0573
   25BDTP    C213922   9.928   2.034   3.512  0.0447 -0.0700  0.0691
   25BDTP    C313923  10.043   2.081   3.574  0.0030  0.0070  0.0881
   25BDTP    C413924  10.060   2.054   3.711 -0.0117  0.0366  0.0957
   25BDTP    C513925   9.959   1.981   3.780  0.0165 -0.0130  0.0837
   25BDTP    C613926   9.845   1.933   3.718  0.0582 -0.0901  0.0648
   25BDTP    C713927  10.170   2.093   3.797 -0.0535  0.1144  0.1148
   25BDTP    C813928  10.158   2.052   3.925 -0.0580  0.1253  0.1178
   25BDTP    S113929  10.004   1.959   3.956 -0.0100  0.0387  0.0969
   25BDTP    C913930   9.717   1.922   3.495  0.1147 -0.1974  0.0382
   25BDTP   C1013931   9.730   1.962   3.367  0.1193 -0.2083  0.0352
   25BDTP    S213932   9.883   2.055   3.336  0.0712 -0.1218  0.0561
   26FTM     S113933  10.152   2.333   3.496 -0.2412 -0.3572 -0.0185
   26FTM     C113934  10.287   2.323   3.377 -0.1582 -0.0466  0.0496
   26FTM     C213935  10.310   2.194   3.343  0.0535  0.0184 -0.0582
   26FTM     C313936  10.226   2.096   3.406  0.1616 -0.1650 -0.1971
   26FTM     C413937  10.136   2.153   3.491  0.0282 -0.3773 -0.1955
   26FTM     F113938  10.408   2.156   3.253  0.1621  0.2478 -0.0376
   26FTM     C513939  10.374   2.443   3.338 -0.2041 -0.3290  0.0801
   26FTM     C613940  10.417   2.451   3.182  0.6312 -0.0065  0.1334
   26FTM     C713941  10.507   2.573   3.151 -0.2408  0.0081 -0.0785
   26FTM     C813942  10.445   2.709   3.181  0.2817  0.4907  0.4666
   26FTM     C913943  10.540   2.821   3.152 -0.0955 -0.3888 -0.1004
   26FTM    C1013944  10.472   2.957   3.169  0.3298  0.7497  0.3031
   26FTM    C1113945  10.316   2.409   3.068 -0.0687 -0.6291 -0.2912
   26FTM    C1213946  10.364   2.382   2.928 -0.6542  0.3282  0.3134
   27FTM     S113947   9.850   1.685   3.864 -0.0905  0.1697  0.0679
   27FTM     C113948   9.691   1.634   3.931 -0.1288  0.0534 -0.1092
   27FTM     C213949   9.594   1.721   3.890 -0.2031 -0.1985 -0.4815
   27FTM     C313950   9.637   1.829   3.807 -0.2342 -0.3138 -0.6479
   27FTM     C413951   9.771   1.825   3.783 -0.1818 -0.1445 -0.3946
   27FTM     F113952   9.461   1.708   3.926 -0.2475 -0.3398 -0.6939
   27FTM     C513953   9.691   1.519   4.032  0.0595 -0.5926  0.2258
   27FTM     C613954   9.721   1.540   4.178  0.1794 -0.3652  0.2037
   27FTM     C713955   9.845   1.621   4.224 -0.2336 -0.0590  0.0191
   27FTM     C813956   9.826   1.772   4.233  0.0171  0.1687 -0.2890
   27FTM     C913957   9.906   1.844   4.331  0.0105  0.2148  0.2153
   27FTM    C1013958   9.858   1.988   4.344  0.4568 -0.4136 -0.1342
   27FTM    C1113959   9.697   1.417   4.267  0.0466  0.1306  0.6647
   27FTM    C1213960   9.765   1.280   4.241 -0.4145  0.4760 -0.4086
   28TPM     C113961   9.634   1.939   3.264  0.0103  0.0228  0.0559
   28TPM     C213962   9.643   1.994   3.139  0.2113  0.1025  0.1062
   28TPM     C313963   9.547   1.942   3.045  0.3166  0.2137 -0.0637
   28TPM     C413964   9.464   1.848   3.098  0.1959  0.2187 -0.2435
   28TPM     S113965   9.501   1.817   3.272 -0.0623  0.0824 -0.2120
   29BDD     C113966   9.251   1.553   2.953 -0.0795  0.3159  0.1717
   29BDD     C213967   9.209   1.663   2.882 -0.0856  0.2334  0.0463
   29BDD     C313968   9.274   1.786   2.922 -0.1092  0.2862 -0.0787
   29BDD     C413969   9.366   1.769   3.021 -0.1213  0.4083 -0.0468
   29BDD     S113970   9.377   1.597   3.073 -0.1032  0.4654  0.1420
   29BDD     C513971   9.106   1.658   2.777 -0.0696  0.1030  0.0367
   29BDD     C613972   9.243   1.916   2.859 -0.1192  0.2137 -0.2254
   29BDD     O113973   9.300   2.022   2.893 -0.1395  0.2593 -0.3332
   29BDD     O213974   9.049   1.551   2.743 -0.0494  0.0574  0.1445
   29BDD     C713975   9.140   1.911   2.753 -0.1032  0.0833 -0.2348
   29BDD     C813976   9.075   1.788   2.714 -0.0796  0.0304 -0.1099
   29BDD     C913977   8.982   1.805   2.614 -0.0682 -0.0916 -0.1417
   29BDD     S213978   8.972   1.976   2.563 -0.0859 -0.1488 -0.3305
   29BDD    C1013979   9.097   2.020   2.683 -0.1094  0.0008 -0.3603
   29BDD    C1113980   9.139   2.166   2.681 -0.6156 -0.5105  0.1603
   29BDD    C1213981   9.027   2.271   2.683 -0.2718  0.0847  0.1692
   29BDD    C1313982   8.902   2.240   2.770 -0.0665 -0.2140 -0.3347
   29BDD    C1413983   8.923   2.228   2.921 -0.1518 -0.0677  0.5942
   29BDD    C1513984   8.798   2.167   2.976  0.2874  0.1011  0.4030
   29BDD    C1613985   8.778   2.153   3.125  0.0256  0.2371  0.1114
   29BDD    C1713986   9.093   2.406   2.715  0.3010  0.9107  0.0616
   29BDD    C1813987   8.997   2.532   2.705  0.0617 -0.2236 -0.0800
   29BDD    C1913988   8.883   1.716   2.542  0.4215 -0.1506  0.0291
   29BDD    C2013989   8.731   1.720   2.576 -0.3083  0.0766 -0.3100
   29BDD    C2113990   8.696   1.672   2.718 -0.1484 -0.0364  0.2054
   29BDD    C2213991   8.698   1.523   2.762  0.2746 -0.0852  0.9771
   29BDD    C2313992   8.711   1.485   2.910  0.3951  0.2367 -0.0546
   29BDD    C2413993   8.691   1.333   2.929 -0.2072 -0.0597  0.1444
   29BDD    C2513994   8.635   1.665   2.470 -0.0714 -0.9089  0.4149
   29BDD    C2613995   8.605   1.760   2.351 -0.1073  0.0823 -0.1506
   30TPM     C113996   9.219   1.410   2.960 -0.0104  0.0876 -0.2543
   30TPM     C213997   9.097   1.355   2.935  0.0191  0.0912 -0.4104
   30TPM     C313998   9.082   1.221   2.986 -0.0989  0.1458 -0.2989
   30TPM     C413999   9.193   1.174   3.049 -0.2186  0.1838 -0.0580
   30TPM     S114000   9.326   1.296   3.049 -0.1910  0.1534  0.0477
   31BDTP    C114001   9.265   0.592   3.287 -0.1607 -0.1040  0.0313
   31BDTP    C214002   9.386   0.656   3.328 -0.1979 -0.1012  0.1354
   31BDTP    C314003   9.414   0.788   3.300 -0.1974 -0.0873  0.2005
   31BDTP    C414004   9.319   0.862   3.227 -0.1583 -0.0755  0.1613
   31BDTP    C514005   9.199   0.798   3.185 -0.1211 -0.0783  0.0572
   31BDTP    C614006   9.171   0.665   3.214 -0.1212 -0.0922 -0.0079
   31BDTP    C714007   9.326   1.001   3.186 -0.1499 -0.0602  0.2142
   31BDTP    C814008   9.218   1.044   3.116 -0.1082 -0.0514  0.1554
   31BDTP    S114009   9.093   0.914   3.092 -0.0744 -0.0613  0.0251
   31BDTP    C914010   9.258   0.453   3.328 -0.1693 -0.1193 -0.0215
   31BDTP   C1014011   9.366   0.410   3.398 -0.2108 -0.1281  0.0372
   31BDTP    S214012   9.492   0.539   3.421 -0.2447 -0.1182  0.1675
   32FTM     S114013   9.571   0.996   3.441 -0.0982 -0.2450  0.2753
   32FTM     C114014   9.748   0.964   3.446 -0.0397 -0.0319 -0.2282
   32FTM     C214015   9.776   0.850   3.378 -0.0539  0.1626 -0.5661
   32FTM     C314016   9.665   0.782   3.319 -0.1090  0.1578 -0.4568
   32FTM     C414017   9.547   0.846   3.343 -0.1386 -0.0470 -0.0209
   32FTM     F114018   9.905   0.800   3.366 -0.0174  0.3564 -0.9945
   32FTM     C514019   9.831   1.050   3.540  0.1915  0.6871 -0.7723
   32FTM     C614020   9.858   0.991   3.684 -0.5385  0.3834 -0.7537
   32FTM     C714021   9.982   0.894   3.713  0.6610 -0.3007 -0.0891
   32FTM     C814022  10.115   0.946   3.662  0.3568 -0.0036 -0.3725
   32FTM     C914023  10.229   0.847   3.696 -0.0661 -0.1365 -0.1574
   32FTM    C1014024  10.370   0.889   3.663  0.0769 -0.7895  0.1129
   32FTM    C1114025   9.748   1.005   3.787 -0.0314  0.6742 -0.3612
   32FTM    C1214026   9.790   1.014   3.929 -0.0023 -0.3431 -0.1990
   33FTM     S114027   9.023   0.445   3.108 -0.0705  0.2292 -0.1188
   33FTM     C114028   8.848   0.442   3.151 -0.0072  0.1555  0.1386
   33FTM     C214029   8.814   0.556   3.216  0.0432  0.1373  0.1963
   33FTM     C314030   8.920   0.651   3.237  0.0358  0.1785  0.0475
   33FTM     C414031   9.038   0.607   3.185 -0.0221  0.2299 -0.1300
   33FTM     F114032   8.686   0.582   3.262  0.0985  0.0822  0.3873
   33FTM     C514033   8.755   0.321   3.117 -0.5918 -0.5933  0.0893
   33FTM     C614034   8.708   0.295   2.966 -0.9005 -0.2802 -0.6212
   33FTM     C714035   8.663   0.410   2.869  0.5390 -0.5372 -0.8529
   33FTM     C814036   8.744   0.535   2.835 -0.3988 -0.3683  0.0408
   33FTM     C914037   8.892   0.514   2.798 -0.7555 -0.4891  0.0768
   33FTM    C1014038   8.984   0.629   2.764  0.7488 -0.2208 -0.1522
   33FTM    C1114039   8.630   0.163   2.951 -0.3341 -0.1454 -0.1490
   33FTM    C1214040   8.496   0.139   3.005  0.7791  0.1097  0.0723
   34TPM     C114041   9.404   0.277   3.433  0.7591  0.0409 -0.5371
   34TPM     C214042   9.362   0.157   3.384  0.8271  0.0098 -0.5195
   34TPM     C314043   9.437   0.045   3.433  0.5145  0.0048 -0.0456
   34TPM     C414044   9.536   0.079   3.520  0.2081  0.0320  0.2980
   34TPM     S114045   9.542   0.257   3.546  0.2915  0.0665  0.0478
   35BDD     C114046   9.881  -0.103   3.528  0.0438 -0.2085  0.0393
   35BDD     C214047   9.788  -0.200   3.555  0.0151 -0.1731  0.0664
   35BDD     C314048   9.652  -0.149   3.559  0.0284 -0.1347  0.0344
   35BDD     C414049   9.643  -0.015   3.535  0.0670 -0.1413 -0.0167
   35BDD     S114050   9.805   0.058   3.506  0.0894 -0.1960 -0.0282
   35BDD     C514051   9.820  -0.342   3.577 -0.0256 -0.1736  0.1228
   35BDD     C614052   9.535  -0.236   3.587  0.0024 -0.0930  0.0557
   35BDD     O114053   9.418  -0.192   3.590  0.0138 -0.0598  0.0281
   35BDD     O214054   9.937  -0.386   3.574 -0.0370 -0.2065  0.1504
   35BDD     C714055   9.568  -0.378   3.609 -0.0384 -0.0937  0.1119
   35BDD     C814056   9.704  -0.429   3.605 -0.0517 -0.1321  0.1440
   35BDD     C914057   9.712  -0.563   3.629 -0.0903 -0.1254  0.1951
   35BDD     S214058   9.550  -0.635   3.658 -0.1124 -0.0705  0.2066
   35BDD    C1014059   9.474  -0.474   3.636 -0.0670 -0.0584  0.1392
   35BDD    C1114060   9.324  -0.475   3.667 -0.0470  0.2051 -0.4488
   35BDD    C1214061   9.220  -0.493   3.566 -0.3813  0.5736  0.3843
   35BDD    C1314062   9.239  -0.614   3.473 -0.1826 -0.1246  0.6391
   35BDD    C1414063   9.229  -0.760   3.522  0.5844  0.0787 -0.1835
   35BDD    C1514064   9.086  -0.823   3.539 -0.1940  0.1831 -0.5254
   35BDD    C1614065   9.106  -0.960   3.603 -0.1182 -0.5721  0.3921
   35BDD    C1714066   9.081  -0.471   3.628 -0.7013 -0.1271  0.7763
   35BDD    C1814067   8.958  -0.477   3.541 -0.5843  0.3865  0.2485
   35BDD    C1914068   9.823  -0.662   3.643 -0.2700  0.1537 -0.4432
   35BDD    C2014069   9.890  -0.669   3.788  0.3076 -1.1618  0.0931
   35BDD    C2114070   9.789  -0.710   3.899  0.4069 -0.1145  0.2156
   35BDD    C2214071   9.822  -0.675   4.050 -0.1102 -0.1165  0.4561
   35BDD    C2314072   9.883  -0.538   4.076 -0.5824  0.4909 -0.6547
   35BDD    C2414073   9.825  -0.407   4.026 -0.2390 -0.0540 -0.1334
   35BDD    C2514074  10.022  -0.748   3.797 -0.3843  0.4182  0.4063
   35BDD    C2614075  10.140  -0.679   3.730  0.3006 -0.1574 -0.1746
   36TPM     C114076  10.028  -0.094   3.515  0.3079  0.0140  0.1490
   36TPM     C214077  10.082   0.015   3.455  0.3260 -0.0551  0.0402
   36TPM     C314078  10.226   0.013   3.450  0.3232 -0.1190 -0.0253
   36TPM     C414079  10.281  -0.098   3.507  0.3030 -0.0988  0.0335
   36TPM     S114080  10.155  -0.209   3.572  0.2858  0.0035  0.1774
   37BDTP    C114081  10.903  -0.202   3.562  0.0831  0.0520  0.3241
   37BDTP    C214082  10.847  -0.312   3.632  0.0637 -0.0825  0.0982
   37BDTP    C314083  10.710  -0.331   3.645  0.0590 -0.1597 -0.0575
   37BDTP    C414084  10.624  -0.237   3.587  0.0743 -0.1025  0.0123
   37BDTP    C514085  10.680  -0.126   3.517  0.0938  0.0315  0.2381
   37BDTP    C614086  10.817  -0.107   3.504  0.0985  0.1092  0.3939
   37BDTP    C714087  10.479  -0.235   3.587  0.0731 -0.1633 -0.1187
   37BDTP    C814088  10.424  -0.130   3.522  0.0905 -0.0820 -0.0037
   37BDTP    S114089  10.548  -0.018   3.450  0.1109  0.0830  0.2868
   37BDTP    C914090  11.048  -0.203   3.562  0.0844  0.1125  0.4551
   37BDTP   C1014091  11.103  -0.308   3.627  0.0670  0.0315  0.3402
   37BDTP    S214092  10.978  -0.420   3.699  0.0465 -0.1337  0.0496
   38FTM     S114093  10.724  -0.621   3.669  0.0994 -0.0220 -0.0327
   38FTM     C114094  10.611  -0.697   3.787  0.3406 -0.2484  0.0559
   38FTM     C214095  10.531  -0.601   3.841  0.3252 -0.3793  0.2649
   38FTM     C314096  10.552  -0.467   3.796  0.1295 -0.3135  0.3663
   38FTM     C414097  10.652  -0.459   3.703 -0.0093 -0.1253  0.2306
   38FTM     F114098  10.433  -0.630   3.936  0.4872 -0.5670  0.3767
   38FTM     C514099  10.631  -0.840   3.823 -0.3166 -0.0450  0.1384
   38FTM     C614100  10.614  -0.951   3.719 -0.0745 -0.4484  0.9554
   38FTM     C714101  10.661  -1.089   3.754  0.2678 -0.1814 -0.2077
   38FTM     C814102  10.809  -1.098   3.799 -0.8670 -0.3403 -0.0519
   38FTM     C914103  10.832  -1.235   3.860 -0.4298  0.5530 -0.3085
   38FTM    C1014104  10.831  -1.363   3.772 -0.1725 -0.1520 -0.3897
   38FTM    C1114105  10.488  -0.947   3.629 -0.2585  0.0673 -1.0079
   38FTM    C1214106  10.461  -1.055   3.528 -0.3830  1.1786 -0.2027
   39FTM     S114107  10.963  -0.019   3.278 -0.0998 -0.1167 -0.1280
   39FTM     C114108  10.995   0.158   3.269  0.1943 -0.1704 -0.1748
   39FTM     C214109  10.936   0.221   3.374  0.3869 -0.0577 -0.1349
   39FTM     C314110  10.865   0.137   3.467  0.3190  0.0739 -0.0672
   39FTM     C414111  10.869   0.006   3.431  0.0664  0.0618 -0.0548
   39FTM     F114112  10.944   0.358   3.393  0.6359 -0.0672 -0.1574
   39FTM     C514113  11.069   0.204   3.142  0.1611 -0.3673 -0.2108
   39FTM     C614114  11.019   0.185   2.995 -0.3173 -0.0994  0.6096
   39FTM     C714115  11.130   0.225   2.892  0.0962 -0.5394  0.3455
   39FTM     C814116  11.250   0.134   2.871 -0.1260 -0.1021 -0.1103
   39FTM     C914117  11.364   0.188   2.778  0.1864  0.1520  0.1864
   39FTM    C1014118  11.463   0.078   2.755  0.8094  0.3654  0.0972
   39FTM    C1114119  10.883   0.250   2.962  0.6741 -0.0022  0.6868
   39FTM    C1214120  10.830   0.222   2.816 -0.6384  0.5693  0.2273
   40TPM     C114121  11.238  -0.329   3.657 -0.2147  0.4001  0.0333
   40TPM     C214122  11.285  -0.437   3.724 -0.2583  0.2177 -0.2290
   40TPM     C314123  11.427  -0.435   3.747 -0.2448  0.0663 -0.2939
   40TPM     C414124  11.488  -0.324   3.697 -0.1909  0.1330 -0.0811
   40TPM     S114125  11.370  -0.213   3.617 -0.1527  0.3946  0.2202
   41BDD     C114126  11.839  -0.215   3.566 -0.0354 -0.2278 -0.0318
   41BDD     C214127  11.868  -0.303   3.667 -0.0183 -0.2089 -0.0200
   41BDD     C314128  11.750  -0.358   3.731 -0.0064 -0.0753  0.1164
   41BDD     C414129  11.633  -0.311   3.679 -0.0148  0.0051  0.2067
   41BDD     S114130  11.662  -0.194   3.545 -0.0380 -0.0803  0.1271
   41BDD     C514131  12.005  -0.340   3.708 -0.0121 -0.3121 -0.1336
   41BDD     C614132  11.758  -0.455   3.842  0.0126 -0.0327  0.1522
   41BDD     O114133  11.656  -0.502   3.898  0.0228  0.0825  0.2698
   41BDD     O214134  12.107  -0.292   3.652 -0.0223 -0.4272 -0.2512
   41BDD     C714135  11.895  -0.492   3.883  0.0188 -0.1361  0.0386
   41BDD     C814136  12.013  -0.437   3.819  0.0070 -0.2697 -0.0978
   41BDD     C914137  12.130  -0.484   3.871  0.0153 -0.3502 -0.1881
   41BDD     S214138  12.101  -0.600   4.005  0.0385 -0.2647 -0.1086
   41BDD    C1014139  11.924  -0.580   3.984  0.0359 -0.1171  0.0503
   41BDD    C1114140  11.846  -0.680   4.071  0.0475  0.2496  0.0744
   41BDD    C1214141  11.883  -0.833   4.071 -0.9230  0.3874  0.0799
   41BDD    C1314142  11.800  -0.932   4.158 -0.3408 -0.4716  0.0580
   41BDD    C1414143  11.755  -0.889   4.295 -0.3451  0.5011 -0.1600
   41BDD    C1514144  11.706  -0.999   4.397  0.6537  0.1610 -0.0660
   41BDD    C1614145  11.604  -1.096   4.346  0.3388  0.3489  0.1996
   41BDD    C1714146  11.919  -0.886   3.928 -0.0579 -0.9577  0.1192
   41BDD    C1814147  11.807  -0.921   3.830 -0.0959 -0.0769 -0.0454
   41BDD    C1914148  12.278  -0.464   3.835  0.2531 -0.4794  0.6852
   41BDD    C2014149  12.349  -0.334   3.891  0.8431  0.1096 -0.1300
   41BDD    C2114150  12.475  -0.290   3.812 -0.8070  0.4514 -0.4409
   41BDD    C2214151  12.494  -0.307   3.658  0.4581 -0.1236 -0.1474
   41BDD    C2314152  12.405  -0.219   3.569 -0.4291 -0.2428 -0.1673
   41BDD    C2414153  12.390  -0.073   3.601 -0.6923 -0.1969  0.3043
   41BDD    C2514154  12.367  -0.342   4.044 -0.7333 -0.1444  0.0396
   41BDD    C2614155  12.419  -0.218   4.124  0.8895 -0.0219  0.6452
   42TPM     C114156  11.917  -0.120   3.480  0.3578 -0.0030  0.0825
   42TPM     C214157  11.859  -0.001   3.444  0.3772  0.0367  0.1809
   42TPM     C314158  11.947   0.086   3.370  0.3358  0.0079  0.0964
   42TPM     C414159  12.072   0.034   3.351  0.2849 -0.0545 -0.0666
   42TPM     S114160  12.088  -0.130   3.424  0.2851 -0.0814 -0.1263
   43BDTP    C114161  12.492   0.380   3.034 -0.0221 -0.0447  0.1484
   43BDTP    C214162  12.574   0.285   3.102 -0.1402 -0.0687  0.2584
   43BDTP    C314163  12.522   0.185   3.182 -0.2754 -0.0285  0.2214
   43BDTP    C414164  12.383   0.178   3.197 -0.2953  0.0385  0.0686
   43BDTP    C514165  12.301   0.272   3.129 -0.1771  0.0625 -0.0414
   43BDTP    C614166  12.353   0.373   3.048 -0.0419  0.0224 -0.0043
   43BDTP    C714167  12.306   0.083   3.275 -0.4252  0.0895  0.0033
   43BDTP    C814168  12.172   0.102   3.269 -0.4106  0.1498 -0.1485
   43BDTP    S114169  12.124   0.242   3.164 -0.2300  0.1506 -0.2301
   43BDTP    C914170  12.569   0.475   2.956  0.1079 -0.0956  0.2137
   43BDTP   C1014171  12.703   0.456   2.961  0.0932 -0.1560  0.3656
   43BDTP    S214172  12.751   0.316   3.067 -0.0874 -0.1567  0.4472
   44FTM     S114173  12.711   0.174   3.391  0.1607 -0.0809 -0.3169
   44FTM     C114174  12.773   0.010   3.431  0.0296 -0.0940 -0.1658
   44FTM     C214175  12.715  -0.082   3.349 -0.2956 -0.1669  0.1382
   44FTM     C314176  12.622  -0.032   3.252 -0.4587 -0.2155  0.2691
   44FTM     C414177  12.608   0.103   3.260 -0.2516 -0.1790  0.0583
   44FTM     F114178  12.744  -0.218   3.356 -0.4650 -0.1936  0.3161
   44FTM     C514179  12.849  -0.022   3.562  0.5199  0.3582  0.3689
   44FTM     C614180  12.982   0.054   3.581 -0.5893 -0.1116  0.4246
   44FTM     C714181  13.087   0.061   3.469  0.2248 -0.0987  0.7084
   44FTM     C814182  13.119  -0.063   3.385 -0.7261 -0.9225 -0.4920
   44FTM     C914183  13.200  -0.166   3.471 -0.8336 -0.2527  0.4144
   44FTM    C1014184  13.243  -0.285   3.379 -0.0376 -0.1740 -0.1636
   44FTM    C1114185  13.042   0.047   3.725  0.5587  0.7562  0.3769
   44FTM    C1214186  13.142   0.153   3.769 -0.9531 -0.5193 -0.1396
   45FTM     S114187  12.257   0.549   2.835 -0.2622 -0.1017 -0.2231
   45FTM     C114188  12.125   0.660   2.884  0.1259  0.2361  0.0696
   45FTM     C214189  12.096   0.642   3.016  0.3984  0.3423  0.1454
   45FTM     C314190  12.173   0.543   3.085  0.3240  0.1716 -0.0154
   45FTM     C414191  12.264   0.483   3.003 -0.0169 -0.0733 -0.2213
   45FTM     F114192  11.998   0.714   3.082  0.7317  0.6004  0.3650
   45FTM     C514193  12.068   0.770   2.795  0.2282 -0.5049 -0.0451
   45FTM     C614194  11.955   0.869   2.848  0.0647  0.6100  0.5499
   45FTM     C714195  11.809   0.819   2.852 -0.3057 -0.2240  0.2790
   45FTM     C814196  11.755   0.754   2.724 -0.2653 -0.3635  0.4284
   45FTM     C914197  11.614   0.702   2.753  0.2859  0.0602  0.1690
   45FTM    C1014198  11.543   0.657   2.620  0.3960  0.0342 -0.1153
   45FTM    C1114199  11.977   0.967   2.969 -0.1044  0.5931  0.3462
   45FTM    C1214200  12.107   1.052   2.988 -0.2047  0.8579  0.3578
   46TPM     C114201  12.808   0.529   2.894 -0.6318 -0.2910 -0.1783
   46TPM     C214202  12.937   0.493   2.868 -0.6646 -0.3043 -0.3239
   46TPM     C314203  13.013   0.596   2.801 -0.6781 -0.2426 -0.2457
   46TPM     C414204  12.942   0.709   2.776 -0.6556 -0.1823 -0.0405
   46TPM     S114205  12.772   0.696   2.835 -0.6155 -0.1989  0.0706
   47BDD     C114206  12.978   1.027   2.540 -0.0216  0.3154  0.1485
   47BDD     C214207  13.102   1.010   2.594 -0.0014  0.2460  0.0817
   47BDD     C314208  13.112   0.897   2.684  0.0562  0.0753 -0.1392
   47BDD     C414209  12.994   0.828   2.697  0.0792  0.0171 -0.2376
   47BDD     S114210  12.864   0.901   2.598  0.0302  0.1719 -0.0606
   47BDD     C514211  13.217   1.099   2.565 -0.0345  0.3340  0.2184
   47BDD     C614212  13.237   0.860   2.753  0.0864 -0.0238 -0.2446
   47BDD     O114213  13.245   0.762   2.831  0.1361 -0.1710 -0.4349
   47BDD     O214214  13.209   1.197   2.488 -0.0842  0.4812  0.4088
   47BDD     C714215  13.352   0.949   2.725  0.0533  0.0642 -0.1079
   47BDD     C814216  13.342   1.063   2.635 -0.0044  0.2349  0.1130
   47BDD     C914217  13.460   1.131   2.622 -0.0274  0.2931  0.2114
   47BDD     S214218  13.590   1.059   2.721  0.0216  0.1383  0.0343
   47BDD    C1014219  13.476   0.933   2.779  0.0734 -0.0052 -0.1746
   47BDD    C1114220  13.541   0.841   2.885  0.3037  0.3361 -0.2929
   47BDD    C1214221  13.623   0.719   2.836 -0.4862 -0.0773 -0.1878
   47BDD    C1314222  13.753   0.762   2.764 -0.4579  0.9944 -0.4046
   47BDD    C1414223  13.806   0.647   2.668  0.2643  0.3247 -0.5428
   47BDD    C1514224  13.921   0.699   2.583  0.3017 -0.1622 -0.4568
   47BDD    C1614225  13.965   0.607   2.470  0.1494 -0.1648  0.5568
   47BDD    C1714226  13.659   0.616   2.945  0.2294 -0.1717 -0.4415
   47BDD    C1814227  13.545   0.532   3.006  0.7248 -0.8623  0.5054
   47BDD    C1914228  13.516   1.260   2.559  0.4174  0.2106  0.2831
   47BDD    C2014229  13.554   1.252   2.408 -0.3338 -0.2868  0.1156
   47BDD    C2114230  13.562   1.383   2.319 -0.0905  0.0591 -0.5089
   47BDD    C2214231  13.450   1.483   2.354  0.3480  0.1119 -0.4291
   47BDD    C2314232  13.441   1.592   2.253  0.4991 -0.7312 -0.5045
   47BDD    C2414233  13.316   1.685   2.254  0.7210 -0.0091 -0.0323
   47BDD    C2514234  13.660   1.146   2.370 -0.6936 -0.3222  0.1142
   47BDD    C2614235  13.804   1.184   2.415  0.3080 -0.1067  0.0196
   48TPM     C114236  12.915   1.136   2.457  0.0732 -0.0732  0.0634
   48TPM     C214237  12.975   1.141   2.335  0.0340 -0.0107  0.0470
   48TPM     C314238  12.886   1.180   2.229  0.0315  0.1758  0.1160
   48TPM     C414239  12.758   1.204   2.270  0.0687  0.2555  0.1850
   48TPM     S114240  12.740   1.179   2.448  0.1102  0.0999  0.1681
   49BDTP    C114241  12.262   1.230   1.878 -0.1751  0.0559  0.0924
   49BDTP    C214242  12.335   1.348   1.846 -0.2220  0.0807  0.0763
   49BDTP    C314243  12.454   1.382   1.909 -0.2096  0.1110  0.0369
   49BDTP    C414244  12.503   1.296   2.009 -0.1481  0.1173  0.0123
   49BDTP    C514245  12.429   1.178   2.041 -0.1013  0.0924  0.0284
   49BDTP    C614246  12.311   1.144   1.978 -0.1136  0.0621  0.0678
   49BDTP    C714247  12.623   1.311   2.088 -0.1242  0.1468 -0.0294
   49BDTP    C814248  12.644   1.210   2.177 -0.0625  0.1453 -0.0451
   49BDTP    S114249  12.513   1.084   2.173 -0.0259  0.1063 -0.0092
   49BDTP    C914250  12.141   1.216   1.799 -0.1990  0.0264  0.1341
   49BDTP   C1014251  12.121   1.316   1.710 -0.2607  0.0279  0.1498
   49BDTP    S214252  12.251   1.442   1.714 -0.2973  0.0668  0.1140
   50FTM     S114253  12.602   1.611   2.019 -0.0703 -0.1283  0.2753
   50FTM     C114254  12.661   1.726   1.894  0.0240 -0.2774  0.1808
   50FTM     C214255  12.618   1.688   1.771 -0.0798 -0.2955  0.2225
   50FTM     C314256  12.538   1.568   1.767 -0.2351 -0.1971  0.3280
   50FTM     C414257  12.520   1.514   1.890 -0.2509 -0.1003  0.3684
   50FTM     F114258  12.648   1.758   1.656 -0.0403 -0.4024  0.1676
   50FTM     C514259  12.733   1.858   1.936  0.4621 -0.5831 -0.4674
   50FTM     C614260  12.871   1.850   1.990  0.9455 -0.1369  0.3409
   50FTM     C714261  12.882   1.778   2.130  0.3057 -0.5270  0.6818
   50FTM     C814262  12.847   1.864   2.254 -0.5645 -0.1757  0.5317
   50FTM     C914263  12.704   1.897   2.302 -0.2897 -0.0054  1.0884
   50FTM    C1014264  12.696   1.990   2.422 -0.0078  0.0414 -0.0397
   50FTM    C1114265  12.970   1.804   1.886 -0.0799 -0.7129  0.6267
   50FTM    C1214266  13.118   1.838   1.905  0.1844  0.6024 -0.3048
   51FTM     S114267  12.080   1.014   2.078 -0.4391  0.0937 -0.2477
   51FTM     C114268  12.089   0.835   2.071 -0.1063  0.0664  0.5923
   51FTM     C214269  12.210   0.796   2.022  0.0886  0.0458  1.0778
   51FTM     C314270  12.301   0.901   1.988 -0.0065  0.0498  0.8321
   51FTM     C414271  12.248   1.025   2.011 -0.2833  0.0744  0.1357
   51FTM     F114272  12.245   0.663   2.005  0.3648  0.0219  1.7734
   51FTM     C514273  11.977   0.748   2.125  0.1035 -0.1512  0.1501
   51FTM     C614274  11.993   0.625   2.217 -0.1394 -0.2767 -0.2566
   51FTM     C714275  12.019   0.493   2.152 -0.4438 -0.2664  0.3805
   51FTM     C814276  11.905   0.436   2.070  0.1366  0.3266 -0.0986
   51FTM     C914277  11.916   0.292   2.020  0.1616 -0.3828  0.3140
   51FTM    C1014278  11.803   0.257   1.928 -0.0632  0.3344  0.2917
   51FTM    C1114279  12.089   0.640   2.336 -0.1979  0.8607  0.3109
   51FTM    C1214280  12.082   0.764   2.419  0.1002 -0.9183 -0.7939
   52TPM     C114281  12.008   1.327   1.617 -0.0335 -0.2308  0.0345
   52TPM     C214282  12.004   1.404   1.504  0.2871 -0.9421 -0.4779
   52TPM     C314283  11.873   1.417   1.447  0.3855 -0.9955 -0.7159
   52TPM     C414284  11.776   1.350   1.515  0.1401 -0.3249 -0.3851
   52TPM     S114285  11.844   1.264   1.659 -0.2376  0.4319  0.2578
   53BDD     C114286  11.427   1.506   1.403  0.1624 -0.0950 -0.0928
   53BDD     C214287  11.396   1.387   1.463  0.1173 -0.0912 -0.1089
   53BDD     C314288  11.512   1.314   1.510  0.0911 -0.1543 -0.1428
   53BDD     C414289  11.630   1.377   1.485  0.1167 -0.2052 -0.1519
   53BDD     S114290  11.605   1.534   1.401  0.1752 -0.1777 -0.1188
   53BDD     C514291  11.258   1.337   1.479  0.0967 -0.0295 -0.0938
   53BDD     C614292  11.501   1.183   1.578  0.0418 -0.1617 -0.1647
   53BDD     O114293  11.601   1.120   1.618  0.0192 -0.2161 -0.1939
   53BDD     O214294  11.158   1.401   1.439  0.1192  0.0249 -0.0647
   53BDD     C714295  11.363   1.133   1.594  0.0211 -0.1000 -0.1497
   53BDD     C814296  11.247   1.206   1.548  0.0473 -0.0369 -0.1158
   53BDD     C914297  11.129   1.143   1.573  0.0218  0.0140 -0.1067
   53BDD     S214298  11.154   0.986   1.657 -0.0368 -0.0135 -0.1398
   53BDD    C1014299  11.332   1.014   1.655 -0.0240 -0.0963 -0.1658
   53BDD    C1114300  11.416   0.927   1.750 -0.6728  0.3556  0.3773
   53BDD    C1214301  11.501   0.807   1.692 -0.1604 -0.0517 -0.0982
   53BDD    C1314302  11.580   0.723   1.791 -0.0319  0.1952 -0.4465
   53BDD    C1414303  11.671   0.793   1.888  0.2327 -0.0842  0.1093
   53BDD    C1514304  11.777   0.898   1.840  0.3115  0.2259  0.2690
   53BDD    C1614305  11.874   0.858   1.730 -0.0391 -0.0032  0.5235
   53BDD    C1714306  11.440   0.716   1.581  0.2131  0.1207  0.0434
   53BDD    C1814307  11.312   0.627   1.608 -0.0105  0.0428 -0.0315
   53BDD    C1914308  10.991   1.172   1.541  0.3881  0.7678  0.0816
   53BDD    C2014309  10.900   1.211   1.655 -0.5378  0.9803 -0.3270
   53BDD    C2114310  10.832   1.096   1.740  0.0825  0.0386  0.2844
   53BDD    C2214311  10.734   1.006   1.666 -0.3212 -0.4754  0.5841
   53BDD    C2314312  10.643   0.926   1.757  0.5418  0.7891  0.0055
   53BDD    C2414313  10.702   0.845   1.877  0.1235  0.0107  0.6036
   53BDD    C2514314  10.940   1.330   1.743  0.1760 -0.1129  0.9240
   53BDD    C2614315  10.960   1.468   1.679 -0.0421 -0.0508  0.3074
   54TPM     C114316  11.358   1.616   1.334  0.0655 -0.1325  0.2802
   54TPM     C214317  11.257   1.679   1.400  0.1408 -0.0416  0.3099
   54TPM     C314318  11.238   1.817   1.360  0.1636 -0.0653  0.2170
   54TPM     C414319  11.326   1.858   1.264  0.1057 -0.1741  0.1164
   54TPM     S114320  11.439   1.726   1.216  0.0171 -0.2559  0.1314
   55BDTP    C114321  11.462   2.417   1.012 -0.2211  0.0217 -0.2400
   55BDTP    C214322  11.322   2.431   1.040 -0.1776  0.0793 -0.0490
   55BDTP    C314323  11.247   2.330   1.097 -0.1440  0.1075  0.0469
   55BDTP    C414324  11.311   2.209   1.128 -0.1537  0.0777 -0.0497
   55BDTP    C514325  11.450   2.194   1.100 -0.1972  0.0202 -0.2407
   55BDTP    C614326  11.526   2.296   1.043 -0.2307 -0.0080 -0.3366
   55BDTP    C714327  11.253   2.090   1.187 -0.1243  0.0980  0.0202
   55BDTP    C814328  11.341   1.988   1.204 -0.1435  0.0590 -0.1074
   55BDTP    S114329  11.509   2.029   1.148 -0.2013 -0.0089 -0.3341
   55BDTP    C914330  11.519   2.536   0.953 -0.2504  0.0015 -0.3099
   55BDTP   C1014331  11.431   2.638   0.936 -0.2312  0.0405 -0.1823
   55BDTP    S214332  11.263   2.597   0.991 -0.1734  0.1083  0.0444
   56FTM     S114333  11.044   2.326   1.297  0.0348 -0.0830 -0.2522
   56FTM     C114334  10.882   2.385   1.244  0.1955  0.3175 -0.3001
   56FTM     C214335  10.886   2.423   1.114  0.3146  0.2571 -0.3136
   56FTM     C314336  11.013   2.409   1.048  0.2888 -0.0959 -0.2881
   56FTM     C414337  11.108   2.358   1.131  0.1453 -0.3127 -0.2541
   56FTM     F114338  10.776   2.473   1.046  0.4540  0.5177 -0.3497
   56FTM     C514339  10.765   2.384   1.345 -0.1779  0.6900  0.3749
   56FTM     C614340  10.733   2.259   1.427  0.0763 -0.1674  0.8367
   56FTM     C714341  10.654   2.282   1.555  0.1243  0.0625  0.1023
   56FTM     C814342  10.732   2.336   1.671  0.2653  0.4862 -0.7136
   56FTM     C914343  10.860   2.257   1.710 -0.1673 -0.1717 -0.2116
   56FTM    C1014344  10.899   2.316   1.849 -0.6952  0.0887 -0.6521
   56FTM    C1114345  10.682   2.151   1.330 -0.1564 -0.0848 -0.7396
   56FTM    C1214346  10.622   2.015   1.391 -0.7111 -0.8381  0.4194
   57FTM     S114347  11.722   2.128   0.914  0.0334 -0.2906 -0.1614
   57FTM     C114348  11.895   2.179   0.929 -0.0320 -0.0430 -0.2380
   57FTM     C214349  11.903   2.294   1.001 -0.1687 -0.0061 -0.2798
   57FTM     C314350  11.779   2.348   1.048 -0.2295 -0.1644 -0.2554
   57FTM     C414351  11.673   2.273   1.011 -0.1364 -0.3277 -0.1929
   57FTM     F114352  12.024   2.357   1.029 -0.2469  0.1730 -0.3426
   57FTM     C514353  12.015   2.103   0.868  0.0426  0.7140  0.0018
   57FTM     C614354  12.018   1.959   0.829 -0.5363  0.2011 -0.6962
   57FTM     C714355  11.969   1.864   0.950  0.3548  0.6776 -0.2214
   57FTM     C814356  12.059   1.846   1.074  0.1034  0.8609 -0.9996
   57FTM     C914357  11.987   1.760   1.181  0.4567 -0.2890  0.5210
   57FTM    C1014358  12.083   1.737   1.298 -0.5911 -0.0419 -0.3044
   57FTM    C1114359  11.950   1.929   0.692  0.0036  0.5335  0.1784
   57FTM    C1214360  11.957   1.777   0.653  0.5883 -0.4756  0.2416
   58TPM     C114361  11.458   2.773   0.891 -0.1925  0.0323 -0.1605
   58TPM     C214362  11.570   2.846   0.917 -0.2402  0.0191  0.0823
   58TPM     C314363  11.576   2.972   0.847 -0.1378  0.0811  0.1993
   58TPM     C414364  11.468   2.994   0.766 -0.0119  0.1415  0.0459
   58TPM     S114365  11.350   2.858   0.774 -0.0130  0.1246 -0.2608
   59BDD     C114366  11.552   3.328   0.571 -0.1079  0.1438 -0.2229
   59BDD     C214367  11.416   3.315   0.564 -0.1100  0.1463 -0.1867
   59BDD     C314368  11.367   3.193   0.626 -0.0986  0.1621 -0.1465
   59BDD     C414369  11.466   3.115   0.679 -0.0880  0.1715 -0.1526
   59BDD     S114370  11.628   3.189   0.655 -0.0915  0.1611 -0.2091
   59BDD     C514371  11.326   3.413   0.500 -0.1225  0.1342 -0.1877
   59BDD     C614372  11.224   3.158   0.630 -0.0986  0.1673 -0.1035
   59BDD     O114373  11.181   3.053   0.683 -0.0888  0.1810 -0.0688
   59BDD     O214374  11.369   3.518   0.447 -0.1324  0.1206 -0.2224
   59BDD     C714375  11.134   3.256   0.566 -0.1112  0.1552 -0.1045
   59BDD     C814376  11.183   3.378   0.505 -0.1226  0.1394 -0.1447
   59BDD     C914377  11.084   3.456   0.451 -0.1332  0.1301 -0.1386
   59BDD     S214378  10.922   3.382   0.475 -0.1296  0.1404 -0.0821
   59BDD    C1014379  10.998   3.243   0.560 -0.1132  0.1577 -0.0684
   59BDD    C1114380  10.906   3.147   0.628  0.1590 -0.3824 -0.1612
   59BDD    C1214381  10.793   3.099   0.537  0.5278 -0.1258 -0.7241
   59BDD    C1314382  10.683   3.018   0.622 -0.3509 -0.3908  0.4851
   59BDD    C1414383  10.592   3.108   0.710 -0.3467 -0.1611  0.2077
   59BDD    C1514384  10.533   3.231   0.646 -0.0230 -0.4332 -1.0440
   59BDD    C1614385  10.453   3.319   0.748 -0.2959  0.7817 -0.0142
   59BDD    C1714386  10.819   3.046   0.396 -0.4025 -0.1954 -0.0624
   59BDD    C1814387  10.694   3.060   0.306  0.1165 -0.6890 -0.4734
   59BDD    C1914388  11.090   3.587   0.379  0.2518  0.1709 -0.1857
   59BDD    C2014389  11.054   3.696   0.470 -0.5621  0.3065 -1.0518
   59BDD    C2114390  11.077   3.845   0.426  0.3269  0.5540 -0.2266
   59BDD    C2214391  11.217   3.890   0.400 -0.3804 -0.4931 -0.3253
   59BDD    C2314392  11.330   3.881   0.503 -1.2002  0.4523 -0.5192
   59BDD    C2414393  11.463   3.949   0.465  0.2654 -0.7432  0.3879
   59BDD    C2514394  10.911   3.706   0.532 -0.0632 -0.1912 -0.2611
   59BDD    C2614395  10.787   3.707   0.444  0.3212  0.7804 -0.1523
   60TPM     C114396  11.661   3.417   0.527 -0.1359 -0.0878  0.1114
   60TPM     C214397  11.790   3.371   0.527 -0.1549 -0.1467  0.6353
   60TPM     C314398  11.885   3.464   0.472  0.0939 -0.2518  0.8800
   60TPM     C414399  11.829   3.581   0.429  0.3026 -0.2731  0.5427
   60TPM     S114400  11.650   3.582   0.455  0.2003 -0.1611 -0.1152
    1BDTP    C114401   1.241   9.473   0.230 -0.1524 -0.1323 -0.0147
    1BDTP    C214402   1.270   9.422   0.100 -0.2254 -0.1624 -0.0192
    1BDTP    C314403   1.347   9.491   0.008 -0.2247 -0.2120 -0.0561
    1BDTP    C414404   1.400   9.616   0.046 -0.1484 -0.2337 -0.0903
    1BDTP    C514405   1.371   9.667   0.176 -0.0754 -0.2038 -0.0858
    1BDTP    C614406   1.294   9.598   0.268 -0.0760 -0.1543 -0.0488
    1BDTP    C714407   1.483   9.705  -0.032 -0.1324 -0.2845 -0.1313
    1BDTP    C814408   1.518   9.819   0.032 -0.0519 -0.2940 -0.1579
    1BDTP    S114409   1.450   9.829   0.201  0.0150 -0.2401 -0.1342
    1BDTP    C914410   1.158   9.383   0.308 -0.1684 -0.0815  0.0266
    1BDTP   C1014411   1.123   9.269   0.244 -0.2489 -0.0718  0.0530
    1BDTP    S214412   1.191   9.259   0.076 -0.3158 -0.1260  0.0292
    2FTM     S114413   1.540   9.411  -0.201  0.0169 -0.1403 -0.0228
    2FTM     C114414   1.469   9.332  -0.346  0.2706 -0.2695 -0.0771
    2FTM     C214415   1.334   9.329  -0.336  0.2513 -0.2487 -0.3178
    2FTM     C314416   1.278   9.388  -0.217  0.0432 -0.1340 -0.4706
    2FTM     C414417   1.374   9.437  -0.134 -0.1017 -0.0644 -0.3431
    2FTM     F114418   1.252   9.274  -0.433  0.4210 -0.3326 -0.4137
    2FTM     C514419   1.562   9.286  -0.456 -0.3383  0.3958 -1.0811
    2FTM     C614420   1.544   9.154  -0.526  0.1595  0.2492  0.3420
    2FTM     C714421   1.554   9.024  -0.439 -0.6597  0.1659 -0.1228
    2FTM     C814422   1.686   9.005  -0.362  0.3557 -0.2025  0.1544
    2FTM     C914423   1.821   9.014  -0.422 -0.3321  0.1018 -0.4393
    2FTM    C1014424   1.926   8.989  -0.315  0.3922 -0.1132  0.2449
    2FTM    C1114425   1.464   9.168  -0.649  0.4794  0.4187  0.8659
    2FTM    C1214426   1.478   9.047  -0.743 -0.0787  0.3970  0.1546
    3FTM     S114427   1.110   9.634   0.488 -0.1366  0.0739 -0.1947
    3FTM     C114428   1.177   9.722   0.630  0.1462 -0.2232 -0.1423
    3FTM     C214429   1.308   9.753   0.607  0.1287 -0.2604 -0.2983
    3FTM     C314430   1.362   9.711   0.482 -0.1000 -0.0650 -0.4641
    3FTM     C414431   1.270   9.646   0.405 -0.2631  0.1282 -0.4340
    3FTM     F114432   1.386   9.821   0.700  0.3190 -0.4738 -0.3003
    3FTM     C514433   1.098   9.755   0.751 -0.1177  0.0361 -0.4066
    3FTM     C614434   1.006   9.878   0.772 -0.3676  0.1515  0.4548
    3FTM     C714435   1.097  10.005   0.767  0.1409  0.0098 -0.6555
    3FTM     C814436   1.211  10.045   0.859 -0.3314  0.2809 -0.3356
    3FTM     C914437   1.177  10.061   1.006 -0.3118 -0.5304  0.0922
    3FTM    C1014438   1.284  10.106   1.106  0.2621  0.0757  0.0800
    3FTM    C1114439   0.886   9.877   0.672  0.1832 -0.1233  0.2075
    3FTM    C1214440   0.886   9.922   0.521 -0.2951  0.4388 -0.5161
    4TPM     C114441   1.067   9.149   0.305 -0.4143  0.1782 -0.5492
    4TPM     C214442   1.115   9.021   0.312 -0.5741  0.0887 -1.0179
    4TPM     C314443   1.034   8.933   0.391 -0.4650  0.0029 -1.0015
    4TPM     C414444   0.924   8.993   0.445 -0.2221  0.0263 -0.5203
    4TPM     S114445   0.914   9.167   0.399 -0.1114  0.1598 -0.0469
    5BDD     C114446   0.593   8.851   0.596 -0.0684 -0.1152  0.0330
    5BDD     C214447   0.692   8.805   0.678 -0.0860 -0.0713  0.0791
    5BDD     C314448   0.825   8.850   0.639 -0.0910  0.0153  0.1609
    5BDD     C414449   0.824   8.929   0.528 -0.0771  0.0365  0.1760
    5BDD     S114450   0.658   8.954   0.465 -0.0568 -0.0510  0.0887
    5BDD     C514451   0.669   8.718   0.796 -0.0989 -0.1075  0.0497
    5BDD     C614452   0.947   8.812   0.714 -0.1094  0.0741  0.2212
    5BDD     O114453   1.061   8.851   0.680 -0.1137  0.1490  0.2918
    5BDD     O214454   0.555   8.679   0.829 -0.0946 -0.1824 -0.0208
    5BDD     C714455   0.923   8.725   0.831 -0.1223  0.0381  0.1918
    5BDD     C814456   0.791   8.680   0.870 -0.1173 -0.0486  0.1100
    5BDD     C914457   0.791   8.601   0.981 -0.1312 -0.0699  0.0949
    5BDD     S214458   0.957   8.576   1.045 -0.1515  0.0177  0.1822
    5BDD    C1014459   1.023   8.679   0.913 -0.1399  0.0818  0.2380
    5BDD    C1114460   1.176   8.694   0.912  0.5547  0.2089  0.0242
    5BDD    C1214461   1.252   8.563   0.874  0.1167  0.3203 -0.0898
    5BDD    C1314462   1.213   8.481   0.751  0.2651 -0.4072 -0.1628
    5BDD    C1414463   1.242   8.553   0.618 -0.0468 -0.6782 -0.6536
    5BDD    C1514464   1.216   8.459   0.498 -0.0979 -0.2560 -0.0328
    5BDD    C1614465   1.203   8.533   0.363  0.6246 -0.1671 -1.0013
    5BDD    C1714466   1.407   8.568   0.904  0.0105  0.8347  0.5093
    5BDD    C1814467   1.478   8.601   1.039  0.9554 -0.4733 -0.0999
    5BDD    C1914468   0.682   8.547   1.065 -0.5723  0.3305 -0.1925
    5BDD    C2014469   0.612   8.413   1.015  0.0097 -0.2151  0.3427
    5BDD    C2114470   0.510   8.371   1.119  0.0075 -0.1074  0.4051
    5BDD    C2214471   0.406   8.469   1.163  0.2767 -0.2497 -0.2676
    5BDD    C2314472   0.305   8.415   1.263 -0.4334 -0.0037 -0.0921
    5BDD    C2414473   0.216   8.506   1.336  0.1736 -0.0381 -0.6110
    5BDD    C2514474   0.694   8.291   0.973 -0.9236  0.1742 -0.1325
    5BDD    C2614475   0.777   8.288   0.846 -0.1817  0.1777  0.0627
    6TPM     C114476   0.448   8.832   0.579  0.3640  0.5038 -0.1105
    6TPM     C214477   0.369   8.845   0.689  0.5754  1.2836 -0.0397
    6TPM     C314478   0.229   8.856   0.660  0.5548  1.5223  0.1382
    6TPM     C414479   0.200   8.851   0.527  0.3277  0.9251  0.2030
    6TPM     S114480   0.349   8.832   0.427  0.1207  0.0067  0.0431
    7BDTP    C114481  -0.360   8.929   0.252  0.0172  0.0994 -0.1820
    7BDTP    C214482  -0.268   8.956   0.147  0.1094 -0.0737 -0.1458
    7BDTP    C314483  -0.131   8.946   0.163  0.0911 -0.1607 -0.0424
    7BDTP    C414484  -0.082   8.908   0.290 -0.0241 -0.0722  0.0289
    7BDTP    C514485  -0.174   8.881   0.395 -0.1163  0.1011 -0.0072
    7BDTP    C614486  -0.312   8.891   0.378 -0.0977  0.1879 -0.1106
    7BDTP    C714487   0.056   8.891   0.331 -0.0641 -0.1353  0.1397
    7BDTP    C814488   0.072   8.854   0.460 -0.1807 -0.0191  0.1879
    7BDTP    S114489  -0.086   8.834   0.548 -0.2561  0.1864  0.0997
    7BDTP    C914490  -0.498   8.946   0.211  0.0575  0.1624 -0.2927
    7BDTP   C1014491  -0.514   8.983   0.081  0.1743  0.0465 -0.3409
    7BDTP    S214492  -0.356   9.003  -0.006  0.2496 -0.1591 -0.2527
    8FTM     S114493   0.097   9.079   0.061 -0.0855  0.4003 -0.0223
    8FTM     C114494   0.133   9.057  -0.114  0.0694  0.1248  0.0424
    8FTM     C214495   0.041   8.973  -0.170  0.1629 -0.0222  0.1092
    8FTM     C314496  -0.060   8.922  -0.082  0.1206  0.0684  0.1132
    8FTM     C414497  -0.045   8.969   0.045 -0.0093  0.2920  0.0481
    8FTM     F114498   0.044   8.938  -0.304  0.2921 -0.2472  0.1700
    8FTM     C514499   0.238   9.141  -0.178 -0.4156  0.0974 -0.8975
    8FTM     C614500   0.359   9.061  -0.230  0.2142 -0.3625  0.9961
    8FTM     C714501   0.428   8.972  -0.138  0.3265 -0.4722 -0.9148
    8FTM     C814502   0.497   9.054  -0.024  0.3035  0.4114 -0.3630
    8FTM     C914503   0.578   8.972   0.085  0.4831 -0.1949  0.0967
    8FTM    C1014504   0.691   8.879   0.048 -0.3669  0.1780  0.6866
    8FTM    C1114505   0.351   8.986  -0.368 -0.3581 -0.7397  0.0844
    8FTM    C1214506   0.302   9.061  -0.487  0.1174  0.4868  0.3372
    9FTM     S114507  -0.538   8.730   0.461 -0.0407  0.0746  0.0261
    9FTM     C114508  -0.586   8.746   0.634  0.2071  0.2023  0.0851
    9FTM     C214509  -0.505   8.834   0.697  0.2098  0.3557 -0.1312
    9FTM     C314510  -0.402   8.894   0.617  0.0241  0.3829 -0.3508
    9FTM     C414511  -0.405   8.850   0.488 -0.1260  0.2457 -0.3010
    9FTM     F114512  -0.518   8.866   0.832  0.3808  0.4807 -0.1432
    9FTM     C514513  -0.699   8.657   0.693  0.2388 -0.3354 -0.6342
    9FTM     C614514  -0.776   8.539   0.625  0.3921 -1.2292 -0.3207
    9FTM     C714515  -0.898   8.574   0.540 -1.1957 -0.3568  0.0716
    9FTM     C814516  -1.011   8.648   0.596  0.7384 -0.2573 -0.1133
    9FTM     C914517  -1.115   8.687   0.485 -0.3154  0.5633  0.1197
    9FTM    C1014518  -1.201   8.577   0.413 -0.0484 -0.2602  0.7129
    9FTM    C1114519  -0.690   8.434   0.559 -0.2534 -0.6955 -0.1321
    9FTM    C1214520  -0.595   8.363   0.661  0.2494  0.0322  0.9034
   10TPM     C114521  -0.629   9.016   0.002 -0.4937 -0.6442  0.1249
   10TPM     C214522  -0.761   9.018   0.036 -0.6084 -0.5944 -0.3238
   10TPM     C314523  -0.849   9.034  -0.077 -0.2100 -0.2949 -0.5965
   10TPM     C414524  -0.784   9.045  -0.197  0.2085 -0.1160 -0.3557
   10TPM     S114525  -0.605   9.035  -0.175  0.1320 -0.3135  0.2388
   11BDD     C114526  -0.846   9.146  -0.571 -0.0168  0.1604  0.1127
   11BDD     C214527  -0.962   9.085  -0.532  0.0172  0.0806  0.0899
   11BDD     C314528  -0.962   9.047  -0.392  0.1121 -0.1440  0.0298
   11BDD     C414529  -0.846   9.079  -0.327  0.1494 -0.2318  0.0077
   11BDD     S114530  -0.729   9.160  -0.436  0.0682 -0.0401  0.0606
   11BDD     C514531  -1.077   9.060  -0.621 -0.0365  0.2077  0.1225
   11BDD     C614532  -1.077   8.980  -0.327  0.1626 -0.2627 -0.0036
   11BDD     O114533  -1.077   8.947  -0.207  0.2444 -0.4561 -0.0553
   11BDD     O214534  -1.077   9.093  -0.742 -0.1185  0.4010  0.1743
   11BDD     C714535  -1.192   8.955  -0.417  0.1087 -0.1357  0.0291
   11BDD     C814536  -1.192   8.993  -0.557  0.0138  0.0887  0.0892
   11BDD     C914537  -1.308   8.961  -0.622 -0.0234  0.1771  0.1113
   11BDD     S214538  -1.425   8.880  -0.512  0.0581 -0.0149  0.0584
   11BDD    C1014539  -1.308   8.894  -0.377  0.1426 -0.2151  0.0062
   11BDD    C1114540  -1.366   8.846  -0.241 -0.4456 -0.3314  0.3724
   11BDD    C1214541  -1.299   8.714  -0.183  0.0754 -0.3260 -0.2798
   11BDD    C1314542  -1.353   8.679  -0.041 -0.1090 -0.4160  0.3136
   11BDD    C1414543  -1.318   8.768   0.081 -0.3196 -0.3789  0.3097
   11BDD    C1514544  -1.164   8.797   0.087  0.1685  0.9112 -0.0745
   11BDD    C1614545  -1.114   8.917   0.161  0.5455 -0.4626 -0.0995
   11BDD    C1714546  -1.320   8.593  -0.278 -0.0770 -0.1986  0.2342
   11BDD    C1814547  -1.244   8.461  -0.250  0.2284 -0.4949 -0.0844
   11BDD    C1914548  -1.360   8.964  -0.764  0.3767 -0.1567  0.0250
   11BDD    C2014549  -1.455   9.082  -0.793 -0.7254 -0.0934 -0.3949
   11BDD    C2114550  -1.461   9.124  -0.939  0.1988  0.2134  0.1598
   11BDD    C2214551  -1.524   9.265  -0.978  0.5672 -0.5619 -0.5608
   11BDD    C2314552  -1.532   9.286  -1.131 -0.4680 -0.2596 -0.4214
   11BDD    C2414553  -1.580   9.423  -1.179  0.1902 -0.2470 -0.6941
   11BDD    C2514554  -1.585   9.098  -0.711 -0.1864 -0.2768  0.2097
   11BDD    C2614555  -1.699   8.996  -0.726 -0.3104  0.3391  0.0994
   12TPM     C114556  -0.793   9.203  -0.699  0.0502 -0.3497  0.4240
   12TPM     C214557  -0.816   9.156  -0.824  0.0613 -0.4411  0.4554
   12TPM     C314558  -0.734   9.217  -0.926 -0.0904 -0.3486  0.3879
   12TPM     C414559  -0.648   9.311  -0.877 -0.2172 -0.1864  0.3049
   12TPM     S114560  -0.664   9.329  -0.698 -0.1546 -0.1381  0.3054
   13BDTP    C114561  -0.182   9.568  -1.215 -0.0691  0.0138  0.0670
   13BDTP    C214562  -0.283   9.668  -1.229 -0.1361 -0.0646 -0.0072
   13BDTP    C314563  -0.408   9.657  -1.170 -0.1459 -0.1273 -0.0391
   13BDTP    C414564  -0.435   9.543  -1.092 -0.0870 -0.1113  0.0036
   13BDTP    C514565  -0.334   9.444  -1.078 -0.0203 -0.0329  0.0782
   13BDTP    C614566  -0.209   9.454  -1.137 -0.0102  0.0293  0.1102
   13BDTP    C714567  -0.557   9.510  -1.021 -0.0844 -0.1666 -0.0171
   13BDTP    C814568  -0.552   9.392  -0.954 -0.0198 -0.1333  0.0370
   13BDTP    S114569  -0.393   9.306  -0.973  0.0472 -0.0284  0.1225
   13BDTP    C914570  -0.061   9.601  -1.286 -0.0718  0.0684  0.0882
   13BDTP   C1014571  -0.065   9.719  -1.353 -0.1366  0.0355  0.0339
   13BDTP    S214572  -0.224   9.805  -1.334 -0.2033 -0.0695 -0.0513
   14FTM     S114573  -0.681   9.746  -1.206  0.0288 -0.1439 -0.2349
   14FTM     C114574  -0.712   9.922  -1.180 -0.1402 -0.1604 -0.3263
   14FTM     C214575  -0.595   9.987  -1.156 -0.1950 -0.0238 -0.4275
   14FTM     C314576  -0.477   9.906  -1.157 -0.1116  0.0990 -0.4399
   14FTM     C414577  -0.504   9.775  -1.182  0.0117  0.0551 -0.3453
   14FTM     F114578  -0.589  10.123  -1.132 -0.3245 -0.0019 -0.5152
   14FTM     C514579  -0.847   9.993  -1.199  0.2709 -0.3621  0.6667
   14FTM     C614580  -0.917   9.991  -1.339 -0.0691  0.2679 -0.9890
   14FTM     C714581  -1.046  10.074  -1.347  0.1007 -0.1581 -0.1153
   14FTM     C814582  -1.152  10.035  -1.248  0.4481 -0.8967  0.3820
   14FTM     C914583  -1.288  10.110  -1.262 -0.0045  0.0217  0.3066
   14FTM    C1014584  -1.283  10.261  -1.255 -0.3646 -0.1234  0.0453
   14FTM    C1114585  -0.844  10.002  -1.470  0.6903  0.6061  0.4892
   14FTM    C1214586  -0.786  10.135  -1.514  0.8421  0.8500  0.0171
   15FTM     S114587   0.066   9.363  -1.104 -0.4524  0.0523 -0.0326
   15FTM     C114588   0.097   9.192  -1.150 -0.3997 -0.0433  0.3499
   15FTM     C214589  -0.021   9.132  -1.184 -0.3278 -0.0329  0.0763
   15FTM     C314590  -0.138   9.213  -1.176 -0.3097  0.0479 -0.4354
   15FTM     C414591  -0.110   9.340  -1.135 -0.3696  0.1012 -0.5573
   15FTM     F114592  -0.028   8.999  -1.224 -0.2739 -0.0961  0.2725
   15FTM     C514593   0.244   9.144  -1.152  0.1885  0.0080  0.3434
   15FTM     C614594   0.347   9.148  -1.266 -0.4280 -0.8942  0.3023
   15FTM     C714595   0.311   9.106  -1.412  0.4643 -0.2777  0.1149
   15FTM     C814596   0.331   8.956  -1.442  0.2851 -0.3101  0.3691
   15FTM     C914597   0.295   8.914  -1.590 -1.1868  0.0139 -0.2099
   15FTM    C1014598   0.387   8.985  -1.695 -0.1559  1.1031  0.0721
   15FTM    C1114599   0.422   9.287  -1.273  0.1471  0.0999 -0.1986
   15FTM    C1214600   0.482   9.345  -1.147 -0.1477  0.0728  0.2101
   16TPM     C114601   0.039   9.773  -1.436  0.1342  0.0877 -0.0942
   16TPM     C214602   0.032   9.876  -1.525  0.1483  0.4766  0.3436
   16TPM     C314603   0.161   9.924  -1.569  0.1542  0.5224  0.4117
   16TPM     C414604   0.266   9.858  -1.512  0.1444  0.1684  0.0257
   16TPM     S114605   0.210   9.729  -1.399  0.1270 -0.2535 -0.4576
   17BDD     C114606   0.631   9.994  -1.439  0.1265  0.1405 -0.0264
   17BDD     C214607   0.622   9.977  -1.574  0.1169  0.1308 -0.0243
   17BDD     C314608   0.490   9.934  -1.619  0.0889  0.2107 -0.0205
   17BDD     C414609   0.401   9.918  -1.516  0.0777  0.2800 -0.0195
   17BDD     S114610   0.475   9.957  -1.357  0.1013  0.2502 -0.0231
   17BDD     C514611   0.734  10.001  -1.668  0.1329  0.0479 -0.0254
   17BDD     C614612   0.458   9.909  -1.761  0.0744  0.2152 -0.0182
   17BDD     O114613   0.345   9.872  -1.799  0.0503  0.2840 -0.0149
   17BDD     O214614   0.847  10.038  -1.630  0.1570 -0.0209 -0.0287
   17BDD     C714615   0.570   9.933  -1.854  0.0905  0.1323 -0.0196
   17BDD     C814616   0.701   9.976  -1.810  0.1184  0.0525 -0.0231
   17BDD     C914617   0.791   9.992  -1.913  0.1296 -0.0169 -0.0240
   17BDD     S214618   0.717   9.953  -2.071  0.1060  0.0129 -0.0207
   17BDD    C1014619   0.561   9.916  -1.990  0.0808  0.1226 -0.0178
   17BDD    C1114620   0.452   9.881  -2.080  0.0612  0.2672 -0.1101
   17BDD    C1214621   0.407   9.738  -2.076 -0.3356  0.4712 -0.5303
   17BDD    C1314622   0.286   9.689  -2.152  0.4128  0.3736 -0.2087
   17BDD    C1414623   0.154   9.751  -2.106  0.4651  0.1692 -0.2314
   17BDD    C1514624   0.115   9.729  -1.961  0.0891  0.1902 -0.6773
   17BDD    C1614625  -0.028   9.769  -1.930  0.1697 -0.0583 -0.0544
   17BDD    C1714626   0.520   9.642  -2.098 -0.0596  0.1353 -0.3302
   17BDD    C1814627   0.503   9.494  -2.051  0.0695 -0.6980  0.1040
   17BDD    C1914628   0.943  10.012  -1.910  0.6039 -0.4807 -0.0954
   17BDD    C2014629   0.993  10.159  -1.891  0.2293  0.2557  0.8440
   17BDD    C2114630   0.967  10.249  -2.014 -0.3223  0.0959 -0.2479
   17BDD    C2214631   0.947  10.398  -1.977  0.3494 -0.5833  0.1362
   17BDD    C2314632   0.815  10.440  -1.899 -0.5779 -0.2908  0.2137
   17BDD    C2414633   0.823  10.594  -1.884  0.1546  0.1584 -0.1484
   17BDD    C2514634   1.132  10.175  -1.821 -0.1660 -0.4207  0.4748
   17BDD    C2614635   1.142  10.117  -1.675  0.2479  0.8270  0.6045
   18TPM     C114636   0.731  10.045  -1.343  0.2136  0.0293 -0.0684
   18TPM     C214637   0.689  10.106  -1.229  0.1780 -0.2153  0.0508
   18TPM     C314638   0.795  10.168  -1.153  0.1605 -0.4136  0.2398
   18TPM     C414639   0.918  10.153  -1.210  0.1828 -0.3201  0.2645
   18TPM     S114640   0.909  10.060  -1.364  0.2279  0.0282  0.0496
   19BDTP    C114641   1.428  10.360  -0.910 -0.1515  0.2223 -0.1471
   19BDTP    C214642   1.483  10.320  -1.036 -0.1677  0.1705 -0.1378
   19BDTP    C314643   1.405  10.267  -1.138 -0.1782  0.1120 -0.0994
   19BDTP    C414644   1.267  10.253  -1.115 -0.1725  0.1041 -0.0689
   19BDTP    C514645   1.212  10.293  -0.990 -0.1564  0.1559 -0.0789
   19BDTP    C614646   1.290  10.346  -0.888 -0.1459  0.2144 -0.1172
   19BDTP    C714647   1.166  10.201  -1.206 -0.1812  0.0480 -0.0276
   19BDTP    C814648   1.041  10.200  -1.155 -0.1724  0.0552 -0.0060
   19BDTP    S114649   1.032  10.266  -0.986 -0.1520  0.1338 -0.0348
   19BDTP    C914650   1.529  10.412  -0.820 -0.1430  0.2783 -0.1888
   19BDTP   C1014651   1.654  10.413  -0.871 -0.1517  0.2712 -0.2108
   19BDTP    S214652   1.663  10.347  -1.040 -0.1721  0.1926 -0.1818
   20FTM     S114653   1.417  10.250  -1.428  0.0181 -0.0157  0.1485
   20FTM     C114654   1.552  10.152  -1.495  0.0209 -0.2692  0.5195
   20FTM     C214655   1.628  10.103  -1.394 -0.0823 -0.0348  0.7119
   20FTM     C314656   1.588  10.139  -1.261 -0.1677  0.3470  0.5858
   20FTM     C414657   1.477  10.217  -1.260 -0.1287  0.4069  0.2871
   20FTM     F114658   1.740  10.023  -1.415 -0.1055 -0.1520  1.0138
   20FTM     C514659   1.560  10.131  -1.645  0.2455  0.3496  0.9085
   20FTM     C614660   1.665  10.207  -1.731  0.1373 -0.4660 -0.0116
   20FTM     C714661   1.640  10.198  -1.883 -0.2553  0.4812  0.2440
   20FTM     C814662   1.529  10.288  -1.928  0.4844  0.0315  0.2541
   20FTM     C914663   1.518  10.300  -2.086 -0.3550 -1.4565 -0.0762
   20FTM    C1014664   1.386  10.377  -2.127  0.0677  0.0182 -0.2783
   20FTM    C1114665   1.808  10.186  -1.683  0.6981  0.4735  0.2184
   20FTM    C1214666   1.918  10.289  -1.723  0.2760 -0.5958 -0.4481
   21FTM     S114667   1.254  10.510  -0.656 -0.0388 -0.0583  0.2982
   21FTM     C114668   1.162  10.436  -0.520  0.1807  0.0450  0.5038
   21FTM     C214669   1.124  10.309  -0.553  0.0925  0.0337  0.6447
   21FTM     C314670   1.164  10.264  -0.683 -0.1453 -0.0539  0.6022
   21FTM     C414671   1.234  10.358  -0.751 -0.2424 -0.1115  0.4234
   21FTM     F114672   1.052  10.227  -0.467  0.2220  0.1020  0.8204
   21FTM     C514673   1.133  10.503  -0.389  0.5552 -0.0634  0.1356
   21FTM     C614674   1.119  10.655  -0.361 -0.4239  0.1825 -0.7410
   21FTM     C714675   1.253  10.734  -0.379  0.6382  0.4830  0.1755
   21FTM     C814676   1.373  10.708  -0.286  0.4834 -0.0483  0.1989
   21FTM     C914677   1.377  10.819  -0.183  0.0414 -0.0790  0.6257
   21FTM    C1014678   1.507  10.805  -0.108 -0.1782  0.3308 -0.5730
   21FTM    C1114679   0.990  10.722  -0.411  0.4713 -0.5878 -0.5240
   21FTM    C1214680   0.970  10.874  -0.392  0.1284  0.3303  0.3509
   22TPM     C114681   1.776  10.450  -0.801  0.1948  0.3240  0.5323
   22TPM     C214682   1.796  10.452  -0.666  0.6756  0.5147  0.4618
   22TPM     C314683   1.932  10.476  -0.628  0.8419  0.4238 -0.0613
   22TPM     C414684   2.016  10.493  -0.734  0.4878  0.1640 -0.3895
   22TPM     S114685   1.929  10.479  -0.891 -0.0876  0.0126 -0.0613
   23BDD     C114686   2.392  10.383  -0.749  0.1961  0.2014 -0.1631
   23BDD     C214687   2.388  10.483  -0.655  0.1567  0.1868 -0.1493
   23BDD     C314688   2.255  10.537  -0.635  0.1261  0.0930 -0.1011
   23BDD     C414689   2.160  10.478  -0.712  0.1425  0.0374 -0.0788
   23BDD     S114690   2.230  10.350  -0.817  0.1975  0.0986 -0.1168
   23BDD     C514691   2.507  10.532  -0.582  0.1459  0.2586 -0.1795
   23BDD     C614692   2.227  10.646  -0.538  0.0817  0.0620 -0.0787
   23BDD     O114693   2.113  10.692  -0.520  0.0552 -0.0190 -0.0372
   23BDD     O214694   2.621  10.486  -0.600  0.1724  0.3395 -0.2213
   23BDD     C714695   2.346  10.695  -0.465  0.0708  0.1338 -0.1092
   23BDD     C814696   2.479  10.641  -0.486  0.1014  0.2275 -0.1571
   23BDD     C914697   2.574  10.700  -0.408  0.0850  0.2832 -0.1798
   23BDD     S214698   2.504  10.828  -0.303  0.0299  0.2219 -0.1418
   23BDD    C1014699   2.342  10.795  -0.371  0.0314  0.1192 -0.0956
   23BDD    C1114700   2.229  10.872  -0.307 -0.2673 -0.1415 -0.3164
   23BDD    C1214701   2.133  10.793  -0.220  0.0938 -0.5432  0.2106
   23BDD    C1314702   2.014  10.880  -0.176 -0.1358 -0.0716 -0.5604
   23BDD    C1414703   2.046  10.998  -0.080  0.0519 -0.3065 -0.5197
   23BDD    C1514704   1.935  11.095  -0.042  0.0148 -0.0698  0.0634
   23BDD    C1614705   1.994  11.220   0.031  0.4331  0.5052 -0.2321
   23BDD    C1714706   2.186  10.696  -0.111 -0.4768 -0.2066  0.2247
   23BDD    C1814707   2.100  10.594  -0.037 -0.6878 -0.2733  0.7501
   23BDD    C1914708   2.729  10.675  -0.390 -0.0744 -0.8552  0.9527
   23BDD    C2014709   2.769  10.601  -0.269  0.5362 -0.1138 -0.1458
   23BDD    C2114710   2.761  10.690  -0.146 -0.2304 -0.1466  0.4714
   23BDD    C2214711   2.841  10.820  -0.135  0.6190 -0.1182 -0.1680
   23BDD    C2314712   2.801  10.916  -0.015 -0.3897  0.7752  0.3296
   23BDD    C2414713   2.823  10.867   0.119  0.4198  0.2462 -1.0230
   23BDD    C2514714   2.903  10.535  -0.265 -0.3218  0.0416 -0.0750
   23BDD    C2614715   2.930  10.438  -0.378 -0.8185  0.2636  0.2344
   24TPM     C114716   2.493  10.301  -0.809  0.1637  0.3867 -0.0257
   24TPM     C214717   2.585  10.236  -0.733  0.3747  0.8018  0.0782
   24TPM     C314718   2.655  10.131  -0.804  0.4104  0.6320  0.3633
   24TPM     C414719   2.615  10.116  -0.933  0.2268  0.0874  0.4768
   24TPM     S114720   2.486  10.234  -0.977 -0.0073 -0.2559  0.2305
   25BDTP    C114721   2.872   9.721  -1.350  0.1752  0.0958  0.0975
   25BDTP    C214722   2.842   9.836  -1.428 -0.0100  0.0789  0.1411
   25BDTP    C314723   2.781   9.949  -1.375 -0.1105 -0.0052  0.2048
   25BDTP    C414724   2.747   9.948  -1.239 -0.0247 -0.0759  0.2260
   25BDTP    C514725   2.776   9.833  -1.161  0.1606 -0.0590  0.1822
   25BDTP    C614726   2.838   9.720  -1.213  0.2611  0.0250  0.1185
   25BDTP    C714727   2.683  10.053  -1.162 -0.1010 -0.1685  0.2892
   25BDTP    C814728   2.663  10.023  -1.032  0.0165 -0.2212  0.2949
   25BDTP    S114729   2.723   9.857  -0.988  0.2403 -0.1610  0.2213
   25BDTP    C914730   2.936   9.616  -1.426  0.2517  0.1886  0.0343
   25BDTP   C1014731   2.956   9.646  -1.557  0.1341  0.2410  0.0284
   25BDTP    S214732   2.896   9.812  -1.601 -0.0897  0.1809  0.1019
   26FTM     S114733   2.564  10.127  -1.444 -0.1839  0.1363 -0.1494
   26FTM     C114734   2.588  10.222  -1.596  0.2369  0.2579 -0.0094
   26FTM     C214735   2.709  10.192  -1.650  0.4630  0.4303  0.3918
   26FTM     C314736   2.788  10.096  -1.579  0.3263  0.4772  0.6099
   26FTM     C414737   2.726  10.051  -1.466 -0.0159  0.3361  0.3675
   26FTM     F114738   2.755  10.250  -1.767  0.8074  0.5560  0.5859
   26FTM     C514739   2.481  10.315  -1.648 -0.4398 -0.1472  0.2333
   26FTM     C614740   2.396  10.272  -1.770 -0.1732 -0.2494 -0.7458
   26FTM     C714741   2.345  10.129  -1.785 -0.9246  0.2628 -0.3998
   26FTM     C814742   2.292  10.060  -1.655  0.7969  0.0146 -0.1258
   26FTM     C914743   2.263   9.912  -1.660 -0.1984  0.0394 -0.0679
   26FTM    C1014744   2.370   9.817  -1.719  0.2610 -0.0541  0.2346
   26FTM    C1114745   2.297  10.371  -1.820  0.5534 -0.6871  0.3796
   26FTM    C1214746   2.343  10.519  -1.847  0.1738 -0.1624 -0.4522
   27FTM     S114747   2.810   9.435  -1.175  0.2440 -0.1793  0.1341
   27FTM     C114748   2.872   9.369  -1.019  0.2827 -0.0105  0.1915
   27FTM     C214749   2.919   9.470  -0.941  0.0253  0.1094  0.1953
   27FTM     C314750   2.911   9.602  -0.996 -0.2120  0.0777  0.1540
   27FTM     C414751   2.855   9.602  -1.120 -0.1337 -0.0709  0.1183
   27FTM     F114752   2.973   9.448  -0.815 -0.0108  0.2546  0.2353
   27FTM     C514753   2.865   9.223  -0.979 -0.2352 -0.3224  0.4790
   27FTM     C614754   2.746   9.134  -1.021 -0.5154 -0.5170 -0.1208
   27FTM     C714755   2.768   8.988  -0.977  0.1116 -0.1440  0.0563
   27FTM     C814756   2.886   8.907  -1.035  0.0181 -0.1539 -0.4366
   27FTM     C914757   2.878   8.761  -0.998 -0.3950 -0.3994 -0.2374
   27FTM    C1014758   3.001   8.685  -1.039 -0.2027  0.0172 -0.3480
   27FTM    C1114759   2.608   9.198  -0.986  0.0904  0.3292 -0.3667
   27FTM    C1214760   2.490   9.140  -1.060 -0.0294 -0.2688  0.0515
   28TPM     C114761   3.006   9.564  -1.667  0.5683 -0.0604  0.3183
   28TPM     C214762   3.038   9.599  -1.795  0.2349 -0.0064  0.2459
   28TPM     C314763   3.085   9.489  -1.875 -0.3037 -0.0386 -0.0297
   28TPM     C414764   3.088   9.370  -1.809 -0.3809 -0.1174 -0.1677
   28TPM     S114765   3.031   9.387  -1.639  0.2253 -0.1572  0.0417
   29BDD     C114766   3.360   9.090  -1.848  0.1954  0.0196 -0.1881
   29BDD     C214767   3.290   9.092  -1.966  0.1507  0.1049 -0.1605
   29BDD     C314768   3.184   9.192  -1.969  0.0974  0.0527 -0.0182
   29BDD     C414769   3.175   9.264  -1.853  0.1021 -0.0721  0.0604
   29BDD     S114770   3.298   9.213  -1.733  0.1739 -0.1323 -0.0381
   29BDD     C514771   3.319   9.003  -2.080  0.1553  0.2375 -0.2635
   29BDD     C614772   3.097   9.211  -2.086  0.0435  0.1276  0.0346
   29BDD     O114773   3.005   9.297  -2.088 -0.0026  0.0825  0.1571
   29BDD     O214774   3.410   8.917  -2.078  0.2013  0.2825 -0.3861
   29BDD     C714775   3.125   9.122  -2.200  0.0482  0.2606 -0.0685
   29BDD     C814776   3.231   9.023  -2.197  0.1015  0.3130 -0.2108
   29BDD     C914777   3.240   8.950  -2.313  0.0966  0.4373 -0.2893
   29BDD     S214778   3.118   9.002  -2.433  0.0248  0.4977 -0.1908
   29BDD    C1014779   3.055   9.124  -2.318  0.0033  0.3457 -0.0408
   29BDD    C1114780   2.939   9.201  -2.367  0.3308  0.0803  0.0269
   29BDD    C1214781   2.950   9.270  -2.506  0.0800 -0.0623 -0.3834
   29BDD    C1314782   2.810   9.306  -2.565 -0.1996  0.1317 -0.1350
   29BDD    C1414783   2.797   9.351  -2.707  0.3708 -0.1743 -0.0393
   29BDD    C1514784   2.653   9.343  -2.765 -0.1369 -0.4243 -0.4715
   29BDD    C1614785   2.634   9.383  -2.913  0.5208  0.2216  0.0250
   29BDD    C1714786   3.062   9.379  -2.522  0.1423  0.0049  0.0000
   29BDD    C1814787   3.050   9.509  -2.443 -0.0030 -0.5213 -0.2912
   29BDD    C1914788   3.329   8.832  -2.351  0.3806  0.1361  0.1496
   29BDD    C2014789   3.252   8.706  -2.401 -0.1545  0.2296 -0.0037
   29BDD    C2114790   3.145   8.655  -2.302  0.1558  0.0377 -1.1228
   29BDD    C2214791   3.079   8.520  -2.326  0.0373  0.4732  0.0759
   29BDD    C2314792   2.991   8.512  -2.449  0.1422  0.0723  0.0250
   29BDD    C2414793   2.969   8.366  -2.493  0.1901 -0.3840 -0.6351
   29BDD    C2514794   3.350   8.598  -2.440 -0.0534 -0.4966  0.4857
   29BDD    C2614795   3.455   8.629  -2.553  0.2129  0.4704 -0.1674
   30TPM     C114796   3.483   9.023  -1.800  0.1616 -0.4107 -0.2959
   30TPM     C214797   3.480   8.887  -1.790  0.1950 -0.3996 -0.1293
   30TPM     C314798   3.575   8.834  -1.695 -0.1243 -0.2310  0.2888
   30TPM     C414799   3.649   8.930  -1.632 -0.4011 -0.1132  0.4412
   30TPM     S114800   3.605   9.096  -1.689 -0.2791 -0.2071  0.0657
   31BDTP    C114801   4.053   8.854  -1.157  0.1909  0.1252 -0.1080
   31BDTP    C214802   4.075   8.989  -1.196  0.0463  0.1533 -0.0916
   31BDTP    C314803   4.006   9.050  -1.300 -0.0598  0.1097 -0.0467
   31BDTP    C414804   3.910   8.973  -1.369 -0.0219  0.0343 -0.0165
   31BDTP    C514805   3.888   8.838  -1.331  0.1228  0.0062 -0.0324
   31BDTP    C614806   3.957   8.777  -1.227  0.2289  0.0495 -0.0773
   31BDTP    C714807   3.827   9.014  -1.480 -0.1131 -0.0213  0.0317
   31BDTP    C814808   3.744   8.917  -1.526 -0.0448 -0.0896  0.0517
   31BDTP    S114809   3.760   8.761  -1.435  0.1447 -0.0927  0.0131
   31BDTP    C914810   4.137   8.813  -1.046  0.2823  0.1807 -0.1557
   31BDTP   C1014811   4.219   8.910  -1.000  0.2139  0.2489 -0.1760
   31BDTP    S214812   4.203   9.067  -1.091  0.0245  0.2521 -0.1374
   32FTM     S114813   3.977   9.318  -1.229 -0.0723  0.0003  0.1244
   32FTM     C114814   4.063   9.437  -1.333 -0.1532 -0.2161 -0.1928
   32FTM     C214815   4.126   9.372  -1.435 -0.2590 -0.4265 -0.1261
   32FTM     C314816   4.111   9.230  -1.438 -0.2828 -0.4315  0.1688
   32FTM     C414817   4.035   9.184  -1.335 -0.1925 -0.2183  0.3333
   32FTM     F114818   4.200   9.438  -1.532 -0.3403 -0.6266 -0.3281
   32FTM     C514819   4.047   9.586  -1.312 -0.0065  0.3476  0.0092
   32FTM     C614820   3.912   9.658  -1.333 -0.7928 -0.3745  0.0098
   32FTM     C714821   3.808   9.646  -1.220  0.5033  0.2906  0.1105
   32FTM     C814822   3.855   9.707  -1.083 -0.1827  0.0534 -0.3316
   32FTM     C914823   3.756   9.732  -0.967  0.1190 -0.3806  0.2069
   32FTM    C1014824   3.669   9.619  -0.916  0.0544  0.1302 -0.5811
   32FTM    C1114825   3.839   9.631  -1.469 -0.1654 -0.1484 -0.5670
   32FTM    C1214826   3.921   9.661  -1.598  0.0388  0.4198 -0.3791
   33FTM     S114827   4.042   8.505  -1.163 -0.1137  0.0459  0.1891
   33FTM     C114828   3.912   8.396  -1.103 -0.2609  0.1474  0.0536
   33FTM     C214829   3.793   8.461  -1.106 -0.1974  0.2630 -0.0064
   33FTM     C314830   3.795   8.596  -1.153 -0.0342  0.2792  0.0477
   33FTM     C414831   3.921   8.636  -1.188  0.0292  0.1728  0.1529
   33FTM     F114832   3.674   8.401  -1.066 -0.2832  0.3612 -0.1140
   33FTM     C514833   3.949   8.247  -1.090 -0.2382 -0.6264  0.0794
   33FTM     C614834   3.965   8.177  -0.952 -0.3534  0.3086 -0.1582
   33FTM     C714835   3.832   8.150  -0.874 -0.3708  0.3107 -0.0418
   33FTM     C814836   3.710   8.085  -0.948 -0.4607 -0.3089  0.4224
   33FTM     C914837   3.592   8.076  -0.853  0.4992 -0.2428 -0.1515
   33FTM    C1014838   3.444   8.062  -0.897 -0.2146 -0.4483  0.2785
   33FTM    C1114839   4.080   8.213  -0.853 -0.5057  0.0837  0.1337
   33FTM    C1214840   4.218   8.219  -0.913 -0.2520  0.1570  0.5425
   34TPM     C114841   4.323   8.906  -0.899  0.3374  0.0208  0.0828
   34TPM     C214842   4.372   8.999  -0.812  0.7316  0.0396 -0.1538
   34TPM     C314843   4.473   8.948  -0.723  0.8597 -0.0393 -0.3431
   34TPM     C414844   4.502   8.816  -0.742  0.5631 -0.1180 -0.2511
   34TPM     S114845   4.402   8.745  -0.875  0.0953 -0.0986  0.0846
   35BDD     C114846   4.642   8.495  -0.567 -0.0564 -0.1959  0.0348
   35BDD     C214847   4.717   8.596  -0.513 -0.0591 -0.2236  0.0901
   35BDD     C314848   4.680   8.728  -0.563 -0.0652 -0.1967  0.1645
   35BDD     C414849   4.579   8.725  -0.654 -0.0670 -0.1492  0.1648
   35BDD     S114850   4.521   8.558  -0.684 -0.0612 -0.1347  0.0722
   35BDD     C514851   4.824   8.576  -0.413 -0.0564 -0.2754  0.0765
   35BDD     C614852   4.748   8.851  -0.518 -0.0693 -0.2189  0.2327
   35BDD     O114853   4.717   8.965  -0.561 -0.0744 -0.1960  0.2968
   35BDD     O214854   4.855   8.462  -0.370 -0.0513 -0.2985  0.0124
   35BDD     C714855   4.856   8.830  -0.419 -0.0665 -0.2708  0.2186
   35BDD     C814856   4.892   8.699  -0.369 -0.0604 -0.2978  0.1442
   35BDD     C914857   4.994   8.702  -0.277 -0.0587 -0.3450  0.1438
   35BDD     S214858   5.051   8.869  -0.248 -0.0645 -0.3596  0.2365
   35BDD    C1014859   4.930   8.931  -0.364 -0.0693 -0.2980  0.2739
   35BDD    C1114860   4.936   9.081  -0.381  0.4868  0.2466  0.8322
   35BDD    C1214861   5.061   9.148  -0.431 -0.0916  0.4952  1.1015
   35BDD    C1314862   5.064   9.298  -0.404  0.0914 -0.4428  0.7396
   35BDD    C1414863   4.967   9.392  -0.475 -0.3722 -0.3211 -1.0659
   35BDD    C1514864   5.017   9.530  -0.436  0.5694 -0.2505  0.1242
   35BDD    C1614865   4.915   9.625  -0.491  0.1544  0.1191  0.2667
   35BDD    C1714866   5.119   9.089  -0.566  0.2623 -0.3179  0.4332
   35BDD    C1814867   5.267   9.137  -0.594  0.8069  0.0279  0.1028
   35BDD    C1914868   5.070   8.605  -0.202  0.2424 -0.4129  0.4562
   35BDD    C2014869   4.993   8.533  -0.092  0.1121  0.1825  0.4838
   35BDD    C2114870   5.076   8.407  -0.056  0.7009 -0.2622 -0.0734
   35BDD    C2214871   5.104   8.301  -0.166 -0.1329 -0.2788  0.2220
   35BDD    C2314872   5.171   8.168  -0.114 -0.3320 -0.2528  0.1844
   35BDD    C2414873   5.198   8.062  -0.228 -0.5528 -0.0661 -0.0597
   35BDD    C2514874   4.935   8.630   0.014 -0.3528 -0.4818 -0.9226
   35BDD    C2614875   4.850   8.564   0.119 -0.6706 -0.1973 -0.3384
   36TPM     C114876   4.642   8.346  -0.564  0.3417 -0.3386 -0.3421
   36TPM     C214877   4.756   8.271  -0.575  0.1813 -0.5338 -0.7288
   36TPM     C314878   4.732   8.133  -0.606 -0.1510 -0.4523 -0.8411
   36TPM     C414879   4.600   8.102  -0.620 -0.2442 -0.1954 -0.5395
   36TPM     S114880   4.494   8.246  -0.593  0.0834 -0.0345 -0.0872
   37BDTP    C114881   4.479   7.504  -0.772 -0.1420 -0.1581  0.2184
   37BDTP    C214882   4.394   7.573  -0.862 -0.0930 -0.0868  0.2263
   37BDTP    C314883   4.382   7.711  -0.863  0.0439 -0.0749  0.2074
   37BDTP    C414884   4.458   7.785  -0.771  0.1369 -0.1359  0.1800
   37BDTP    C514885   4.543   7.716  -0.680  0.0880 -0.2071  0.1724
   37BDTP    C614886   4.555   7.578  -0.679 -0.0489 -0.2190  0.1907
   37BDTP    C714887   4.462   7.929  -0.753  0.2832 -0.1373  0.1575
   37BDTP    C814888   4.546   7.970  -0.655  0.3456 -0.2050  0.1330
   37BDTP    S114889   4.631   7.833  -0.571  0.2278 -0.2767  0.1354
   37BDTP    C914890   4.475   7.360  -0.789 -0.2881 -0.1566  0.2408
   37BDTP   C1014891   4.391   7.318  -0.887 -0.3505 -0.0889  0.2654
   37BDTP    S214892   4.306   7.456  -0.971 -0.2328 -0.0171  0.2627
   38FTM     S114893   4.376   7.790  -1.143 -0.0618 -0.1997  0.4394
   38FTM     C114894   4.217   7.840  -1.209  0.1396 -0.2476 -0.0894
   38FTM     C214895   4.124   7.843  -1.110 -0.1428 -0.0731 -0.3550
   38FTM     C314896   4.170   7.807  -0.979 -0.5240  0.1043 -0.1678
   38FTM     C414897   4.302   7.775  -0.979 -0.5335  0.0643  0.2547
   38FTM     F114898   3.991   7.878  -1.132 -0.0734 -0.0635 -0.7834
   38FTM     C514899   4.204   7.877  -1.353  0.0324 -0.2913  0.6676
   38FTM     C614900   4.316   7.947  -1.438 -0.1849 -0.6318  0.0096
   38FTM     C714901   4.269   7.966  -1.582  0.4035 -0.3544 -0.5684
   38FTM     C814902   4.268   7.842  -1.669 -0.0661  0.3291 -0.2217
   38FTM     C914903   4.264   7.875  -1.812  0.0065  0.7791  0.5833
   38FTM    C1014904   4.280   7.757  -1.902  0.9904 -0.3233 -0.1019
   38FTM    C1114905   4.400   8.062  -1.374  0.3997  0.9249 -0.0974
   38FTM    C1214906   4.526   8.097  -1.446 -0.4707 -0.2005  0.0351
   39FTM     S114907   4.660   7.351  -0.525  0.0141  0.1424 -0.0763
   39FTM     C114908   4.837   7.356  -0.493  0.0083  0.1336 -0.0435
   39FTM     C214909   4.890   7.471  -0.540 -0.0346  0.2807  0.2601
   39FTM     C314910   4.799   7.561  -0.604 -0.0651  0.4061  0.4804
   39FTM     C414911   4.671   7.513  -0.605 -0.0446  0.3535  0.3411
   39FTM     F114912   5.025   7.502  -0.529 -0.0490  0.3103  0.3569
   39FTM     C514913   4.910   7.236  -0.436  0.4123  0.2186 -0.1089
   39FTM     C614914   4.882   7.089  -0.482  0.2889  0.4490  0.4985
   39FTM     C714915   4.961   6.983  -0.398  0.2286 -0.4624  0.6819
   39FTM     C814916   5.115   7.000  -0.397 -0.5266  0.4758 -0.2925
   39FTM     C914917   5.179   6.899  -0.305  0.0297 -0.1021  0.2913
   39FTM    C1014918   5.232   6.784  -0.383 -0.5044  0.4423  0.2106
   39FTM    C1114919   4.858   7.064  -0.628  0.4379 -0.0159 -0.1158
   39FTM    C1214920   4.796   6.930  -0.666 -0.2146  0.3764  0.3936
   40TPM     C114921   4.364   7.186  -0.939  0.3023 -0.0098 -0.2402
   40TPM     C214922   4.318   7.146  -1.061  0.3020 -0.0001 -0.2434
   40TPM     C314923   4.300   7.003  -1.072  0.0223  0.0279 -0.1578
   40TPM     C414924   4.332   6.935  -0.959 -0.1906  0.0396 -0.0899
   40TPM     S114925   4.388   7.046  -0.828 -0.0532  0.0160 -0.1287
   41BDD     C114926   4.211   6.589  -0.811 -0.3803  0.1528 -0.3065
   41BDD     C214927   4.248   6.561  -0.940 -0.3076  0.0769 -0.2692
   41BDD     C314928   4.296   6.677  -1.013 -0.1162  0.0039 -0.2623
   41BDD     C414929   4.294   6.792  -0.939 -0.0460  0.0252 -0.2940
   41BDD     S114930   4.234   6.763  -0.773 -0.2147  0.1382 -0.3352
   41BDD     C514931   4.241   6.427  -1.000 -0.4110  0.0685 -0.2391
   41BDD     C614932   4.340   6.670  -1.154 -0.0100 -0.0843 -0.2241
   41BDD     O114933   4.381   6.770  -1.217  0.1550 -0.1471 -0.2179
   41BDD     O214934   4.200   6.326  -0.937 -0.5759  0.1312 -0.2451
   41BDD     C714935   4.333   6.535  -1.214 -0.1136 -0.0925 -0.1934
   41BDD     C814936   4.286   6.419  -1.141 -0.3049 -0.0196 -0.2007
   41BDD     C914937   4.287   6.304  -1.215 -0.3752 -0.0410 -0.1686
   41BDD     S214938   4.348   6.333  -1.381 -0.2065 -0.1538 -0.1276
   41BDD    C1014939   4.370   6.507  -1.343 -0.0408 -0.1683 -0.1562
   41BDD    C1114940   4.438   6.595  -1.450  0.0928  0.2854  0.3544
   41BDD    C1214941   4.592   6.591  -1.467 -0.4685 -0.1439  1.4309
   41BDD    C1314942   4.649   6.699  -1.570  0.0905 -0.0434  0.3864
   41BDD    C1414943   4.608   6.681  -1.719  0.7093 -0.0211 -0.4032
   41BDD    C1514944   4.626   6.806  -1.800  0.4700  0.2968 -0.2675
   41BDD    C1614945   4.594   6.802  -1.951 -0.2023 -0.0444 -0.1314
   41BDD    C1714946   4.658   6.449  -1.463 -0.6703  0.2824 -0.5802
   41BDD    C1814947   4.814   6.433  -1.464 -0.2866  0.2543 -0.0130
   41BDD    C1914948   4.240   6.164  -1.187  0.2475  0.2633 -0.2692
   41BDD    C2014949   4.086   6.151  -1.207 -0.3218  0.1486 -0.3332
   41BDD    C2114950   4.051   6.162  -1.362  0.4737  0.3322 -0.4310
   41BDD    C2214951   3.900   6.180  -1.396  0.0403  0.1897 -0.2150
   41BDD    C2314952   3.846   6.190  -1.541 -0.3829 -0.2529 -0.4397
   41BDD    C2414953   3.903   6.290  -1.640  0.2595  0.1167  0.5037
   41BDD    C2514954   4.020   6.036  -1.127  0.2009  0.3520  0.1803
   41BDD    C2614955   4.064   5.892  -1.165  0.3766  0.1569  0.4778
   42TPM     C114956   4.164   6.511  -0.697 -0.1564  0.2711 -0.0914
   42TPM     C214957   4.054   6.550  -0.626 -0.2551  0.0054 -0.0958
   42TPM     C314958   4.017   6.458  -0.521  0.0328 -0.0296 -0.0238
   42TPM     C414959   4.099   6.349  -0.513  0.3510  0.2095  0.0363
   42TPM     S114960   4.229   6.354  -0.638  0.3116  0.4997  0.0059
   43BDTP    C114961   4.054   5.864  -0.113 -0.0116 -0.0969 -0.1330
   43BDTP    C214962   4.171   5.831  -0.187  0.0477 -0.1332 -0.0248
   43BDTP    C314963   4.223   5.914  -0.286  0.1549 -0.1570  0.0114
   43BDTP    C414964   4.156   6.035  -0.312  0.2064 -0.1446 -0.0627
   43BDTP    C514965   4.039   6.068  -0.238  0.1473 -0.1084 -0.1712
   43BDTP    C614966   3.987   5.985  -0.139  0.0401 -0.0846 -0.2072
   43BDTP    C714967   4.191   6.137  -0.409  0.3166 -0.1645 -0.0443
   43BDTP    C814968   4.107   6.243  -0.411  0.3430 -0.1450 -0.1326
   43BDTP    S114969   3.971   6.229  -0.290  0.2317 -0.0989 -0.2511
   43BDTP    C914970   4.020   5.762  -0.015 -0.1218 -0.0771 -0.1514
   43BDTP   C1014971   4.104   5.656  -0.013 -0.1481 -0.0966 -0.0634
   43BDTP    S214972   4.239   5.670  -0.134 -0.0368 -0.1426  0.0553
   44FTM     S114973   4.340   5.895  -0.549  0.1959 -0.0100 -0.0752
   44FTM     C114974   4.501   5.814  -0.557  0.2649  0.1101  0.0833
   44FTM     C214975   4.540   5.775  -0.433  0.1384  0.0747  0.1113
   44FTM     C314976   4.448   5.805  -0.326 -0.0160 -0.0448  0.0136
   44FTM     C414977   4.337   5.869  -0.370 -0.0076 -0.1031 -0.0929
   44FTM     F114978   4.659   5.710  -0.408  0.1551  0.1485  0.2272
   44FTM     C514979   4.576   5.829  -0.690 -0.2247 -0.9059  0.1849
   44FTM     C614980   4.641   5.976  -0.720 -0.0215  0.5828  0.1950
   44FTM     C714981   4.756   6.002  -0.629 -0.5581  0.3356 -0.1594
   44FTM     C814982   4.864   5.895  -0.597  0.4397  0.2908  0.0640
   44FTM     C914983   4.949   5.929  -0.479 -0.2139 -0.0517 -1.0825
   44FTM    C1014984   5.059   5.834  -0.442  0.3083 -0.1331  0.3782
   44FTM    C1114985   4.564   6.108  -0.743  0.3352  0.1200  0.2545
   44FTM    C1214986   4.445   6.100  -0.842 -0.2669 -0.8929 -0.1327
   45FTM     S114987   3.711   5.922  -0.074  0.2369 -0.2939  0.1298
   45FTM     C114988   3.630   6.033   0.042 -0.1764 -0.1596 -0.2815
   45FTM     C214989   3.715   6.134   0.077 -0.4272  0.0869 -0.3810
   45FTM     C314990   3.845   6.132   0.016 -0.3161  0.1839 -0.1490
   45FTM     C414991   3.860   6.025  -0.067  0.0312  0.0060  0.1377
   45FTM     F114992   3.679   6.235   0.165 -0.7723  0.2393 -0.6881
   45FTM     C514993   3.485   6.002   0.070  0.5329 -0.0272 -0.0491
   45FTM     C614994   3.386   6.114   0.109 -0.1354  0.5630  0.1329
   45FTM     C714995   3.248   6.054   0.141 -0.1869  0.5368  0.3077
   45FTM     C814996   3.229   5.948   0.250 -0.1294  0.5752  0.1932
   45FTM     C914997   3.076   5.925   0.271  0.4677  0.6296  0.5369
   45FTM    C1014998   3.050   5.815   0.368 -0.2670  0.3245  0.4725
   45FTM    C1114999   3.388   6.240   0.015 -0.0878  0.0691  0.3703
   45FTM    C1215000   3.315   6.368   0.058 -0.2821  0.5202 -0.2038
   46TPM     C115001   4.083   5.542   0.073  0.2987 -0.0548  0.1481
   46TPM     C215002   4.163   5.432   0.071  0.2688 -0.0762  0.1173
   46TPM     C315003   4.120   5.327   0.160  0.1493 -0.1539 -0.0310
   46TPM     C415004   4.007   5.357   0.230  0.0878 -0.1916 -0.1133
   46TPM     S115005   3.945   5.522   0.188  0.1771 -0.1317 -0.0091
   47BDD     C115006   3.899   5.080   0.486 -0.0590 -0.2155 -0.1456
   47BDD     C215007   3.789   5.100   0.406 -0.0980 -0.1490 -0.0760
   47BDD     C315008   3.809   5.201   0.304 -0.1404 -0.0798 -0.0155
   47BDD     C415009   3.934   5.258   0.308 -0.1330 -0.0946 -0.0399
   47BDD     S115010   4.034   5.187   0.439 -0.0725 -0.1961 -0.1403
   47BDD     C515011   3.662   5.026   0.421 -0.0978 -0.1467 -0.0625
   47BDD     C615012   3.705   5.239   0.207 -0.1866 -0.0014  0.0643
   47BDD     O115013   3.722   5.326   0.119 -0.2232  0.0583  0.1164
   47BDD     O215014   3.645   4.938   0.508 -0.0613 -0.2065 -0.1146
   47BDD     C715015   3.577   5.165   0.222 -0.1865  0.0008  0.0778
   47BDD     C815016   3.557   5.063   0.323 -0.1441 -0.0684  0.0173
   47BDD     C915017   3.433   5.007   0.320 -0.1515 -0.0536  0.0417
   47BDD     S215018   3.332   5.077   0.189 -0.2120  0.0479  0.1421
   47BDD    C1015019   3.468   5.184   0.142 -0.2255  0.0675  0.1475
   47BDD    C1115020   3.432   5.281   0.040  0.1337 -0.0669  0.6541
   47BDD    C1215021   3.458   5.267  -0.108  0.1665 -0.8277 -0.1505
   47BDD    C1315022   3.415   5.136  -0.171  0.2133  0.5192  0.3927
   47BDD    C1415023   3.479   5.102  -0.309 -0.2186  0.7949  0.3562
   47BDD    C1515024   3.443   4.972  -0.386 -0.0056  0.0256  0.3413
   47BDD    C1615025   3.301   4.904  -0.366  0.6214 -0.1150  0.5334
   47BDD    C1715026   3.410   5.397  -0.188  0.0053 -0.6373 -0.2927
   47BDD    C1815027   3.490   5.524  -0.148  0.4600 -0.7312 -0.2645
   47BDD    C1915028   3.371   4.904   0.405  0.1787 -0.4384  0.3043
   47BDD    C2015029   3.431   4.765   0.385  0.0632  0.7595  0.0961
   47BDD    C2115030   3.426   4.699   0.247  0.3589 -0.3201  0.1638
   47BDD    C2215031   3.286   4.660   0.181 -0.1564 -0.2282 -0.2864
   47BDD    C2315032   3.297   4.622   0.033 -0.5106 -0.7690  0.1889
   47BDD    C2415033   3.190   4.526  -0.009 -0.0069  0.5645 -0.3233
   47BDD    C2515034   3.376   4.671   0.497  0.7457 -0.7605  0.0681
   47BDD    C2615035   3.400   4.714   0.644 -0.9958  0.4400 -0.3207
   48TPM     C115036   3.929   5.012   0.616 -0.0152 -0.1011 -0.1192
   48TPM     C215037   4.027   5.061   0.697 -0.1686  0.1574 -0.0896
   48TPM     C315038   4.051   4.982   0.814 -0.3093  0.4680  0.1542
   48TPM     C415039   3.972   4.871   0.823 -0.2635  0.4467  0.3106
   48TPM     S115040   3.859   4.859   0.682 -0.0371  0.0292  0.1609
   49BDTP    C115041   4.058   4.441   1.271 -0.0623  0.1898 -0.0296
   49BDTP    C215042   3.931   4.402   1.220 -0.0417  0.0523  0.0222
   49BDTP    C315043   3.869   4.469   1.115 -0.1365 -0.0422  0.0177
   49BDTP    C415044   3.935   4.580   1.059 -0.2575  0.0008 -0.0407
   49BDTP    C515045   4.062   4.618   1.110 -0.2781  0.1382 -0.0925
   49BDTP    C615046   4.124   4.551   1.215 -0.1832  0.2327 -0.0880
   49BDTP    C715047   3.890   4.664   0.950 -0.3703 -0.0786 -0.0566
   49BDTP    C815048   3.976   4.763   0.918 -0.4731 -0.0083 -0.1173
   49BDTP    S115049   4.126   4.764   1.020 -0.4419  0.1682 -0.1626
   49BDTP    C915050   4.102   4.356   1.380  0.0504  0.2692 -0.0136
   49BDTP   C1015051   4.016   4.257   1.412  0.1534  0.1990  0.0469
   49BDTP    S215052   3.866   4.257   1.310  0.1221  0.0223  0.0923
   50FTM     S115053   3.589   4.422   1.179 -0.2562  0.1352 -0.0224
   50FTM     C115054   3.484   4.368   1.042 -0.2221  0.2258 -0.0847
   50FTM     C215055   3.559   4.354   0.929 -0.1312 -0.0190  0.0040
   50FTM     C315056   3.698   4.384   0.942 -0.0837 -0.2856  0.1229
   50FTM     C415057   3.732   4.422   1.068 -0.1401 -0.2437  0.1254
   50FTM     F115058   3.505   4.314   0.808 -0.0857 -0.0162 -0.0173
   50FTM     C515059   3.337   4.337   1.061  0.2136 -1.1325  0.2708
   50FTM     C615060   3.236   4.460   1.050  0.0177 -0.1832 -0.0891
   50FTM     C715061   3.239   4.565   1.161 -0.8669 -0.1508 -0.1759
   50FTM     C815062   3.236   4.533   1.309 -0.0151  0.4652  0.1549
   50FTM     C915063   3.105   4.487   1.379  0.5699  0.4348  0.0144
   50FTM    C1015064   3.129   4.439   1.519  0.0880  0.2980 -0.1860
   50FTM    C1115065   3.205   4.515   0.913  0.2133 -0.0762  0.2496
   50FTM    C1215066   3.148   4.424   0.805  0.2506 -0.7540  0.1798
   51FTM     S115067   4.400   4.577   1.138 -0.2228  0.4404 -0.1450
   51FTM     C115068   4.510   4.644   1.264 -0.0837 -0.1792  0.0685
   51FTM     C215069   4.441   4.667   1.379  0.0267 -0.6707  0.2376
   51FTM     C315070   4.301   4.634   1.375  0.0101 -0.5976  0.2120
   51FTM     C415071   4.262   4.585   1.254 -0.1169 -0.0312  0.0170
   51FTM     F115072   4.499   4.718   1.494  0.1493 -1.2163  0.4256
   51FTM     C515073   4.658   4.650   1.251 -0.1230 -0.2682 -0.5584
   51FTM     C615074   4.728   4.692   1.120 -1.1262 -0.3459 -0.5785
   51FTM     C715075   4.881   4.719   1.137  0.3222 -0.6066 -0.0986
   51FTM     C815076   4.963   4.603   1.199  0.5384  0.2954  0.1062
   51FTM     C915077   5.103   4.660   1.204 -1.0365 -0.3408  0.8101
   51FTM    C1015078   5.202   4.556   1.247  0.5440  0.3542 -0.1251
   51FTM    C1115079   4.673   4.805   1.040 -0.0064  0.1894  0.6573
   51FTM    C1215080   4.663   4.949   1.097  0.0991 -0.4589 -0.0874
   52TPM     C115081   4.031   4.144   1.504 -0.3529  0.3410  0.1122
   52TPM     C215082   3.946   4.042   1.531 -0.5145  0.4925  0.1794
   52TPM     C315083   3.981   3.965   1.648 -0.2720  0.1206 -0.1336
   52TPM     C415084   4.094   4.010   1.710  0.0746 -0.3146 -0.4395
   52TPM     S115085   4.165   4.153   1.625  0.1221 -0.2881 -0.3553
   53BDD     C115086   4.179   3.743   1.989  0.2898 -0.0635  0.0527
   53BDD     C215087   4.296   3.813   1.972  0.2537 -0.0123  0.0118
   53BDD     C315088   4.286   3.919   1.873  0.1647  0.0016  0.0352
   53BDD     C415089   4.162   3.929   1.816  0.1344 -0.0392  0.0937
   53BDD     S115090   4.049   3.806   1.882  0.2152 -0.0978  0.1233
   53BDD     C515091   4.421   3.784   2.046  0.2995  0.0258 -0.0502
   53BDD     C615092   4.400   4.006   1.839  0.1131  0.0550 -0.0012
   53BDD     O115093   4.392   4.098   1.754  0.0365  0.0669  0.0190
   53BDD     O215094   4.429   3.692   2.131  0.3760  0.0138 -0.0704
   53BDD     C715095   4.525   3.978   1.913  0.1589  0.0929 -0.0632
   53BDD     C815096   4.535   3.871   2.012  0.2478  0.0790 -0.0867
   53BDD     C915097   4.658   3.861   2.069  0.2782  0.1199 -0.1450
   53BDD     S215098   4.772   3.984   2.003  0.1975  0.1785 -0.1747
   53BDD    C1015099   4.642   4.047   1.897  0.1229  0.1442 -0.1041
   53BDD    C1115100   4.680   4.161   1.809 -0.4885 -0.2961 -0.0318
   53BDD    C1215101   4.630   4.307   1.830 -0.1602 -0.0425  0.7331
   53BDD    C1315102   4.637   4.361   1.975  0.3650  0.0158 -0.2848
   53BDD    C1415103   4.777   4.387   2.041 -0.0429 -0.0250  0.0312
   53BDD    C1515104   4.788   4.443   2.183  0.7287 -0.8997 -0.7836
   53BDD    C1615105   4.728   4.585   2.211 -0.2490  0.3252  0.2893
   53BDD    C1715106   4.669   4.420   1.729  0.0240  0.1612  0.0880
   53BDD    C1815107   4.664   4.385   1.579  0.0123 -0.0175  0.7552
   53BDD    C1915108   4.721   3.761   2.171  0.0702 -0.2585  0.1408
   53BDD    C2015109   4.734   3.614   2.132  0.4709 -0.4137 -0.1092
   53BDD    C2115110   4.767   3.526   2.250 -0.4447  0.2437  0.9171
   53BDD    C2215111   4.684   3.532   2.371 -0.9055 -0.0418 -1.1228
   53BDD    C2315112   4.541   3.495   2.353  0.3430  0.0567  0.7981
   53BDD    C2415113   4.451   3.542   2.461 -0.5757 -0.1210 -0.0806
   53BDD    C2515114   4.796   3.591   1.991  0.1655  0.6502 -0.2184
   53BDD    C2615115   4.799   3.454   1.925  0.0768 -0.4215 -1.0182
   54TPM     C115116   4.130   3.629   2.064  0.2592  0.0708  0.0954
   54TPM     C215117   4.155   3.603   2.196  0.2608 -0.0939  0.0620
   54TPM     C315118   4.072   3.499   2.251  0.1301 -0.0301 -0.0143
   54TPM     C415119   3.983   3.447   2.162  0.0289  0.1833 -0.0391
   54TPM     S115120   3.997   3.525   2.000  0.0911  0.3212  0.0326
   55BDTP    C115121   3.584   2.968   2.257  0.1011  0.0626  0.0263
   55BDTP    C215122   3.504   3.063   2.187  0.0482  0.0475  0.0656
   55BDTP    C315123   3.554   3.187   2.147  0.0095  0.0503  0.0268
   55BDTP    C415124   3.688   3.217   2.176  0.0232  0.0690 -0.0547
   55BDTP    C515125   3.767   3.122   2.246  0.0761  0.0842 -0.0940
   55BDTP    C615126   3.718   2.998   2.286  0.1149  0.0813 -0.0552
   55BDTP    C715127   3.761   3.339   2.145 -0.0101  0.0754 -0.1072
   55BDTP    C815128   3.889   3.339   2.187  0.0148  0.0945 -0.1831
   55BDTP    S115129   3.936   3.185   2.272  0.0841  0.1069 -0.1988
   55BDTP    C915130   3.511   2.847   2.288  0.1345  0.0561  0.0788
   55BDTP   C1015131   3.382   2.847   2.246  0.1095  0.0372  0.1548
   55BDTP    S215132   3.335   3.000   2.161  0.0403  0.0247  0.1704
   56FTM     S115133   3.473   3.470   2.101 -0.1830 -0.1540  0.1685
   56FTM     C115134   3.374   3.494   1.953 -0.4368 -0.3710  0.3025
   56FTM     C215135   3.343   3.373   1.897 -0.3610 -0.4435  0.4180
   56FTM     C315136   3.394   3.258   1.965 -0.1070 -0.3372  0.4096
   56FTM     C415137   3.466   3.291   2.076  0.0155 -0.1781  0.2835
   56FTM     F115138   3.267   3.360   1.782 -0.5170 -0.6104  0.5382
   56FTM     C515139   3.342   3.638   1.900 -0.9535  0.1947 -0.0806
   56FTM     C615140   3.438   3.758   1.917 -1.2295  0.5489  0.8709
   56FTM     C715141   3.386   3.897   1.875 -0.7433  0.1617  0.1723
   56FTM     C815142   3.253   3.955   1.932  0.1646 -0.4483  0.0115
   56FTM     C915143   3.240   4.102   1.898 -0.2536 -0.0350  0.1006
   56FTM    C1015144   3.100   4.147   1.901 -0.6453 -0.1809  0.5471
   56FTM    C1115145   3.590   3.729   1.880 -0.3015 -0.4613  0.2115
   56FTM    C1215146   3.711   3.804   1.932  0.2235 -0.2574  0.2554
   57FTM     S115147   3.979   2.875   2.311 -0.3492  0.3240  0.2891
   57FTM     C115148   4.006   2.777   2.460 -0.4178 -0.2814 -0.0872
   57FTM     C215149   3.893   2.773   2.534 -0.4475 -0.5688 -0.1462
   57FTM     C315150   3.780   2.844   2.481 -0.4190 -0.3414  0.0918
   57FTM     C415151   3.808   2.904   2.362 -0.3661  0.1358  0.3412
   57FTM     F115152   3.884   2.705   2.655 -0.5018 -1.0550 -0.4193
   57FTM     C515153   4.150   2.724   2.485  0.7041  0.0772  0.4275
   57FTM     C615154   4.224   2.667   2.358  0.4602  0.1974 -0.4335
   57FTM     C715155   4.371   2.655   2.362 -0.5669  0.0410  0.4826
   57FTM     C815156   4.452   2.780   2.379 -0.0833  0.4635 -0.1353
   57FTM     C915157   4.487   2.842   2.247  0.0256 -0.2507  0.1054
   57FTM    C1015158   4.504   2.991   2.259  0.2305  0.2900 -0.1234
   57FTM    C1115159   4.156   2.552   2.279 -0.0477 -0.7127  0.4736
   57FTM    C1215160   4.137   2.416   2.355 -0.2387 -0.7887  0.2641
   58TPM     C115161   3.286   2.746   2.272 -0.2662  0.4695  0.2856
   58TPM     C215162   3.304   2.626   2.334 -0.4357  0.2943  0.0000
   58TPM     C315163   3.182   2.553   2.356 -0.4955  0.2192 -0.5570
   58TPM     C415164   3.071   2.618   2.311 -0.3714  0.3370 -0.6962
   58TPM     S115165   3.112   2.777   2.236 -0.1680  0.5536 -0.1300
   59BDD     C115166   2.756   2.390   2.404  0.0463  0.0127 -0.0584
   59BDD     C215167   2.719   2.456   2.290 -0.0069  0.0107 -0.0422
   59BDD     C315168   2.823   2.542   2.237 -0.0204 -0.0140 -0.1096
   59BDD     C415169   2.938   2.541   2.312  0.0225 -0.0306 -0.1760
   59BDD     S115170   2.923   2.431   2.453  0.0830 -0.0163 -0.1589
   59BDD     C515171   2.587   2.441   2.226 -0.0471  0.0315  0.0356
   59BDD     C615172   2.804   2.622   2.115 -0.0756 -0.0203 -0.1056
   59BDD     O115173   2.894   2.697   2.069 -0.0873 -0.0417 -0.1636
   59BDD     O215174   2.497   2.367   2.272 -0.0355  0.0529  0.0936
   59BDD     C715175   2.672   2.608   2.050 -0.1158  0.0005 -0.0277
   59BDD     C815176   2.568   2.522   2.104 -0.1022  0.0253  0.0396
   59BDD     C915177   2.453   2.523   2.029 -0.1452  0.0419  0.1060
   59BDD     S215178   2.468   2.633   1.888 -0.2056  0.0276  0.0889
   59BDD    C1015179   2.635   2.674   1.936 -0.1689 -0.0014 -0.0116
   59BDD    C1115180   2.694   2.794   1.867  0.0412  0.3785 -0.3077
   59BDD    C1215181   2.730   2.761   1.719  0.1260 -0.7246  0.6826
   59BDD    C1315182   2.801   2.630   1.697 -0.0544  0.1127 -0.5390
   59BDD    C1415183   2.947   2.619   1.740  0.1160 -0.7487 -0.4798
   59BDD    C1515184   3.010   2.482   1.753  0.4403 -0.0343  0.5203
   59BDD    C1615185   3.153   2.494   1.799 -0.5166 -0.2326  0.1836
   59BDD    C1715186   2.772   2.888   1.640 -0.0011  0.0686  0.6785
   59BDD    C1815187   2.771   2.880   1.494  0.0074  0.3218 -0.0265
   59BDD    C1915188   2.312   2.462   2.041 -0.0400  0.5237 -0.2027
   59BDD    C2015189   2.288   2.317   1.999 -0.2051  0.1991 -1.0307
   59BDD    C2115190   2.145   2.275   2.036  0.3015  0.1090 -0.1116
   59BDD    C2215191   2.110   2.127   2.041 -0.0787  0.2737  1.1701
   59BDD    C2315192   2.154   2.048   2.158  0.1171  0.2272 -0.3531
   59BDD    C2415193   2.295   1.987   2.140 -0.0883 -0.4524 -0.3731
   59BDD    C2515194   2.343   2.272   1.860  0.4508 -0.1087  0.1337
   59BDD    C2615195   2.293   2.348   1.736  0.1287  0.3302  0.5356
   60TPM     C115196   2.702   2.278   2.492 -0.6213 -0.4232 -0.0153
   60TPM     C215197   2.571   2.260   2.525 -0.5282 -0.5535  0.2961
   60TPM     C315198   2.550   2.166   2.632 -0.1768 -0.5234  0.3923
   60TPM     C415199   2.666   2.113   2.682 -0.0020 -0.3701  0.1543
   60TPM     S115200   2.810   2.178   2.596 -0.2695 -0.2509 -0.2126
    1BDTP    C115201   8.472   6.440   2.422 -0.0877 -0.2087 -0.0708
    1BDTP    C215202   8.345   6.505   2.421 -0.0601 -0.1557 -0.0699
    1BDTP    C315203   8.332   6.642   2.406 -0.0060 -0.1566 -0.1277
    1BDTP    C415204   8.449   6.719   2.391  0.0229 -0.2128 -0.1893
    1BDTP    C515205   8.575   6.654   2.391 -0.0048 -0.2660 -0.1903
    1BDTP    C615206   8.589   6.516   2.406 -0.0590 -0.2652 -0.1325
    1BDTP    C715207   8.460   6.862   2.373  0.0793 -0.2249 -0.2555
    1BDTP    C815208   8.587   6.907   2.361  0.0954 -0.2842 -0.3055
    1BDTP    S115209   8.711   6.774   2.369  0.0412 -0.3326 -0.2758
    1BDTP    C915210   8.461   6.296   2.439 -0.1442 -0.1966 -0.0046
    1BDTP   C1015211   8.333   6.251   2.451 -0.1605 -0.1376  0.0454
    1BDTP    S215212   8.210   6.384   2.443 -0.1059 -0.0891  0.0156
    2FTM     S115213   8.075   6.664   2.284 -0.1954 -0.0386 -0.3992
    2FTM     C115214   7.956   6.756   2.383  0.0353 -0.2197  0.0553
    2FTM     C215215   8.013   6.798   2.498  0.3645 -0.2681 -0.0892
    2FTM     C315216   8.151   6.762   2.517  0.4554 -0.1699 -0.5509
    2FTM     C415217   8.200   6.691   2.412  0.1865 -0.0421 -0.7671
    2FTM     F115218   7.945   6.871   2.594  0.6034 -0.4042  0.1881
    2FTM     C515219   7.812   6.767   2.341 -1.1202 -0.6751 -0.1516
    2FTM     C615220   7.725   6.649   2.375 -0.7401  0.0209  0.9183
    2FTM     C715221   7.753   6.523   2.296 -0.2499 -0.4369  0.2075
    2FTM     C815222   7.708   6.392   2.349 -0.6909  0.0129  0.1252
    2FTM     C915223   7.785   6.354   2.474 -0.0383  0.4253  0.2488
    2FTM    C1015224   7.764   6.216   2.525  0.3307 -0.3210 -0.5187
    2FTM    C1115225   7.579   6.677   2.378  0.2392  0.3930 -0.0531
    2FTM    C1215226   7.537   6.765   2.494  0.1072 -0.2377 -0.5688
    3FTM     S115227   8.818   6.349   2.483 -0.1323 -0.0637 -0.0642
    3FTM     C115228   8.937   6.323   2.351  0.0826  0.2754  0.0598
    3FTM     C215229   8.899   6.392   2.240  0.1440  0.3809  0.1041
    3FTM     C315230   8.778   6.468   2.251  0.0300  0.2086  0.0457
    3FTM     C415231   8.721   6.456   2.374 -0.1231 -0.0368 -0.0463
    3FTM     F115232   8.972   6.391   2.122  0.3068  0.6396  0.2001
    3FTM     C515233   9.039   6.210   2.379 -0.3021 -0.1933  1.2431
    3FTM     C615234   9.180   6.253   2.425 -0.3727  0.7734 -0.1239
    3FTM     C715235   9.181   6.311   2.573 -0.4042  0.4535  0.2791
    3FTM     C815236   9.119   6.233   2.682 -0.0989  0.3866 -0.3342
    3FTM     C915237   9.129   6.303   2.814 -0.0217  0.0533 -0.4074
    3FTM    C1015238   9.059   6.210   2.918 -0.1409 -0.1249  0.1370
    3FTM    C1115239   9.274   6.337   2.330  0.6488 -0.5123 -0.7526
    3FTM    C1215240   9.281   6.287   2.187 -0.5293 -0.1434  0.1740
    4TPM     C115241   8.303   6.112   2.481 -0.4380 -0.0157  0.5098
    4TPM     C215242   8.192   6.039   2.450 -0.6063 -0.0062  1.0705
    4TPM     C315243   8.199   5.901   2.490 -0.4182 -0.0038  1.0446
    4TPM     C415244   8.316   5.869   2.552 -0.1064 -0.0117  0.4641
    4TPM     S115245   8.427   6.011   2.564 -0.0256 -0.0223 -0.0992
    5BDD     C115246   8.399   5.488   2.604 -0.2294 -0.0313 -0.0357
    5BDD     C215247   8.378   5.540   2.729 -0.1683  0.0192 -0.0470
    5BDD     C315248   8.347   5.682   2.727 -0.0298  0.0501 -0.0792
    5BDD     C415249   8.344   5.736   2.602  0.0129  0.0227 -0.0921
    5BDD     S115250   8.380   5.613   2.476 -0.1173 -0.0439 -0.0648
    5BDD     C515251   8.387   5.462   2.854 -0.2356  0.0412 -0.0286
    5BDD     C615252   8.321   5.759   2.851  0.0551  0.1057 -0.0961
    5BDD     O115253   8.294   5.881   2.850  0.1745  0.1322 -0.1239
    5BDD     O215254   8.414   5.340   2.855 -0.3550  0.0148 -0.0007
    5BDD     C715255   8.330   5.681   2.976 -0.0117  0.1277 -0.0775
    5BDD     C815256   8.362   5.539   2.977 -0.1502  0.0969 -0.0453
    5BDD     C915257   8.365   5.486   3.103 -0.1929  0.1243 -0.0324
    5BDD     S215258   8.329   5.609   3.228 -0.0628  0.1907 -0.0598
    5BDD    C1015259   8.310   5.733   3.101  0.0494  0.1781 -0.0888
    5BDD    C1115260   8.268   5.878   3.142 -0.8368  1.6992 -0.0567
    5BDD    C1215261   8.133   5.898   3.206 -0.2917  0.1437 -0.5006
    5BDD    C1315262   8.014   5.833   3.128  0.4302 -0.6547 -0.2079
    5BDD    C1415263   7.987   5.867   2.984 -0.0675  0.6695  0.1089
    5BDD    C1515264   8.000   6.006   2.926 -0.5541 -0.6023 -0.2798
    5BDD    C1615265   7.982   6.013   2.775 -0.0745 -0.6827 -0.3082
    5BDD    C1715266   8.109   6.040   3.262 -0.0312  0.9615  0.0028
    5BDD    C1815267   8.212   6.116   3.343  0.0489 -0.2823  0.6411
    5BDD    C1915268   8.396   5.350   3.158 -0.8279 -0.4312 -0.7510
    5BDD    C2015269   8.524   5.333   3.245 -0.2328 -0.2017  0.2892
    5BDD    C2115270   8.653   5.387   3.164 -0.8646  0.0266 -0.0591
    5BDD    C2215271   8.702   5.314   3.040 -0.3031  0.2082 -0.2463
    5BDD    C2315272   8.797   5.401   2.968  0.0502 -0.2355  0.7553
    5BDD    C2415273   8.805   5.364   2.825 -0.1829  0.5315  0.9719
    5BDD    C2515274   8.549   5.199   3.313  0.0826  0.2597 -0.5611
    5BDD    C2615275   8.439   5.125   3.383  0.2180  0.0213  0.6654
    6TPM     C115276   8.430   5.363   2.546 -0.4522  0.1885 -0.0675
    6TPM     C215277   8.366   5.249   2.585 -0.5896  0.2272 -0.1765
    6TPM     C315278   8.370   5.144   2.486 -0.4549  0.2137 -0.1575
    6TPM     C415279   8.437   5.178   2.372 -0.2152  0.1646 -0.0338
    6TPM     S115280   8.500   5.347   2.381 -0.1400  0.1315  0.0689
    7BDTP    C115281   8.597   4.888   1.842 -0.3083  0.1814  0.1343
    7BDTP    C215282   8.489   4.808   1.889 -0.1383  0.0114  0.2349
    7BDTP    C315283   8.422   4.835   2.007 -0.0942 -0.0745  0.2800
    7BDTP    C415284   8.462   4.946   2.083 -0.2236  0.0111  0.2235
    7BDTP    C515285   8.570   5.027   2.035 -0.3936  0.1811  0.1227
    7BDTP    C615286   8.637   5.000   1.917 -0.4378  0.2671  0.0777
    7BDTP    C715287   8.407   4.994   2.208 -0.2083 -0.0519  0.2541
    7BDTP    C815288   8.468   5.105   2.256 -0.3572  0.0614  0.1822
    7BDTP    S115289   8.603   5.165   2.150 -0.5374  0.2635  0.0656
    7BDTP    C915290   8.652   4.840   1.716 -0.3238  0.2444  0.1038
    7BDTP   C1015291   8.591   4.729   1.668 -0.1748  0.1311  0.1756
    7BDTP    S215292   8.456   4.670   1.774  0.0052 -0.0710  0.2921
    8FTM     S115293   8.284   4.687   2.215  0.2953 -0.2515  0.0602
    8FTM     C115294   8.133   4.604   2.163  0.1886 -0.0786  0.0917
    8FTM     C215295   8.116   4.619   2.028  0.0281  0.1822  0.1395
    8FTM     C315296   8.217   4.694   1.960 -0.0210  0.2615  0.1542
    8FTM     C415297   8.315   4.738   2.045  0.1063  0.0548  0.1165
    8FTM     F115298   8.008   4.565   1.960 -0.0842  0.3644  0.1729
    8FTM     C515299   8.046   4.554   2.277 -0.3162 -0.2276  0.5189
    8FTM     C615300   7.952   4.424   2.278  0.0767 -1.4558 -0.6373
    8FTM     C715301   7.836   4.419   2.176 -0.2097 -0.6099  0.3894
    8FTM     C815302   7.725   4.522   2.178  0.2260 -0.5281 -0.0424
    8FTM     C915303   7.652   4.527   2.317 -0.5863  0.3729  0.2328
    8FTM    C1015304   7.552   4.632   2.324 -0.2547 -0.0753  0.0266
    8FTM    C1115305   8.012   4.286   2.288  0.0590  0.0843  0.3259
    8FTM    C1215306   8.108   4.246   2.394 -0.4868  0.0814  0.1629
    9FTM     S115307   8.881   5.109   2.019  0.2056  0.1484  0.0915
    9FTM     C115308   8.982   5.200   1.901  0.2150  0.1504  0.1013
    9FTM     C215309   8.922   5.201   1.779  0.1655  0.2574  0.1262
    9FTM     C315310   8.797   5.132   1.770  0.1178  0.3421  0.1390
    9FTM     C415311   8.760   5.077   1.889  0.1319  0.2990  0.1232
    9FTM     F115312   8.977   5.264   1.668  0.1597  0.2849  0.1390
    9FTM     C515313   9.102   5.264   1.963  0.4818 -0.1943 -0.0680
    9FTM     C615314   9.200   5.351   1.880  0.7331 -0.7040  0.1696
    9FTM     C715315   9.124   5.484   1.849 -0.3520 -0.6744  0.2404
    9FTM     C815316   9.145   5.579   1.962  0.1037  0.1158 -0.2284
    9FTM     C915317   9.063   5.705   1.934 -0.8135 -0.3246 -0.8279
    9FTM    C1015318   9.103   5.808   2.042  0.3983  0.1467  0.1837
    9FTM    C1115319   9.292   5.299   1.767  0.4412 -0.1758  0.0986
    9FTM    C1215320   9.371   5.175   1.800  0.8157  0.9671 -0.2412
   10TPM     C115321   8.614   4.680   1.531 -0.1643  0.4786 -0.2176
   10TPM     C215322   8.538   4.597   1.454 -0.1934  0.3358 -0.0376
   10TPM     C315323   8.591   4.578   1.321 -0.0563 -0.1829  0.0874
   10TPM     C415324   8.706   4.646   1.297  0.0769 -0.4353  0.0027
   10TPM     S115325   8.758   4.741   1.442  0.0396 -0.0349 -0.2434
   11BDD     C115326   8.736   4.745   0.919 -0.1766 -0.0038 -0.0006
   11BDD     C215327   8.864   4.736   0.964 -0.1755  0.0043 -0.0025
   11BDD     C315328   8.874   4.701   1.105 -0.1726  0.0613  0.0118
   11BDD     C415329   8.752   4.683   1.165 -0.1716  0.0959  0.0243
   11BDD     S115330   8.617   4.709   1.049 -0.1743  0.0595  0.0191
   11BDD     C515331   8.983   4.761   0.880 -0.1769 -0.0402 -0.0175
   11BDD     C615332   9.003   4.686   1.174 -0.1709  0.0793  0.0125
   11BDD     O115333   9.012   4.656   1.296 -0.1683  0.1285  0.0248
   11BDD     O215334   8.975   4.792   0.759 -0.1793 -0.0894 -0.0298
   11BDD     C715335   9.122   4.711   1.090 -0.1724  0.0349 -0.0025
   11BDD     C815336   9.113   4.746   0.950 -0.1752 -0.0221 -0.0167
   11BDD     C915337   9.234   4.765   0.890 -0.1762 -0.0566 -0.0293
   11BDD     S215338   9.369   4.739   1.005 -0.1736 -0.0204 -0.0241
   11BDD    C1015339   9.251   4.702   1.135 -0.1712  0.0430 -0.0043
   11BDD    C1115340   9.325   4.699   1.265 -0.3034  0.2055 -1.0348
   11BDD    C1215341   9.415   4.815   1.324  0.5867 -0.1989  0.2681
   11BDD    C1315342   9.528   4.784   1.424 -0.0720  0.6421 -0.6352
   11BDD    C1415343   9.494   4.717   1.555  0.3636  0.5599  0.1388
   11BDD    C1515344   9.620   4.724   1.636 -1.1091  0.4528 -0.1639
   11BDD    C1615345   9.598   4.719   1.786  0.2744 -0.2295  0.1065
   11BDD    C1715346   9.331   4.936   1.361  0.2351  0.3592 -0.3286
   11BDD    C1815347   9.393   5.062   1.403 -0.3776  0.2400  0.0715
   11BDD    C1915348   9.285   4.802   0.755 -0.6501 -0.2114  0.1580
   11BDD    C2015349   9.384   4.700   0.694 -0.6761 -0.4329  0.3247
   11BDD    C2115350   9.332   4.564   0.667  0.7419  0.6112  0.8228
   11BDD    C2215351   9.443   4.447   0.668  0.3724 -0.4201 -0.7204
   11BDD    C2315352   9.366   4.317   0.638 -0.2266 -0.4094  0.3185
   11BDD    C2415353   9.452   4.194   0.668  0.2302  0.2423  0.8615
   11BDD    C2515354   9.478   4.760   0.589 -0.2669 -0.1056 -0.1898
   11BDD    C2615355   9.567   4.877   0.634 -0.5515  0.9231  0.7067
   12TPM     C115356   8.664   4.768   0.794 -0.1767 -0.1010  0.0035
   12TPM     C215357   8.553   4.696   0.760 -0.1657 -0.0877 -0.0594
   12TPM     C315358   8.506   4.723   0.626 -0.0656 -0.1094 -0.0995
   12TPM     C415359   8.581   4.815   0.559  0.0003 -0.1390 -0.0671
   12TPM     S115360   8.718   4.875   0.660 -0.0600 -0.1420  0.0172
   13BDTP    C115361   8.337   5.015   0.017  0.1712  0.0806 -0.0616
   13BDTP    C215362   8.468   5.070   0.012  0.2148 -0.0231 -0.0617
   13BDTP    C315363   8.562   5.051   0.113  0.2224 -0.1527 -0.0927
   13BDTP    C415364   8.524   4.974   0.224  0.1848 -0.1816 -0.1253
   13BDTP    C515365   8.393   4.918   0.230  0.1411 -0.0778 -0.1252
   13BDTP    C615366   8.300   4.937   0.129  0.1337  0.0517 -0.0941
   13BDTP    C715367   8.604   4.941   0.341  0.1843 -0.3082 -0.1607
   13BDTP    C815368   8.540   4.864   0.432  0.1428 -0.3043 -0.1870
   13BDTP    S115369   8.370   4.823   0.383  0.0982 -0.1402 -0.1704
   13BDTP    C915370   8.257   5.048  -0.099  0.1714  0.2071 -0.0262
   13BDTP   C1015371   8.322   5.125  -0.190  0.2134  0.2036  0.0002
   13BDTP    S215372   8.492   5.166  -0.142  0.2576  0.0392 -0.0165
   14FTM     S115373   8.807   5.101  -0.043  0.2167  0.2672 -0.2155
   14FTM     C115374   8.904   5.237   0.023  0.1169  0.1625  0.1508
   14FTM     C215375   8.852   5.277   0.143  0.0188 -0.1197  0.2043
   14FTM     C315376   8.737   5.206   0.189  0.0160 -0.2681 -0.0308
   14FTM     C415377   8.699   5.108   0.102  0.1146 -0.0939 -0.2722
   14FTM     F115378   8.907   5.381   0.217 -0.0737 -0.2604  0.4694
   14FTM     C515379   9.033   5.269  -0.039  0.1660  0.4047  0.7835
   14FTM     C615380   9.033   5.385  -0.144  0.4530 -0.1877 -0.4700
   14FTM     C715381   9.031   5.524  -0.079  0.5440 -0.5792  0.3716
   14FTM     C815382   9.142   5.570   0.024  0.6651  0.5909 -0.2197
   14FTM     C915383   9.273   5.586  -0.050 -0.7146 -0.1251 -0.1788
   14FTM    C1015384   9.394   5.548   0.031 -0.5671  0.1763 -0.2384
   14FTM    C1115385   8.938   5.365  -0.265 -0.6799  0.5215 -0.0955
   14FTM    C1215386   8.964   5.231  -0.336  0.6616 -0.3775 -0.9450
   15FTM     S115387   8.143   4.700   0.138 -0.2798  0.0119  0.3076
   15FTM     C115388   7.965   4.727   0.151 -0.2512  0.2885  0.1209
   15FTM     C215389   7.939   4.861   0.154 -0.0615  0.3330 -0.0918
   15FTM     C315390   8.053   4.948   0.148  0.0701  0.1588 -0.1218
   15FTM     C415391   8.170   4.878   0.139 -0.0217 -0.0249  0.0743
   15FTM     F115392   7.811   4.912   0.164  0.0042  0.5339 -0.2719
   15FTM     C515393   7.878   4.599   0.155 -0.0990 -0.9211 -0.3854
   15FTM     C615394   7.836   4.534   0.022  0.1697 -0.0968 -0.1593
   15FTM     C715395   7.940   4.462  -0.059 -0.7667 -0.5988  0.2485
   15FTM     C815396   7.973   4.318  -0.013  0.4418 -0.1924  0.1602
   15FTM     C915397   7.861   4.219   0.002  0.4702 -0.0248 -0.1071
   15FTM    C1015398   7.917   4.080   0.036  0.5248  0.2628  0.0327
   15FTM    C1115399   7.738   4.605  -0.075 -0.3390 -0.1057 -0.1960
   15FTM    C1215400   7.612   4.680  -0.022 -0.4981  0.2332 -0.1912
   16TPM     C115401   8.288   5.159  -0.327  0.0211  0.1759 -0.2241
   16TPM     C215402   8.365   5.131  -0.437 -0.1233  0.3675 -0.3746
   16TPM     C315403   8.302   5.167  -0.561 -0.2718  0.6241 -0.2277
   16TPM     C415404   8.178   5.222  -0.547 -0.2398  0.6282  0.0346
   16TPM     S115405   8.131   5.233  -0.373 -0.0187  0.3059  0.1171
   17BDD     C115406   7.964   5.219  -0.872 -0.1433  0.1203 -0.2008
   17BDD     C215407   7.986   5.351  -0.843 -0.1055  0.1012 -0.1416
   17BDD     C315408   8.060   5.371  -0.720 -0.0157  0.0218 -0.1822
   17BDD     C415409   8.094   5.255  -0.656  0.0137 -0.0187 -0.2721
   17BDD     S115410   8.036   5.111  -0.747 -0.0691  0.0402 -0.3119
   17BDD     C515411   7.939   5.463  -0.927 -0.1504  0.1551 -0.0453
   17BDD     C615412   8.095   5.506  -0.669  0.0377 -0.0113 -0.1302
   17BDD     O115413   8.159   5.524  -0.563  0.1152 -0.0798 -0.1650
   17BDD     O215414   7.875   5.445  -1.033 -0.2278  0.2236 -0.0103
   17BDD     C715415   8.048   5.618  -0.753 -0.0072  0.0427 -0.0339
   17BDD     C815416   7.973   5.597  -0.876 -0.0970  0.1222  0.0067
   17BDD     C915417   7.939   5.714  -0.939 -0.1264  0.1622  0.0966
   17BDD     S215418   7.998   5.857  -0.849 -0.0434  0.1035  0.1365
   17BDD    C1015419   8.069   5.750  -0.724  0.0308  0.0235  0.0257
   17BDD    C1115420   8.146   5.820  -0.611  0.3239  0.9706 -0.1562
   17BDD    C1215421   8.295   5.804  -0.600 -0.5464  0.1447  0.2875
   17BDD    C1315422   8.365   5.856  -0.476 -0.1117 -0.5218 -0.2025
   17BDD    C1415423   8.322   5.813  -0.333 -0.5060 -0.6414 -0.3994
   17BDD    C1515424   8.302   5.670  -0.301  0.3384  0.2229  0.0248
   17BDD    C1615425   8.431   5.592  -0.326  0.3810 -0.4832 -0.4869
   17BDD    C1715426   8.388   5.832  -0.726 -0.0255 -0.3244 -0.7770
   17BDD    C1815427   8.394   5.972  -0.791  0.6101 -0.1793  0.5331
   17BDD    C1915428   7.857   5.743  -1.066 -0.2652 -0.0890 -0.1598
   17BDD    C2015429   7.708   5.790  -1.046  0.1246  0.3579  0.0104
   17BDD    C2115430   7.610   5.685  -0.999  0.0079  0.4597  0.0474
   17BDD    C2215431   7.573   5.569  -1.089  0.0019 -0.4739  0.1518
   17BDD    C2315432   7.452   5.489  -1.028  0.8380  0.5033 -0.1560
   17BDD    C2415433   7.381   5.387  -1.116  0.4493  0.5553 -0.2298
   17BDD    C2515434   7.674   5.919  -0.975  0.1145  0.1909  0.5625
   17BDD    C2615435   7.726   6.053  -1.030 -0.2503 -0.0721  0.7266
   18TPM     C115436   7.892   5.137  -0.967 -0.3857 -0.1167 -0.4925
   18TPM     C215437   7.785   5.183  -1.039 -0.1202 -0.2000 -0.9453
   18TPM     C315438   7.709   5.078  -1.102 -0.0790 -0.2980 -0.8326
   18TPM     C415439   7.757   4.953  -1.078 -0.3131 -0.2891 -0.2938
   18TPM     S115440   7.904   4.957  -0.973 -0.6060 -0.1555  0.1154
   19BDTP    C115441   7.424   4.458  -1.268 -0.0010  0.1254  0.2320
   19BDTP    C215442   7.540   4.397  -1.211  0.1082  0.1212  0.0098
   19BDTP    C315443   7.641   4.470  -1.151  0.2077  0.1147 -0.1490
   19BDTP    C415444   7.629   4.610  -1.147  0.1991  0.1122 -0.0861
   19BDTP    C515445   7.513   4.672  -1.204  0.0898  0.1163  0.1361
   19BDTP    C615446   7.412   4.598  -1.264 -0.0095  0.1228  0.2954
   19BDTP    C715447   7.721   4.707  -1.090  0.2897  0.1056 -0.2214
   19BDTP    C815448   7.681   4.836  -1.102  0.2544  0.1048 -0.1125
   19BDTP    S115449   7.521   4.853  -1.186  0.1012  0.1121  0.1767
   19BDTP    C915450   7.332   4.362  -1.325 -0.0917  0.1320  0.3674
   19BDTP   C1015451   7.372   4.233  -1.313 -0.0563  0.1329  0.2584
   19BDTP    S215452   7.532   4.216  -1.229  0.0969  0.1254 -0.0306
   20FTM     S115453   7.692   4.261  -0.947 -0.0428 -0.1704 -0.5192
   20FTM     C115454   7.867   4.225  -0.922 -0.0555  0.2420  0.2515
   20FTM     C215455   7.943   4.310  -0.996  0.0870  0.5872  0.7813
   20FTM     C315456   7.872   4.406  -1.075  0.2124  0.5528  0.6244
   20FTM     C415457   7.737   4.395  -1.060  0.1637  0.1687 -0.0477
   20FTM     F115458   8.081   4.305  -0.997  0.1128  0.9550  1.4403
   20FTM     C515459   7.925   4.104  -0.850  0.8528 -0.5286 -0.7447
   20FTM     C615460   7.854   3.965  -0.873 -0.2877 -0.6807 -0.1073
   20FTM     C715461   7.916   3.854  -0.801 -0.2180 -0.5951 -0.3752
   20FTM     C815462   7.878   3.832  -0.653  0.0244 -0.2605 -0.0961
   20FTM     C915463   7.944   3.713  -0.592 -0.4802 -0.0510 -0.4749
   20FTM    C1015464   7.949   3.729  -0.443 -0.3718  0.3784  0.4760
   20FTM    C1115465   7.786   3.929  -1.011  0.2934  0.3317  0.6451
   20FTM    C1215466   7.876   3.913  -1.133  0.3426 -0.3789  0.5016
   21FTM     S115467   7.161   4.737  -1.222 -0.1199  0.0578  0.0716
   21FTM     C115468   7.089   4.813  -1.369 -0.0291 -0.3445 -0.1860
   21FTM     C215469   7.164   4.784  -1.478  0.2735 -0.3045  0.0091
   21FTM     C315470   7.279   4.701  -1.455  0.4491  0.0336  0.3624
   21FTM     C415471   7.293   4.667  -1.324  0.2751  0.2595  0.4402
   21FTM     F115472   7.133   4.829  -1.605  0.4095 -0.5714 -0.1204
   21FTM     C515473   6.976   4.910  -1.364 -0.3580  0.1339  0.5743
   21FTM     C615474   6.983   5.062  -1.360 -0.4625  0.0528 -0.0090
   21FTM     C715475   6.862   5.150  -1.375  0.2429 -0.1437 -0.0828
   21FTM     C815476   6.720   5.128  -1.323  0.1405 -0.4263 -0.2247
   21FTM     C915477   6.646   5.003  -1.373 -0.1474 -0.4260  0.5009
   21FTM    C1015478   6.637   4.981  -1.528  0.5119  0.0207 -0.5581
   21FTM    C1115479   7.091   5.133  -1.273 -0.6503  0.2123  0.4096
   21FTM    C1215480   7.075   5.127  -1.121 -0.3272 -0.2876  0.4723
   22TPM     C115481   7.293   4.117  -1.335 -0.2087 -0.1009  0.1050
   22TPM     C215482   7.333   4.006  -1.403 -0.2038  0.0032 -0.0632
   22TPM     C315483   7.228   3.909  -1.423 -0.2500  0.1159 -0.3850
   22TPM     C415484   7.108   3.947  -1.370 -0.2900  0.0977 -0.4625
   22TPM     S115485   7.119   4.109  -1.290 -0.2724 -0.0642 -0.1315
   23BDD     C115486   6.874   3.642  -1.431  0.1295  0.1001 -0.2428
   23BDD     C215487   6.792   3.751  -1.429  0.1347  0.1025 -0.1545
   23BDD     C315488   6.861   3.875  -1.401  0.1276  0.0662  0.0300
   23BDD     C415489   6.996   3.859  -1.383  0.1170  0.0368  0.0804
   23BDD     S115490   7.044   3.687  -1.398  0.1154  0.0523 -0.1004
   23BDD     C515491   6.646   3.745  -1.452  0.1464  0.1382 -0.2372
   23BDD     C615492   6.792   4.006  -1.394  0.1312  0.0620  0.1500
   23BDD     O115493   6.852   4.113  -1.371  0.1249  0.0308  0.3097
   23BDD     O215494   6.585   3.638  -1.476  0.1526  0.1694 -0.3965
   23BDD     C715495   6.646   4.000  -1.418  0.1426  0.0978  0.0682
   23BDD     C815496   6.576   3.875  -1.445  0.1498  0.1340 -0.1168
   23BDD     C915497   6.442   3.892  -1.464  0.1603  0.1635 -0.1671
   23BDD     S215498   6.394   4.064  -1.448  0.1619  0.1479  0.0134
   23BDD    C1015499   6.564   4.109  -1.416  0.1477  0.1000  0.1559
   23BDD    C1115500   6.580   4.256  -1.395  0.2396 -0.0097 -0.2126
   23BDD    C1215501   6.582   4.344  -1.521  0.2336  0.4622 -0.3220
   23BDD    C1315502   6.694   4.325  -1.620 -0.6331  0.2892  0.3589
   23BDD    C1415503   6.832   4.389  -1.589 -0.1045 -0.2040 -0.1553
   23BDD    C1515504   6.947   4.341  -1.673  0.1921  0.1062 -0.1219
   23BDD    C1615505   7.072   4.345  -1.586  0.2765  0.2713 -0.3335
   23BDD    C1715506   6.564   4.486  -1.467  0.2585  0.0559 -0.2809
   23BDD    C1815507   6.549   4.607  -1.562  0.3594 -0.4302  0.4564
   23BDD    C1915508   6.325   3.800  -1.502 -0.1470  0.0017 -0.3139
   23BDD    C2015509   6.249   3.726  -1.388  0.1506  0.4991 -0.0102
   23BDD    C2115510   6.205   3.805  -1.262  0.3277 -0.0387 -0.6626
   23BDD    C2215511   6.091   3.899  -1.285  0.2496  0.7071 -0.1549
   23BDD    C2315512   6.035   3.970  -1.163 -0.9132  0.5636 -0.0511
   23BDD    C2415513   5.897   4.010  -1.198  0.1189 -0.2038 -0.4183
   23BDD    C2515514   6.147   3.625  -1.444  0.1361  0.0636 -0.4267
   23BDD    C2615515   6.181   3.531  -1.556  0.2900  0.0690  0.1025
   24TPM     C115516   6.859   3.502  -1.456 -0.3667 -0.1389  0.2854
   24TPM     C215517   6.790   3.458  -1.566 -0.1715 -0.0172  0.1118
   24TPM     C315518   6.819   3.322  -1.603 -0.0745  0.0374 -0.0148
   24TPM     C415519   6.910   3.262  -1.522 -0.1953 -0.0427  0.0621
   24TPM     S115520   6.967   3.372  -1.392 -0.4432 -0.1945  0.3024
   25BDTP    C115521   7.185   2.741  -1.738  0.1309 -0.0788  0.0830
   25BDTP    C215522   7.296   2.812  -1.682  0.1631 -0.0643  0.0024
   25BDTP    C315523   7.281   2.935  -1.619  0.2127 -0.0042 -0.1023
   25BDTP    C415524   7.153   2.991  -1.611  0.2316  0.0439 -0.1297
   25BDTP    C515525   7.042   2.920  -1.667  0.1996  0.0294 -0.0494
   25BDTP    C615526   7.057   2.797  -1.730  0.1501 -0.0306  0.0557
   25BDTP    C715527   7.113   3.116  -1.550  0.2815  0.1095 -0.2331
   25BDTP    C815528   6.981   3.143  -1.558  0.2886  0.1448 -0.2341
   25BDTP    S115529   6.887   3.013  -1.643  0.2329  0.0996 -0.1041
   25BDTP    C915530   7.225   2.616  -1.799  0.0811 -0.1445  0.1863
   25BDTP   C1015531   7.357   2.589  -1.791  0.0740 -0.1796  0.1872
   25BDTP    S215532   7.451   2.719  -1.706  0.1296 -0.1345  0.0574
   26FTM     S115533   7.410   3.035  -1.389  0.2244 -0.0277 -0.0033
   26FTM     C115534   7.574   3.106  -1.411  0.1965 -0.0531 -0.2940
   26FTM     C215535   7.607   3.105  -1.543 -0.0393 -0.0539 -0.3545
   26FTM     C315536   7.510   3.050  -1.632 -0.2089 -0.0351 -0.1829
   26FTM     C415537   7.398   3.007  -1.567 -0.0990 -0.0196  0.0161
   26FTM     F115538   7.728   3.154  -1.591 -0.1160 -0.0715 -0.5693
   26FTM     C515539   7.658   3.149  -1.291  0.3272  0.3457  0.5434
   26FTM     C615540   7.763   3.052  -1.236  0.0513 -0.2029 -0.3946
   26FTM     C715541   7.834   3.108  -1.110  0.1316 -0.7047  0.1115
   26FTM     C815542   7.748   3.120  -0.984  0.0301 -0.1057 -0.5186
   26FTM     C915543   7.817   3.120  -0.855 -0.6620 -0.0144  0.4026
   26FTM    C1015544   7.724   3.103  -0.740  0.7296  0.4129  0.1551
   26FTM    C1115545   7.857   2.980  -1.334 -0.1653  0.2598  0.3884
   26FTM    C1215546   7.977   3.044  -1.406 -0.4919  0.5323 -0.4931
   27FTM     S115547   6.901   2.555  -1.728 -0.0097 -0.0892 -0.1346
   27FTM     C115548   6.761   2.556  -1.843 -0.0670  0.1759 -0.0647
   27FTM     C215549   6.758   2.674  -1.910 -0.0523  0.3008  0.1501
   27FTM     C315550   6.861   2.769  -1.878  0.0031  0.2005  0.2702
   27FTM     C415551   6.946   2.722  -1.783  0.0319 -0.0083  0.1433
   27FTM     F115552   6.661   2.703  -2.005 -0.0881  0.5136  0.2506
   27FTM     C515553   6.678   2.434  -1.875 -0.3997  0.8182  0.1395
   27FTM     C615554   6.702   2.370  -2.012  0.4490  0.5601 -0.4003
   27FTM     C715555   6.849   2.337  -2.059  0.3830 -0.3244 -0.0120
   27FTM     C815556   6.924   2.237  -1.976 -0.1831 -0.0382 -0.2886
   27FTM     C915557   7.042   2.166  -2.041  0.2148 -0.5472  0.3612
   27FTM    C1015558   7.120   2.070  -1.948  0.2944  0.1944 -0.2080
   27FTM    C1115559   6.605   2.248  -2.023  0.0897 -0.3555  0.0639
   27FTM    C1215560   6.590   2.185  -2.158  0.1110  0.0680 -0.4397
   28TPM     C115561   7.429   2.476  -1.847 -0.1024 -0.1905 -0.1344
   28TPM     C215562   7.382   2.355  -1.890  0.1299 -0.2902 -0.1087
   28TPM     C315563   7.485   2.267  -1.940  0.2970 -0.0967 -0.1065
   28TPM     C415564   7.610   2.321  -1.936  0.1919  0.1506 -0.1306
   28TPM     S115565   7.608   2.488  -1.867 -0.1284  0.1583 -0.1580
   29BDD     C115566   7.934   2.131  -1.830 -0.0778 -0.0073  0.1520
   29BDD     C215567   7.883   2.059  -1.935 -0.0328  0.0494  0.0913
   29BDD     C315568   7.763   2.118  -1.993  0.0321  0.1181  0.0260
   29BDD     C415569   7.725   2.233  -1.931  0.0358  0.1128  0.0379
   29BDD     S115570   7.835   2.277  -1.796 -0.0420  0.0216  0.1316
   29BDD     C515571   7.943   1.934  -1.986 -0.0477  0.0423  0.0911
   29BDD     C615572   7.692   2.057  -2.107  0.0882  0.1863 -0.0457
   29BDD     O115573   7.589   2.108  -2.156  0.1441  0.2455 -0.1019
   29BDD     O215574   8.046   1.883  -1.937 -0.1032 -0.0169  0.1475
   29BDD     C715575   7.752   1.932  -2.158  0.0733  0.1793 -0.0459
   29BDD     C815576   7.871   1.873  -2.100  0.0083  0.1106  0.0193
   29BDD     C915577   7.910   1.757  -2.162  0.0051  0.1158  0.0074
   29BDD     S215578   7.799   1.714  -2.296  0.0827  0.2070 -0.0864
   29BDD    C1015579   7.701   1.860  -2.263  0.1184  0.2359 -0.1067
   29BDD    C1115580   7.578   1.877  -2.345  0.1798 -0.0916 -0.6023
   29BDD    C1215581   7.462   1.785  -2.302 -0.1399 -0.1964 -0.1725
   29BDD    C1315582   7.343   1.755  -2.393  0.0336 -0.2983 -0.5675
   29BDD    C1415583   7.365   1.747  -2.542 -0.7885 -0.2092  0.1033
   29BDD    C1515584   7.235   1.711  -2.608 -0.1742  0.2099  0.4140
   29BDD    C1615585   7.250   1.726  -2.762  0.0451 -0.7488  0.2680
   29BDD    C1715586   7.440   1.765  -2.148  0.0117  0.2787  0.4282
   29BDD    C1815587   7.340   1.652  -2.105 -0.3686 -0.2466 -0.1370
   29BDD    C1915588   8.026   1.659  -2.133  0.2375 -0.7185 -0.4225
   29BDD    C2015589   8.172   1.708  -2.156 -0.5320  0.5687 -0.3787
   29BDD    C2115590   8.195   1.761  -2.296 -0.7510 -0.3135 -0.6651
   29BDD    C2215591   8.299   1.875  -2.313 -0.4137  0.0547 -0.0805
   29BDD    C2315592   8.282   1.991  -2.226  0.7322  0.1653 -0.2634
   29BDD    C2415593   8.390   2.097  -2.246 -0.0903 -0.0844 -0.3287
   29BDD    C2515594   8.292   1.616  -2.103  1.0233  0.1875  0.0958
   29BDD    C2615595   8.280   1.564  -1.963 -0.9128  0.1110  0.2417
   30TPM     C115596   8.055   2.116  -1.748  0.1618 -0.1782 -0.7547
   30TPM     C215597   8.068   2.009  -1.664  0.0901 -0.5696 -1.2270
   30TPM     C315598   8.196   2.004  -1.598 -0.1681 -0.5472 -0.7155
   30TPM     C415599   8.280   2.106  -1.632 -0.2939 -0.1385  0.1469
   30TPM     S115600   8.203   2.218  -1.751 -0.0936  0.2526  0.3816
   31BDTP    C115601   8.882   2.161  -1.467  0.2894 -0.0045 -0.0598
   31BDTP    C215602   8.860   2.277  -1.547  0.2019 -0.0321 -0.0768
   31BDTP    C315603   8.737   2.308  -1.603  0.1400 -0.0511  0.0479
   31BDTP    C415604   8.630   2.220  -1.580  0.1650 -0.0424  0.1965
   31BDTP    C515605   8.652   2.104  -1.500  0.2525 -0.0147  0.2131
   31BDTP    C615606   8.775   2.073  -1.443  0.3144  0.0042  0.0882
   31BDTP    C715607   8.493   2.230  -1.627  0.1124 -0.0582  0.3426
   31BDTP    C815608   8.413   2.129  -1.588  0.1550 -0.0440  0.4668
   31BDTP    S115609   8.498   2.006  -1.484  0.2687 -0.0086  0.4158
   31BDTP    C915610   9.018   2.151  -1.419  0.3421  0.0113 -0.2060
   31BDTP   C1015611   9.099   2.252  -1.459  0.2990 -0.0029 -0.3302
   31BDTP    S215612   9.014   2.375  -1.562  0.1858 -0.0383 -0.2795
   32FTM     S115613   8.660   2.426  -1.852  0.2646 -0.0466 -0.0916
   32FTM     C115614   8.683   2.604  -1.865 -0.7717  0.1398  0.4392
   32FTM     C215615   8.736   2.652  -1.750 -1.1668  0.1318  0.6293
   32FTM     C315616   8.762   2.556  -1.647 -0.6998 -0.0160  0.3793
   32FTM     C415617   8.727   2.430  -1.685  0.0787 -0.1249 -0.0146
   32FTM     F115618   8.765   2.787  -1.730 -1.9758  0.2582  1.0405
   32FTM     C515619   8.662   2.688  -1.986 -0.2942 -0.4372  0.1646
   32FTM     C615620   8.623   2.614  -2.116 -0.2858 -0.5985  0.4573
   32FTM     C715621   8.740   2.534  -2.186  0.4942 -0.2890  0.3026
   32FTM     C815622   8.854   2.626  -2.238  0.3832 -0.2550  0.1388
   32FTM     C915623   8.978   2.538  -2.260  0.3375 -0.5650 -0.3365
   32FTM    C1015624   9.100   2.627  -2.266 -0.3407  0.2838  0.5301
   32FTM    C1115625   8.497   2.533  -2.112 -0.3414  0.6645  0.7184
   32FTM    C1215626   8.368   2.590  -2.062  1.0129  0.1882 -0.7588
   33FTM     S115627   8.671   1.895  -1.232  0.1652  0.2405  0.0153
   33FTM     C115628   8.778   1.754  -1.197  0.1451  0.2433  0.0890
   33FTM     C215629   8.891   1.763  -1.271  0.1431  0.1852  0.0796
   33FTM     C315630   8.902   1.877  -1.357  0.1569  0.1361  0.0162
   33FTM     C415631   8.793   1.958  -1.349  0.1702  0.1574 -0.0247
   33FTM     F115632   8.993   1.669  -1.266  0.1290  0.1730  0.1283
   33FTM     C515633   8.736   1.654  -1.101 -0.7321  0.1617 -0.3536
   33FTM     C615634   8.661   1.530  -1.159  0.1549  0.2003  0.7816
   33FTM     C715635   8.641   1.414  -1.057 -0.1432 -0.4014 -0.6579
   33FTM     C815636   8.777   1.355  -1.010  0.4359 -0.5204  0.1227
   33FTM     C915637   8.760   1.256  -0.903  0.3766  0.0662 -0.2145
   33FTM    C1015638   8.900   1.213  -0.867  0.0963  0.8299 -0.0959
   33FTM    C1115639   8.541   1.563  -1.257 -0.0139  0.0111  0.7403
   33FTM    C1215640   8.473   1.452  -1.334  0.0344  0.1660 -0.1389
   34TPM     C115641   9.237   2.269  -1.431 -0.2486  0.0871 -0.1412
   34TPM     C215642   9.317   2.176  -1.372 -0.3142  0.0692 -0.0803
   34TPM     C315643   9.455   2.216  -1.362 -0.2949 -0.0008 -0.0615
   34TPM     C415644   9.480   2.340  -1.414 -0.2152 -0.0363 -0.1077
   34TPM     S115645   9.330   2.416  -1.479 -0.1576  0.0164 -0.1795
   35BDD     C115646   9.803   2.460  -1.602 -0.1521  0.1084  0.0969
   35BDD     C215647   9.849   2.408  -1.484 -0.1215  0.0243  0.0477
   35BDD     C315648   9.743   2.355  -1.399 -0.0929 -0.0951  0.0088
   35BDD     C415649   9.619   2.367  -1.453 -0.1022 -0.1002  0.0289
   35BDD     S115650   9.624   2.446  -1.614 -0.1473  0.0440  0.0980
   35BDD     C515651   9.991   2.405  -1.445 -0.1173  0.0505  0.0346
   35BDD     C615652   9.771   2.294  -1.267 -0.0575 -0.1997 -0.0463
   35BDD     O115653   9.680   2.248  -1.194 -0.0329 -0.3027 -0.0796
   35BDD     O215654  10.082   2.450  -1.518 -0.1419  0.1534  0.0679
   35BDD     C715655   9.913   2.291  -1.228 -0.0534 -0.1736 -0.0596
   35BDD     C815656  10.018   2.344  -1.313 -0.0819 -0.0542 -0.0210
   35BDD     C915657  10.143   2.331  -1.259 -0.0726 -0.0491 -0.0410
   35BDD     S215658  10.138   2.253  -1.098 -0.0276 -0.1935 -0.1098
   35BDD    C1015659   9.959   2.239  -1.111 -0.0228 -0.2577 -0.1087
   35BDD    C1115660   9.898   2.179  -0.986 -0.1963  0.3377 -0.1776
   35BDD    C1215661   9.842   2.037  -1.000  0.4139  0.3981 -0.0154
   35BDD    C1315662   9.756   1.973  -0.888 -0.9649  0.5913  0.0235
   35BDD    C1415663   9.654   2.061  -0.826 -0.1187 -0.8800 -0.3517
   35BDD    C1515664   9.557   1.989  -0.741 -0.8031  1.1243  0.2041
   35BDD    C1615665   9.473   2.076  -0.648  0.0300 -0.1856  0.0872
   35BDD    C1715666   9.935   1.940  -1.071 -0.4200 -0.8312 -0.2627
   35BDD    C1815667   9.890   1.816  -1.143 -0.2442  0.2698 -0.3392
   35BDD    C1915668  10.291   2.362  -1.301 -0.4483 -0.9752 -0.3466
   35BDD    C2015669  10.347   2.486  -1.229  0.8307  0.2049 -0.2498
   35BDD    C2115670  10.282   2.614  -1.269  0.0508 -1.0615  0.4836
   35BDD    C2215671  10.306   2.676  -1.409 -0.0295 -0.2864 -0.0630
   35BDD    C2315672  10.268   2.826  -1.402  0.0438  0.0326  0.4056
   35BDD    C2415673  10.326   2.902  -1.512  0.1123  0.0921  0.1120
   35BDD    C2515674  10.498   2.491  -1.205 -0.2254  0.1998 -0.0366
   35BDD    C2615675  10.561   2.391  -1.109  0.3080  0.6083 -0.1987
   36TPM     C115676   9.855   2.535  -1.716 -0.0330  0.1401  0.4305
   36TPM     C215677   9.802   2.507  -1.838 -0.3074 -0.2225  0.6292
   36TPM     C315678   9.875   2.565  -1.948 -0.4854 -0.6413  0.2844
   36TPM     C415679   9.984   2.637  -1.909 -0.3468 -0.5978 -0.1772
   36TPM     S115680  10.003   2.638  -1.730  0.0222 -0.0202 -0.2126
   37BDTP    C115681  10.359   3.062  -2.176 -0.0438  0.0711  0.0255
   37BDTP    C215682  10.365   2.955  -2.270 -0.0472  0.0550  0.0436
   37BDTP    C315683  10.295   2.837  -2.253 -0.0455  0.0573  0.0672
   37BDTP    C415684  10.215   2.822  -2.138 -0.0402  0.0764  0.0733
   37BDTP    C515685  10.209   2.929  -2.044 -0.0367  0.0924  0.0553
   37BDTP    C615686  10.279   3.048  -2.061 -0.0384  0.0901  0.0316
   37BDTP    C715687  10.134   2.709  -2.100 -0.0375  0.0823  0.0966
   37BDTP    C815688  10.068   2.725  -1.982 -0.0323  0.1020  0.0967
   37BDTP    S115689  10.099   2.886  -1.905 -0.0300  0.1155  0.0675
   37BDTP    C915690  10.440   3.176  -2.215 -0.0465  0.0651  0.0024
   37BDTP   C1015691  10.506   3.160  -2.332 -0.0517  0.0455  0.0023
   37BDTP    S215692  10.474   2.998  -2.409 -0.0539  0.0319  0.0314
   38FTM     S115693  10.300   2.557  -2.342  0.1461 -0.0520  0.1054
   38FTM     C115694  10.273   2.532  -2.519 -0.0019  0.0474  0.1134
   38FTM     C215695  10.262   2.652  -2.582 -0.2886  0.0821  0.2253
   38FTM     C315696  10.274   2.768  -2.498 -0.4077  0.0346  0.3093
   38FTM     C415697  10.295   2.736  -2.368 -0.2057 -0.0388  0.2605
   38FTM     F115698  10.241   2.664  -2.718 -0.4601  0.1590  0.2580
   38FTM     C515699  10.278   2.391  -2.579 -0.2351 -0.1880 -0.2526
   38FTM     C615700  10.419   2.342  -2.631  0.1655 -0.0353 -0.6017
   38FTM     C715701  10.485   2.412  -2.748  0.0287 -0.8472 -0.9998
   38FTM     C815702  10.404   2.411  -2.874 -0.0900  0.3190 -0.1308
   38FTM     C915703  10.481   2.457  -2.995  0.8329 -0.4145  0.6281
   38FTM    C1015704  10.395   2.428  -3.123  0.3501 -0.2741  0.2481
   38FTM    C1115705  10.517   2.306  -2.516  0.5563 -0.5238 -0.5558
   38FTM    C1215706  10.644   2.239  -2.543 -0.1978  0.4777  0.5164
   39FTM     S115707  10.190   3.298  -2.005 -0.0742  0.4377 -0.0854
   39FTM     C115708  10.226   3.364  -1.841 -0.3707  0.0197  0.1503
   39FTM     C215709  10.296   3.273  -1.769 -0.1191  0.0044 -0.1105
   39FTM     C315710  10.326   3.149  -1.835  0.3092  0.3094 -0.4997
   39FTM     C415711  10.277   3.146  -1.962  0.3882  0.5667 -0.5387
   39FTM     F115712  10.338   3.296  -1.638 -0.2617 -0.2868 -0.0119
   39FTM     C515713  10.166   3.490  -1.788 -0.3452 -0.2323  0.1042
   39FTM     C615714  10.192   3.620  -1.869  0.3325  0.6782 -0.4261
   39FTM     C715715  10.331   3.660  -1.898  0.3975 -0.2167  0.1023
   39FTM     C815716  10.420   3.701  -1.782  0.2154  0.2611 -0.4734
   39FTM     C915717  10.564   3.711  -1.829  0.4847 -0.4255  0.2216
   39FTM    C1015718  10.663   3.726  -1.711 -0.6214 -0.7561  0.2856
   39FTM    C1115719  10.097   3.727  -1.811  0.2561  0.5741  0.1890
   39FTM    C1215720  10.064   3.846  -1.903  0.2428  0.4801  0.4905
   40TPM     C115721  10.588   3.262  -2.401  0.0619  0.2596 -0.2406
   40TPM     C215722  10.598   3.293  -2.534  0.3774  0.4094 -0.1842
   40TPM     C315723  10.680   3.408  -2.560  0.5151  0.3872  0.1332
   40TPM     C415724  10.732   3.465  -2.448  0.3046  0.2206  0.3184
   40TPM     S115725  10.682   3.377  -2.299 -0.0869  0.0777  0.1051
   41BDD     C115726  10.863   3.823  -2.353  0.0886 -0.1034 -0.1898
   41BDD     C215727  10.922   3.796  -2.473  0.0666 -0.0574 -0.2112
   41BDD     C315728  10.886   3.666  -2.527  0.1227 -0.0724 -0.2134
   41BDD     C415729  10.799   3.597  -2.448  0.1868 -0.1296 -0.1934
   41BDD     S115730  10.757   3.689  -2.299  0.1812 -0.1686 -0.1708
   41BDD     C515731  11.015   3.888  -2.543 -0.0069  0.0019 -0.2308
   41BDD     C615732  10.938   3.616  -2.656  0.1108 -0.0294 -0.2350
   41BDD     O115733  10.907   3.504  -2.702  0.1592 -0.0423 -0.2366
   41BDD     O215734  11.046   4.000  -2.496 -0.0553  0.0148 -0.2289
   41BDD     C715735  11.031   3.708  -2.725  0.0373  0.0299 -0.2545
   41BDD     C815736  11.067   3.838  -2.671 -0.0188  0.0449 -0.2525
   41BDD     C915737  11.154   3.907  -2.751 -0.0829  0.1021 -0.2724
   41BDD     S215738  11.196   3.815  -2.899 -0.0773  0.1411 -0.2951
   41BDD    C1015739  11.090   3.680  -2.845  0.0153  0.0760 -0.2760
   41BDD    C1115740  11.098   3.557  -2.939  0.5800 -0.4075 -0.3319
   41BDD    C1215741  11.014   3.557  -3.068 -0.3935 -0.0344 -0.5131
   41BDD    C1315742  11.068   3.439  -3.154 -0.7578  0.4928 -0.0658
   41BDD    C1415743  11.031   3.443  -3.299 -0.7978  0.2975  0.5340
   41BDD    C1515744  11.056   3.316  -3.383 -0.1792  0.0512 -0.2118
   41BDD    C1615745  10.963   3.199  -3.350 -0.0578 -0.1512  0.1263
   41BDD    C1715746  10.856   3.591  -3.055 -0.5331  0.1338  0.1497
   41BDD    C1815747  10.774   3.486  -2.983  0.7181  0.1313 -0.2488
   41BDD    C1915748  11.221   4.046  -2.732  0.4098  0.7919  0.2410
   41BDD    C2015749  11.195   4.154  -2.844  0.0070  0.0052 -0.5052
   41BDD    C2115750  11.052   4.196  -2.856 -0.5312 -0.5782  0.0973
   41BDD    C2215751  10.981   4.244  -2.728  1.1379 -0.2446 -0.2368
   41BDD    C2315752  11.047   4.353  -2.642 -0.9611  0.7894 -0.1564
   41BDD    C2415753  10.952   4.414  -2.550  0.3300 -0.1685  0.1134
   41BDD    C2515754  11.260   4.129  -2.972 -0.7954  0.8249  0.0033
   41BDD    C2615755  11.410   4.103  -2.961 -0.2126  0.8341  0.3203
   42TPM     C115756  10.866   3.933  -2.252 -0.0023 -0.0986  0.0583
   42TPM     C215757  10.874   4.062  -2.293 -0.5088 -0.1111 -0.0913
   42TPM     C315758  10.843   4.158  -2.190 -0.7584 -0.1084 -0.1671
   42TPM     C415759  10.812   4.102  -2.070 -0.4422 -0.0939 -0.0754
   42TPM     S115760  10.819   3.921  -2.078  0.2003 -0.0823  0.1153
   43BDTP    C115761  10.568   4.355  -1.546 -0.4917  0.1447 -0.1638
   43BDTP    C215762  10.642   4.464  -1.600 -0.2606  0.0367 -0.0687
   43BDTP    C315763  10.714   4.454  -1.718 -0.1057 -0.0752  0.0355
   43BDTP    C415764  10.714   4.331  -1.786 -0.1819 -0.0814  0.0466
   43BDTP    C515765  10.640   4.222  -1.731 -0.4130  0.0263 -0.0484
   43BDTP    C615766  10.568   4.232  -1.614 -0.5679  0.1387 -0.1528
   43BDTP    C715767  10.782   4.297  -1.909 -0.0530 -0.1874  0.1460
   43BDTP    C815768  10.763   4.169  -1.950 -0.1745 -0.1642  0.1304
   43BDTP    S115769  10.656   4.074  -1.837 -0.4695 -0.0051 -0.0124
   43BDTP    C915770  10.500   4.389  -1.422 -0.6207  0.2507 -0.2632
   43BDTP   C1015771  10.519   4.517  -1.382 -0.4991  0.2275 -0.2475
   43BDTP    S215772  10.626   4.612  -1.494 -0.2042  0.0686 -0.1049
   44FTM     S115773  10.722   4.730  -1.810  0.1731  0.1810  0.4320
   44FTM     C115774  10.884   4.796  -1.848  0.1001 -0.0243 -0.2643
   44FTM     C215775  10.980   4.702  -1.826  0.0831 -0.1303 -0.6289
   44FTM     C315776  10.933   4.575  -1.779  0.1248 -0.0600 -0.3948
   44FTM     C415777  10.797   4.572  -1.764  0.1754  0.1052  0.1675
   44FTM     F115778  11.115   4.725  -1.847  0.0288 -0.2973 -1.1964
   44FTM     C515779  10.900   4.933  -1.886  0.2563 -0.4285  0.3852
   44FTM     C615780  10.826   4.988  -2.022  0.8941 -0.0700 -0.0144
   44FTM     C715781  10.837   4.896  -2.145 -0.6934 -0.3233 -0.5382
   44FTM     C815782  10.977   4.848  -2.198  0.2922  0.2402 -0.7762
   44FTM     C915783  10.959   4.730  -2.292  0.2077  0.1583  0.5198
   44FTM    C1015784  11.063   4.728  -2.404 -0.3305 -0.1788 -0.3343
   44FTM    C1115785  10.841   5.138  -2.065  0.3065  0.9041 -0.5775
   44FTM    C1215786  10.797   5.240  -1.972  0.1274  0.1857 -0.5232
   45FTM     S115787  10.549   4.047  -1.405  0.2752 -0.0431 -0.3022
   45FTM     C115788  10.409   3.933  -1.408  0.2396 -0.0189  0.2460
   45FTM     C215789  10.335   3.953  -1.520 -0.1524 -0.0639  0.4904
   45FTM     C315790  10.382   4.056  -1.609 -0.4420 -0.1185  0.2720
   45FTM     C415791  10.495   4.116  -1.563 -0.2659 -0.1153 -0.1540
   45FTM     F115792  10.221   3.880  -1.550 -0.2723 -0.0582  0.9265
   45FTM     C515793  10.389   3.834  -1.293  1.3806 -0.0712  0.0286
   45FTM     C615794  10.416   3.678  -1.307  0.8121 -0.0032 -0.1420
   45FTM     C715795  10.561   3.636  -1.329 -0.6550 -0.6095 -0.2428
   45FTM     C815796  10.671   3.693  -1.230  0.2599 -0.2420 -0.6168
   45FTM     C915797  10.813   3.672  -1.273 -0.3035 -0.1074 -0.6514
   45FTM    C1015798  10.907   3.784  -1.225  0.5507 -0.3880 -0.1176
   45FTM    C1115799  10.323   3.594  -1.400 -0.1761  0.1233  0.2107
   45FTM    C1215800  10.173   3.593  -1.375 -0.3979  0.4560 -0.0054
   46TPM     C115801  10.469   4.589  -1.271  0.0216 -0.5037  0.3202
   46TPM     C215802  10.517   4.703  -1.214  0.3784 -0.8123  0.6523
   46TPM     C315803  10.440   4.749  -1.101  0.4333 -0.8192  0.6924
   46TPM     C415804  10.333   4.669  -1.072  0.1183 -0.5159  0.3912
   46TPM     S115805  10.321   4.530  -1.185 -0.2750 -0.1959  0.0303
   47BDD     C115806  10.190   4.574  -0.720  0.3632  0.0097 -0.2521
   47BDD     C215807  10.176   4.710  -0.725  0.2898  0.0044 -0.1988
   47BDD     C315808  10.225   4.768  -0.848  0.1897  0.0710 -0.2072
   47BDD     C415809  10.276   4.676  -0.936  0.1883  0.1265 -0.2670
   47BDD     S115810  10.266   4.510  -0.869  0.3122  0.0989 -0.3164
   47BDD     C515811  10.117   4.791  -0.617  0.3088 -0.0626 -0.1388
   47BDD     C615812  10.220   4.914  -0.875  0.0991  0.0774 -0.1564
   47BDD     O115813  10.262   4.964  -0.982  0.0128  0.1351 -0.1636
   47BDD     O215814  10.074   4.741  -0.510  0.3951 -0.1202 -0.1311
   47BDD     C715815  10.161   4.995  -0.767  0.1182  0.0106 -0.0956
   47BDD     C815816  10.111   4.936  -0.644  0.2182 -0.0561 -0.0873
   47BDD     C915817  10.061   5.029  -0.556  0.2196 -0.1116 -0.0274
   47BDD     S215818  10.071   5.195  -0.623  0.0957 -0.0840  0.0220
   47BDD    C1015819  10.147   5.131  -0.772  0.0447  0.0051 -0.0422
   47BDD    C1115820  10.159   5.233  -0.884  0.1013  0.6226  0.1559
   47BDD    C1215821  10.290   5.324  -0.887 -0.0161  0.2345  0.6584
   47BDD    C1315822  10.428   5.252  -0.890 -0.1126  0.1389 -0.0672
   47BDD    C1415823  10.467   5.198  -1.030 -0.4666  0.5508  0.3423
   47BDD    C1515824  10.607   5.132  -1.031  0.3655  0.1156  0.0696
   47BDD    C1615825  10.660   5.068  -1.157 -0.1220 -0.7645  0.0038
   47BDD    C1715826  10.290   5.455  -0.978  0.3523  0.1084 -0.1462
   47BDD    C1815827  10.165   5.542  -0.975  0.2081 -0.2382 -0.3938
   47BDD    C1915828   9.994   5.012  -0.421 -0.1206  0.0980 -0.0024
   47BDD    C2015829   9.852   5.062  -0.412 -0.5560  0.4718 -0.0075
   47BDD    C2115830   9.803   5.068  -0.265  0.7900 -0.5301 -0.1259
   47BDD    C2215831   9.866   5.162  -0.160 -0.0177 -0.2844 -0.5989
   47BDD    C2315832   9.841   5.311  -0.177  0.5710 -0.1636 -0.6341
   47BDD    C2415833   9.869   5.392  -0.052  0.2914 -0.3589  0.1636
   47BDD    C2515834   9.754   4.994  -0.511  0.4846  0.3109  0.5477
   47BDD    C2615835   9.713   4.844  -0.494 -0.3939  0.0290  0.4379
   48TPM     C115836  10.147   4.474  -0.623 -0.3166 -0.0593  0.0277
   48TPM     C215837  10.242   4.397  -0.562 -0.4289 -0.6132 -0.4692
   48TPM     C315838  10.196   4.330  -0.443 -0.4200 -1.0149 -0.6888
   48TPM     C415839  10.065   4.355  -0.414 -0.3009 -0.7672 -0.3592
   48TPM     S115840   9.990   4.466  -0.534 -0.1899 -0.0017  0.2595
   49BDTP    C115841   9.652   4.147   0.013  0.0726 -0.0356 -0.0484
   49BDTP    C215842   9.769   4.072   0.044  0.1009 -0.0604 -0.2098
   49BDTP    C315843   9.889   4.088  -0.025  0.0241 -0.0483 -0.3407
   49BDTP    C415844   9.893   4.181  -0.130 -0.0857 -0.0099 -0.3116
   49BDTP    C515845   9.776   4.256  -0.161 -0.1139  0.0149 -0.1502
   49BDTP    C615846   9.656   4.240  -0.092 -0.0372  0.0027 -0.0195
   49BDTP    C715847  10.005   4.214  -0.215 -0.1793  0.0092 -0.4274
   49BDTP    C815848   9.978   4.309  -0.308 -0.2752  0.0466 -0.3622
   49BDTP    S115849   9.807   4.369  -0.301 -0.2605  0.0629 -0.1442
   49BDTP    C915850   9.540   4.114   0.098  0.1662 -0.0547  0.0677
   49BDTP   C1015851   9.567   4.019   0.191  0.2623 -0.0923  0.0024
   49BDTP    S215852   9.738   3.959   0.184  0.2474 -0.1085 -0.2159
   50FTM     S115853   9.986   3.820   0.004  0.0366 -0.0530  0.3244
   50FTM     C115854  10.159   3.803   0.052  0.0286 -0.2388  0.2879
   50FTM     C215855  10.216   3.926   0.063  0.2206 -0.3074  0.0677
   50FTM     C315856  10.132   4.038   0.036  0.3818 -0.2220 -0.0820
   50FTM     C415857  10.005   4.000   0.002  0.3109 -0.0833  0.0271
   50FTM     F115858  10.349   3.944   0.099  0.2618 -0.4519 -0.0107
   50FTM     C515859  10.222   3.656   0.044 -0.0728 -0.8815 -0.0228
   50FTM     C615860  10.329   3.615   0.146  0.3893 -0.1525  0.2229
   50FTM     C715861  10.485   3.632   0.116 -0.2768  0.3835 -0.1352
   50FTM     C815862  10.557   3.564  -0.000 -0.0744 -0.0686  0.4898
   50FTM     C915863  10.519   3.415  -0.019 -0.3619 -0.3968 -0.1127
   50FTM    C1015864  10.577   3.336  -0.145 -0.4250 -0.6493  0.1777
   50FTM    C1115865  10.273   3.623   0.292  0.0574 -0.1127  0.7382
   50FTM    C1215866  10.345   3.538   0.392 -0.8080 -0.1431 -0.3687
   51FTM     S115867   9.567   4.507  -0.161  0.1151  0.1144  0.1868
   51FTM     C115868   9.396   4.519  -0.217  0.2453 -0.0418 -0.2534
   51FTM     C215869   9.335   4.398  -0.206  0.2391 -0.0266 -0.1144
   51FTM     C315870   9.416   4.291  -0.155  0.1354  0.1041  0.3321
   51FTM     C415871   9.543   4.332  -0.126  0.0596  0.1921  0.5422
   51FTM     F115872   9.203   4.376  -0.242  0.3276 -0.1304 -0.3834
   51FTM     C515873   9.334   4.648  -0.262 -0.2930  0.5125 -0.2497
   51FTM     C615874   9.281   4.739  -0.150  0.7281 -0.0831 -0.1631
   51FTM     C715875   9.268   4.886  -0.188  0.5092  0.2622 -0.5608
   51FTM     C815876   9.387   4.967  -0.204 -0.4389 -0.3937  0.0867
   51FTM     C915877   9.346   5.117  -0.201 -0.5250 -0.2668 -0.0975
   51FTM    C1015878   9.449   5.229  -0.206 -0.0329  0.2935 -0.0543
   51FTM    C1115879   9.156   4.701  -0.066  0.0562 -0.4271 -0.5328
   51FTM    C1215880   9.029   4.636  -0.132 -0.0566  0.5225 -0.1520
   52TPM     C115881   9.481   3.959   0.293 -0.2237 -0.6842 -0.1497
   52TPM     C215882   9.501   3.854   0.378 -0.5400 -0.8727 -0.3035
   52TPM     C315883   9.395   3.834   0.472 -0.4675 -0.5034 -0.1395
   52TPM     C415884   9.293   3.924   0.460 -0.0958 -0.0332  0.1394
   52TPM     S115885   9.324   4.041   0.327  0.1935 -0.0204  0.2171
   53BDD     C115886   9.041   3.935   0.755  0.1196  0.1331 -0.0649
   53BDD     C215887   8.966   3.954   0.642  0.0753  0.0585 -0.0486
   53BDD     C315888   9.044   3.948   0.520  0.0467  0.0920 -0.0685
   53BDD     C415889   9.177   3.925   0.542  0.0693  0.1916 -0.0997
   53BDD     S115890   9.214   3.908   0.717  0.1285  0.2503 -0.1064
   53BDD     C515891   8.820   3.978   0.643  0.0582 -0.0462 -0.0140
   53BDD     C615892   8.984   3.966   0.386 -0.0019  0.0240 -0.0557
   53BDD     O115893   9.051   3.961   0.281 -0.0267  0.0528 -0.0729
   53BDD     O215894   8.753   3.983   0.748  0.0830 -0.0751  0.0032
   53BDD     C715895   8.838   3.990   0.387 -0.0193 -0.0808 -0.0212
   53BDD     C815896   8.760   3.996   0.509  0.0093 -0.1142 -0.0013
   53BDD     C915897   8.627   4.019   0.487 -0.0136 -0.2139  0.0300
   53BDD     S215898   8.591   4.036   0.312 -0.0724 -0.2727  0.0367
   53BDD    C1015899   8.764   4.009   0.273 -0.0637 -0.1553 -0.0048
   53BDD    C1115900   8.795   4.000   0.125 -0.3616  0.5849 -0.4882
   53BDD    C1215901   8.793   4.122   0.034 -0.4958 -0.4640 -0.1213
   53BDD    C1315902   8.894   4.226   0.074  0.0966 -0.8788 -0.2198
   53BDD    C1415903   9.045   4.203   0.054  0.1974  0.3800  1.1922
   53BDD    C1515904   9.144   4.317   0.084  0.5281  0.1911  0.2722
   53BDD    C1615905   9.172   4.339   0.227  0.4322 -0.2007  0.3387
   53BDD    C1715906   8.665   4.196   0.029  0.2638 -0.0506 -0.1107
   53BDD    C1815907   8.541   4.127  -0.042 -0.1450  0.3502 -0.4032
   53BDD    C1915908   8.517   4.054   0.585  0.2573  0.4353 -0.6497
   53BDD    C2015909   8.387   3.967   0.579  0.4271 -0.4196 -0.1046
   53BDD    C2115910   8.289   4.013   0.693  0.8362 -0.1840 -0.0645
   53BDD    C2215911   8.135   3.980   0.686 -0.2676  0.5461  0.0717
   53BDD    C2315912   8.064   4.023   0.808 -0.5193 -0.6467 -0.1613
   53BDD    C2415913   7.916   3.997   0.792 -0.0554 -0.1227 -0.4757
   53BDD    C2515914   8.393   3.808   0.564  0.5972  0.0559  0.6761
   53BDD    C2615915   8.445   3.737   0.691  0.5509  0.7062  0.1904
   54TPM     C115916   9.022   3.938   0.900  0.4013  0.4636 -0.1406
   54TPM     C215917   8.906   3.912   0.967  0.1800  0.6329 -0.4576
   54TPM     C315918   8.921   3.905   1.110 -0.1810  0.3987 -0.4281
   54TPM     C415919   9.049   3.926   1.152 -0.2353  0.0510 -0.0887
   54TPM     S115920   9.161   3.955   1.014  0.1690 -0.0083  0.2225
   55BDTP    C115921   9.284   3.893   1.735 -0.0036  0.0861  0.0710
   55BDTP    C215922   9.398   3.921   1.655  0.0064  0.0243  0.0632
   55BDTP    C315923   9.391   3.936   1.517  0.0143 -0.0271  0.0571
   55BDTP    C415924   9.265   3.922   1.455  0.0124 -0.0173  0.0590
   55BDTP    C515925   9.151   3.894   1.536  0.0024  0.0446  0.0669
   55BDTP    C615926   9.158   3.879   1.673 -0.0057  0.0960  0.0729
   55BDTP    C715927   9.233   3.933   1.314  0.0193 -0.0631  0.0538
   55BDTP    C815928   9.102   3.915   1.285  0.0150 -0.0391  0.0574
   55BDTP    S115929   9.001   3.880   1.432  0.0017  0.0451  0.0678
   55BDTP    C915930   9.316   3.882   1.876 -0.0105  0.1320  0.0762
   55BDTP   C1015931   9.447   3.900   1.905 -0.0062  0.1079  0.0727
   55BDTP    S215932   9.548   3.935   1.758  0.0070  0.0238  0.0622
   56FTM     S115933   9.570   3.850   1.311  0.0021  0.0461 -0.1463
   56FTM     C115934   9.710   3.959   1.282 -0.1073  0.1466 -0.3006
   56FTM     C215935   9.705   4.065   1.366  0.0055  0.0507 -0.1722
   56FTM     C315936   9.594   4.068   1.457  0.1798 -0.1032  0.0486
   56FTM     C415937   9.512   3.961   1.441  0.2009 -0.1258  0.0907
   56FTM     F115938   9.801   4.166   1.367 -0.0422  0.0963 -0.2470
   56FTM     C515939   9.820   3.917   1.188 -0.1687  0.5247 -0.3616
   56FTM     C615940   9.968   3.924   1.217  0.0850 -0.1713  0.7607
   56FTM     C715941  10.038   4.056   1.224  0.3165 -0.4808  0.7371
   56FTM     C815942  10.052   4.138   1.099  0.2710 -0.5588 -0.2551
   56FTM     C915943  10.111   4.073   0.976  0.2031  0.0329 -0.0179
   56FTM    C1015944  10.139   4.157   0.854  0.4933  0.1422 -0.0524
   56FTM    C1115945  10.009   3.823   1.317  0.4411 -0.3820 -0.2933
   56FTM    C1215946  10.152   3.779   1.299 -1.0853 -0.0754 -0.3447
   57FTM     S115947   9.026   3.720   1.869 -0.1097 -0.2035  0.2518
   57FTM     C115948   8.858   3.771   1.910  0.0675  0.1232  0.5884
   57FTM     C215949   8.822   3.878   1.833  0.2699  0.4610  0.9584
   57FTM     C315950   8.921   3.925   1.741  0.2990  0.4855  1.0017
   57FTM     C415951   9.036   3.853   1.747  0.1124  0.1560  0.6535
   57FTM     F115952   8.698   3.939   1.843  0.4413  0.7679  1.2799
   57FTM     C515953   8.758   3.696   2.001 -0.0418  0.3368  0.5429
   57FTM     C615954   8.758   3.538   2.001  0.0715 -0.4026  0.1018
   57FTM     C715955   8.714   3.478   1.870  0.4995  0.4053  0.0024
   57FTM     C815956   8.569   3.510   1.813 -0.0408 -0.4721  0.0648
   57FTM     C915957   8.451   3.482   1.906 -0.2366  0.0133  0.7904
   57FTM    C1015958   8.312   3.484   1.847 -0.4530  0.5366 -0.0934
   57FTM    C1115959   8.866   3.462   2.073  0.6098  0.1916  0.5051
   57FTM    C1215960   8.910   3.494   2.211  0.5929 -0.2042 -0.2335
   58TPM     C115961   9.519   3.910   2.030 -0.1454  0.6716  0.1204
   58TPM     C215962   9.499   3.835   2.142 -0.1354  0.4585 -0.0204
   58TPM     C315963   9.598   3.856   2.245  0.1671 -0.1109 -0.1857
   58TPM     C415964   9.693   3.947   2.211  0.3879 -0.3320 -0.1707
   58TPM     S115965   9.665   4.015   2.046  0.2291  0.1657  0.0548
   59BDD     C115966   9.980   3.884   2.475  0.3762 -0.0718  0.0704
   59BDD     C215967  10.020   3.997   2.408  0.2230  0.0336  0.1553
   59BDD     C315968   9.925   4.040   2.307  0.0192  0.1582  0.3967
   59BDD     C415969   9.814   3.960   2.298  0.0200  0.1460  0.4924
   59BDD     S115970   9.821   3.825   2.415  0.2759 -0.0222  0.2868
   59BDD     C515971  10.146   4.068   2.435  0.2583  0.0236  0.0176
   59BDD     C615972   9.948   4.160   2.223 -0.1688  0.2848  0.5237
   59BDD     O115973   9.866   4.197   2.135 -0.3445  0.3922  0.7319
   59BDD     O215974  10.227   4.031   2.522  0.4340 -0.0838 -0.1906
   59BDD     C715975  10.074   4.231   2.250 -0.1335  0.2748  0.3861
   59BDD     C815976  10.169   4.188   2.351  0.0703  0.1502  0.1447
   59BDD     C915977  10.279   4.268   2.360  0.0695  0.1622  0.0490
   59BDD     S215978  10.273   4.403   2.242 -0.1864  0.3307  0.2546
   59BDD    C1015979  10.114   4.344   2.183 -0.2867  0.3800  0.4710
   59BDD    C1115980  10.042   4.430   2.076 -0.0042  0.2818  0.2003
   59BDD    C1215981  10.060   4.384   1.922  0.2871 -0.1576  0.2103
   59BDD    C1315982  10.202   4.338   1.880 -0.5022  1.2976 -0.1530
   59BDD    C1415983  10.312   4.450   1.890  0.1089 -0.8965 -0.7752
   59BDD    C1515984  10.448   4.434   1.837 -0.0716 -0.3795 -0.0947
   59BDD    C1615985  10.535   4.558   1.850 -0.1327 -0.5509 -0.4367
   59BDD    C1715986   9.978   4.468   1.820 -0.2451 -0.0725 -0.0480
   59BDD    C1815987   9.986   4.430   1.669  0.4430 -0.2678  0.2686
   59BDD    C1915988  10.395   4.280   2.462  0.2807 -0.4048  0.5427
   59BDD    C2015989  10.508   4.184   2.438 -0.1285  0.0690  0.6256
   59BDD    C2115990  10.594   4.183   2.561  0.0626  0.1068  0.1847
   59BDD    C2215991  10.552   4.115   2.687 -0.1348 -0.0303 -0.5065
   59BDD    C2315992  10.534   3.969   2.676  0.6999  0.4169 -0.0941
   59BDD    C2415993  10.471   3.918   2.806  0.4169 -0.4628  0.7162
   59BDD    C2515994  10.580   4.205   2.302  0.2383 -0.1240  0.6074
   59BDD    C2615995  10.661   4.326   2.280 -0.2838 -0.2177 -0.2971
   60TPM     C115996  10.024   3.811   2.594 -0.1190 -0.2009 -0.3015
   60TPM     C215997  10.149   3.757   2.602 -0.1551 -0.3359 -0.6124
   60TPM     C315998  10.169   3.676   2.720  0.0688 -0.3119 -0.6345
   60TPM     C415999  10.060   3.669   2.801  0.2756 -0.1586 -0.3403
   60TPM     S116000   9.922   3.764   2.735  0.2030 -0.0317 -0.0100
    1BDTP    C116001   4.230   0.147   4.614  0.3552 -0.1569 -0.1059
    1BDTP    C216002   4.302   0.066   4.706  0.1961 -0.0366  0.1274
    1BDTP    C316003   4.421   0.106   4.765  0.1092  0.0290  0.2563
    1BDTP    C416004   4.471   0.233   4.733  0.1825 -0.0265  0.1504
    1BDTP    C516005   4.399   0.315   4.641  0.3415 -0.1468 -0.0827
    1BDTP    C616006   4.281   0.275   4.581  0.4282 -0.2124 -0.2115
    1BDTP    C716007   4.592   0.297   4.782  0.1164  0.0234  0.2492
    1BDTP    C816008   4.614   0.421   4.732  0.2167 -0.0527  0.1034
    1BDTP    S116009   4.485   0.474   4.616  0.4090 -0.1982 -0.1796
    1BDTP    C916010   4.110   0.084   4.564  0.4212 -0.2067 -0.2044
    1BDTP   C1016011   4.088  -0.040   4.614  0.3209 -0.1307 -0.0585
    1BDTP    S216012   4.217  -0.094   4.731  0.1285  0.0150  0.2246
    2FTM     S116013   4.428  -0.108   4.964 -0.2728 -0.1269 -0.0225
    2FTM     C116014   4.585  -0.192   4.984 -0.2675 -0.0737  0.1630
    2FTM     C216015   4.681  -0.130   4.911 -0.0873  0.2630  0.6753
    2FTM     C316016   4.639  -0.015   4.836  0.0544  0.4950  0.9482
    2FTM     C416017   4.506   0.011   4.853 -0.0200  0.3302  0.6348
    2FTM     F116018   4.813  -0.173   4.907 -0.0398  0.3812  0.9273
    2FTM     C516019   4.602  -0.325   5.059 -0.4974 -0.4103 -0.0800
    2FTM     C616020   4.550  -0.454   5.001 -0.6062  0.8105  0.0497
    2FTM     C716021   4.403  -0.483   4.989  0.3817  0.7309 -0.8184
    2FTM     C816022   4.344  -0.527   5.124 -0.1786 -0.3055 -0.1592
    2FTM     C916023   4.192  -0.555   5.115 -0.1459  0.1799 -0.7777
    2FTM    C1016024   4.105  -0.443   5.068  0.2046 -0.3150  0.3552
    2FTM    C1116025   4.635  -0.493   4.871  0.5350 -0.3179 -0.1489
    2FTM    C1216026   4.608  -0.624   4.801 -0.0167  0.0625 -0.4247
    3FTM     S116027   4.029   0.386   4.504 -0.1084 -0.3788 -0.1587
    3FTM     C116028   4.023   0.477   4.349 -0.0273 -0.0920  0.0046
    3FTM     C216029   4.148   0.485   4.295  0.0285  0.1548  0.1677
    3FTM     C316030   4.253   0.422   4.369  0.0124  0.1366  0.1754
    3FTM     C416031   4.208   0.365   4.484 -0.0586 -0.1331  0.0128
    3FTM     F116032   4.174   0.550   4.175  0.0979  0.4120  0.3195
    3FTM     C516033   3.890   0.490   4.285  0.3539 -0.8389  0.1073
    3FTM     C616034   3.757   0.485   4.372 -0.4451 -0.2308  1.0187
    3FTM     C716035   3.627   0.480   4.290  0.0522  0.4332 -0.4090
    3FTM     C816036   3.596   0.557   4.161  0.9107 -0.0488 -0.1796
    3FTM     C916037   3.459   0.532   4.100 -0.4687  0.6027 -0.6148
    3FTM    C1016038   3.422   0.618   3.982 -0.3174 -0.0904  0.4199
    3FTM    C1116039   3.765   0.585   4.486 -0.4596 -0.0397  0.0710
    3FTM    C1216040   3.654   0.596   4.594  0.4292 -0.1038 -0.3272
    4TPM     C116041   3.978  -0.125   4.592  0.0053  0.2296 -0.3415
    4TPM     C216042   3.900  -0.173   4.692  0.1863  0.0565 -0.2825
    4TPM     C316043   3.808  -0.276   4.649  0.4638 -0.2325 -0.1888
    4TPM     C416044   3.817  -0.306   4.517  0.4942 -0.2798 -0.1765
    4TPM     S116045   3.943  -0.205   4.435  0.1724  0.0397 -0.2829
    5BDD     C116046   3.680  -0.626   4.334 -0.0557  0.1026  0.1171
    5BDD     C216047   3.572  -0.542   4.347 -0.0319  0.1307  0.1338
    5BDD     C316048   3.605  -0.416   4.413 -0.0248  0.0539  0.2779
    5BDD     C416049   3.736  -0.406   4.449 -0.0432 -0.0311  0.3692
    5BDD     S116050   3.829  -0.553   4.403 -0.0707 -0.0215  0.2809
    5BDD     C516051   3.436  -0.574   4.300 -0.0150  0.2286  0.0176
    5BDD     C616052   3.504  -0.311   4.437  0.0001  0.0679  0.3197
    5BDD     O116053   3.532  -0.203   4.493  0.0063  0.0019  0.4439
    5BDD     O216054   3.408  -0.682   4.243 -0.0212  0.2949 -0.1066
    5BDD     C716055   3.368  -0.343   4.389  0.0170  0.1662  0.2038
    5BDD     C816056   3.335  -0.469   4.324  0.0098  0.2427  0.0597
    5BDD     C916057   3.204  -0.479   4.288  0.0282  0.3283 -0.0316
    5BDD     S216058   3.112  -0.332   4.333  0.0556  0.3182  0.0567
    5BDD    C1016059   3.260  -0.260   4.402  0.0407  0.1941  0.2203
    5BDD    C1116060   3.254  -0.115   4.444 -0.3482 -0.0386 -0.0103
    5BDD    C1216061   3.146  -0.057   4.540  0.2202  0.4080  0.6097
    5BDD    C1316062   3.150  -0.122   4.683 -0.2760  0.5146  0.1490
    5BDD    C1416063   3.059  -0.073   4.802  0.9204  1.0025 -0.0821
    5BDD    C1516064   3.120  -0.084   4.936 -0.0445 -0.5013  0.1533
    5BDD    C1616065   3.028  -0.051   5.050  0.7823 -0.4303 -0.5369
    5BDD    C1716066   2.998  -0.040   4.486 -0.5172 -0.2455  0.0500
    5BDD    C1816067   2.980   0.047   4.356  0.4029 -0.1151 -0.1904
    5BDD    C1916068   3.124  -0.572   4.197  0.3422 -0.2645 -0.7979
    5BDD    C2016069   3.006  -0.647   4.265  1.1990 -0.2149 -0.1213
    5BDD    C2116070   3.033  -0.712   4.401 -0.3902 -0.3223 -0.1851
    5BDD    C2216071   3.143  -0.820   4.403 -0.0787  1.2017  0.0815
    5BDD    C2316072   3.154  -0.896   4.530 -0.7242 -0.0327 -0.6921
    5BDD    C2416073   3.279  -0.988   4.546  0.6821  0.0081  0.3438
    5BDD    C2516074   2.916  -0.740   4.177  0.5722  0.1440 -0.3669
    5BDD    C2616075   2.849  -0.695   4.051 -0.0678 -0.1049  0.1828
    6TPM     C116076   3.697  -0.762   4.282  0.5435  0.3256 -0.3486
    6TPM     C216077   3.750  -0.865   4.356  0.7706  0.4809 -0.2949
    6TPM     C316078   3.757  -0.989   4.284  0.4373  0.2983 -0.0200
    6TPM     C416079   3.710  -0.982   4.156 -0.0441  0.0036  0.1358
    6TPM     S116080   3.652  -0.816   4.116 -0.1141 -0.0662 -0.0540
    7BDTP    C116081   3.775  -1.472   3.766 -0.0011 -0.1814  0.0328
    7BDTP    C216082   3.730  -1.369   3.678 -0.0587 -0.2170  0.0213
    7BDTP    C316083   3.703  -1.240   3.721 -0.0826 -0.2139 -0.0030
    7BDTP    C416084   3.723  -1.210   3.857 -0.0482 -0.1743 -0.0167
    7BDTP    C516085   3.768  -1.312   3.945  0.0094 -0.1383 -0.0052
    7BDTP    C616086   3.795  -1.441   3.902  0.0333 -0.1413  0.0191
    7BDTP    C716087   3.702  -1.083   3.924 -0.0636 -0.1632 -0.0421
    7BDTP    C816088   3.730  -1.085   4.057 -0.0208 -0.1216 -0.0502
    7BDTP    S116089   3.786  -1.248   4.115  0.0449 -0.0904 -0.0267
    7BDTP    C916090   3.796  -1.598   3.699  0.0143 -0.1922  0.0582
    7BDTP   C1016091   3.768  -1.596   3.566 -0.0284 -0.2337  0.0663
    7BDTP    S216092   3.712  -1.433   3.508 -0.0942 -0.2649  0.0429
    8FTM     S116093   3.773  -1.080   3.488 -0.3067 -0.1227 -0.3655
    8FTM     C116094   3.628  -1.008   3.409 -0.4326 -0.1829 -0.1906
    8FTM     C216095   3.518  -1.029   3.486 -0.3357 -0.2532 -0.0709
    8FTM     C316096   3.539  -1.101   3.608 -0.1619 -0.2642 -0.1070
    8FTM     C416097   3.670  -1.136   3.625 -0.1245 -0.2000 -0.2593
    8FTM     F116098   3.392  -0.984   3.451 -0.3986 -0.3121  0.0786
    8FTM     C516099   3.630  -0.955   3.265 -0.2768  0.1984 -0.1424
    8FTM     C616100   3.712  -1.020   3.151 -0.3153  0.2187  0.9612
    8FTM     C716101   3.702  -1.175   3.127 -0.6008 -0.0135 -0.7094
    8FTM     C816102   3.564  -1.230   3.110 -0.0310  0.2776  0.4935
    8FTM     C916103   3.549  -1.376   3.068  0.2428 -0.5241 -0.0082
    8FTM    C1016104   3.649  -1.481   3.119 -0.2745 -0.2363  0.5843
    8FTM    C1116105   3.863  -0.971   3.142 -0.5561  0.3836  0.4699
    8FTM    C1216106   3.904  -0.824   3.160 -0.0676  0.1643 -0.7760
    9FTM     S116107   3.694  -1.573   4.133  0.1682 -0.1364 -0.1212
    9FTM     C116108   3.802  -1.699   4.203 -0.2035 -0.5290 -0.2502
    9FTM     C216109   3.914  -1.712   4.127 -0.0631 -0.5057 -0.0483
    9FTM     C316110   3.923  -1.627   4.012  0.3328 -0.1889  0.2126
    9FTM     C416111   3.814  -1.546   4.000  0.5008  0.0374  0.2105
    9FTM     F116112   4.015  -1.803   4.157 -0.2844 -0.7699 -0.0880
    9FTM     C516113   3.758  -1.788   4.317  1.0645 -0.0556  0.2246
    9FTM     C616114   3.759  -1.727   4.458  0.7369  0.1422  0.2404
    9FTM     C716115   3.895  -1.685   4.499  0.1881 -0.3227  0.5245
    9FTM     C816116   4.015  -1.780   4.498  0.2478 -0.5590 -0.2444
    9FTM     C916117   4.047  -1.851   4.624  0.2525 -0.0386 -0.1878
    9FTM    C1016118   4.097  -1.767   4.735 -0.4243 -0.7774 -0.7956
    9FTM    C1116119   3.677  -1.797   4.571  0.8019  0.1026  0.1718
    9FTM    C1216120   3.539  -1.857   4.541 -0.0136 -0.2336  0.2214
   10TPM     C116121   3.800  -1.696   3.471 -0.2541  0.0178  0.0521
   10TPM     C216122   3.889  -1.694   3.369 -0.1059  0.0376  0.1812
   10TPM     C316123   3.893  -1.816   3.292 -0.0755  0.0924  0.0952
   10TPM     C416124   3.806  -1.911   3.337 -0.2006  0.1143 -0.0994
   10TPM     S116125   3.712  -1.854   3.480 -0.3679  0.0672 -0.1900
   11BDD     C116126   3.839  -2.243   3.134 -0.0512  0.2339 -0.1875
   11BDD     C216127   3.712  -2.198   3.111 -0.0891  0.1502 -0.1439
   11BDD     C316128   3.678  -2.078   3.186 -0.1222  0.1613 -0.1761
   11BDD     C416129   3.780  -2.034   3.265 -0.1092  0.2533 -0.2438
   11BDD     S116130   3.925  -2.139   3.252 -0.0545  0.3321 -0.2719
   11BDD     C516131   3.617  -2.263   3.018 -0.0963  0.0573 -0.0711
   11BDD     C616132   3.547  -2.012   3.176 -0.1657  0.0805 -0.1385
   11BDD     O116133   3.518  -1.909   3.241 -0.1942  0.0900 -0.1662
   11BDD     O216134   3.645  -2.366   2.954 -0.0677  0.0478 -0.0434
   11BDD     C716135   3.451  -2.078   3.084 -0.1727 -0.0126 -0.0657
   11BDD     C816136   3.485  -2.197   3.009 -0.1396 -0.0237 -0.0336
   11BDD     C916137   3.383  -2.242   2.929 -0.1527 -0.1155  0.0342
   11BDD     S216138   3.238  -2.137   2.943 -0.2073 -0.1944  0.0623
   11BDD    C1016139   3.324  -2.033   3.061 -0.2106 -0.0962 -0.0221
   11BDD    C1116140   3.240  -1.916   3.101  0.6322  0.1658  0.1904
   11BDD    C1216141   3.267  -1.775   3.030 -0.1283 -0.3118 -0.1749
   11BDD    C1316142   3.277  -1.772   2.877  0.0884  0.0984  0.2630
   11BDD    C1416143   3.164  -1.814   2.784 -0.1336 -0.0173 -0.3368
   11BDD    C1516144   3.182  -1.816   2.629 -0.3960 -0.0513 -0.2614
   11BDD    C1616145   3.062  -1.875   2.558  0.1236  0.0202  0.2388
   11BDD    C1716146   3.167  -1.669   3.088  0.1944  0.7260  0.4919
   11BDD    C1816147   3.201  -1.530   3.043 -0.0569  0.2819  0.0795
   11BDD    C1916148   3.366  -2.363   2.843  0.2091 -0.5434  0.9447
   11BDD    C2016149   3.292  -2.340   2.711  0.5444  0.5757  0.2334
   11BDD    C2116150   3.362  -2.233   2.627  0.1830 -0.1387 -0.0419
   11BDD    C2216151   3.328  -2.209   2.479  0.2248 -0.2739 -0.1053
   11BDD    C2316152   3.182  -2.197   2.430  0.3092 -0.5325  0.1740
   11BDD    C2416153   3.165  -2.186   2.281 -0.2747 -0.4538  0.3304
   11BDD    C2516154   3.278  -2.476   2.633  0.2901 -0.2855 -0.2716
   11BDD    C2616155   3.196  -2.582   2.685 -0.3268  1.0050 -0.2510
   12TPM     C116156   3.922  -2.352   3.088  0.0073  0.2909 -0.0496
   12TPM     C216157   3.930  -2.385   2.956  0.3351  0.5081 -0.0879
   12TPM     C316158   4.042  -2.470   2.924  0.4126  0.5563  0.0508
   12TPM     C416159   4.119  -2.502   3.031  0.1438  0.3760  0.1949
   12TPM     S116160   4.057  -2.426   3.183 -0.2306  0.1295  0.1663
   13BDTP    C116161   4.649  -2.826   2.982 -0.0328 -0.1118  0.1153
   13BDTP    C216162   4.662  -2.765   3.110  0.0623 -0.1090  0.1047
   13BDTP    C316163   4.563  -2.685   3.165  0.1142 -0.0859  0.1647
   13BDTP    C416164   4.446  -2.662   3.090  0.0707 -0.0650  0.2388
   13BDTP    C516165   4.434  -2.723   2.962 -0.0244 -0.0678  0.2494
   13BDTP    C616166   4.532  -2.804   2.907 -0.0763 -0.0908  0.1894
   13BDTP    C716167   4.331  -2.583   3.126  0.1100 -0.0395  0.3095
   13BDTP    C816168   4.233  -2.581   3.032  0.0501 -0.0234  0.3721
   13BDTP    S116169   4.274  -2.679   2.885 -0.0650 -0.0380  0.3501
   13BDTP    C916170   4.765  -2.906   2.946 -0.0724 -0.1373  0.0446
   13BDTP   C1016171   4.862  -2.908   3.040 -0.0123 -0.1535 -0.0180
   13BDTP    S216172   4.822  -2.809   3.187  0.1029 -0.1386  0.0041
   14FTM     S116173   4.471  -2.622   3.432 -0.0951  0.0413  0.3299
   14FTM     C116174   4.594  -2.546   3.540 -0.1980  0.3178  0.2553
   14FTM     C216175   4.709  -2.523   3.470 -0.3378  0.7116  0.1473
   14FTM     C316176   4.708  -2.562   3.332 -0.3728  0.8198  0.1169
   14FTM     C416177   4.589  -2.617   3.295 -0.2558  0.4983  0.2042
   14FTM     F116178   4.821  -2.466   3.528 -0.4427  0.9975  0.0699
   14FTM     C516179   4.595  -2.542   3.687 -0.1031  0.4309 -0.0389
   14FTM     C616180   4.483  -2.470   3.761  0.1198 -0.2472 -0.4334
   14FTM     C716181   4.440  -2.332   3.712  0.1582 -0.1598  0.4458
   14FTM     C816182   4.545  -2.218   3.712  0.0978 -0.0609  0.3646
   14FTM     C916183   4.493  -2.086   3.660  0.8488  0.1838 -0.1736
   14FTM    C1016184   4.561  -1.960   3.699 -0.1947  0.0678 -0.0346
   14FTM    C1116185   4.491  -2.461   3.916  0.6889 -0.2171  0.7205
   14FTM    C1216186   4.511  -2.597   3.983  0.2586 -0.6539  0.2861
   15FTM     S116187   4.618  -2.814   2.633  0.0022  0.1229 -0.0313
   15FTM     C116188   4.521  -2.919   2.524  0.2274  0.1014 -0.2112
   15FTM     C216189   4.419  -2.976   2.593  0.2620 -0.1218 -0.3418
   15FTM     C316190   4.409  -2.942   2.732  0.1192 -0.2857 -0.3107
   15FTM     C416191   4.508  -2.857   2.770 -0.0298 -0.1847 -0.1509
   15FTM     F116192   4.327  -3.062   2.534  0.4251 -0.1910 -0.4973
   15FTM     C516193   4.557  -2.907   2.378 -0.1355  0.0881 -0.3177
   15FTM     C616194   4.678  -2.987   2.333 -0.1512 -0.1802 -0.6531
   15FTM     C716195   4.720  -2.954   2.190  0.3022  0.8697 -0.0271
   15FTM     C816196   4.746  -2.813   2.148 -0.4820 -0.0604 -0.1712
   15FTM     C916197   4.870  -2.751   2.222 -0.0756 -0.3907 -0.0424
   15FTM    C1016198   4.913  -2.614   2.186  0.1540 -0.3628 -0.2275
   15FTM    C1116199   4.690  -3.134   2.377 -0.3109 -0.2662  0.5532
   15FTM    C1216200   4.816  -3.220   2.358  0.1535 -0.6983 -0.4195
   16TPM     C116201   4.992  -2.972   3.033 -0.1259 -0.1323  0.1292
   16TPM     C216202   5.073  -2.996   2.926 -0.1473 -0.3368  0.1575
   16TPM     C316203   5.194  -3.066   2.960 -0.1225 -0.2391  0.2732
   16TPM     C416204   5.206  -3.095   3.092 -0.0824  0.0396  0.3331
   16TPM     S116205   5.063  -3.037   3.186 -0.0725  0.2019  0.2473
   17BDD     C116206   5.522  -3.128   3.323  0.1131  0.1424 -0.2853
   17BDD     C216207   5.545  -3.217   3.222  0.1184  0.0657 -0.2165
   17BDD     C316208   5.439  -3.223   3.124 -0.0014 -0.2083 -0.0711
   17BDD     C416209   5.335  -3.138   3.151 -0.0962 -0.3366 -0.0313
   17BDD     S116210   5.364  -3.045   3.302 -0.0421 -0.1233 -0.1730
   17BDD     C516211   5.667  -3.300   3.212  0.2335  0.2416 -0.2818
   17BDD     C616212   5.443  -3.313   3.007 -0.0175 -0.3328  0.0229
   17BDD     O116213   5.351  -3.318   2.922 -0.1208 -0.5691  0.1483
   17BDD     O216214   5.759  -3.295   3.297  0.3369  0.4779 -0.4072
   17BDD     C716215   5.565  -3.396   2.997  0.0978 -0.1570 -0.0423
   17BDD     C816216   5.672  -3.390   3.095  0.2176  0.1172 -0.1877
   17BDD     C916217   5.776  -3.474   3.068  0.3124  0.2456 -0.2275
   17BDD     S216218   5.747  -3.568   2.917  0.2583  0.0321 -0.0859
   17BDD    C1016219   5.589  -3.485   2.896  0.1031 -0.2334  0.0266
   17BDD    C1116220   5.517  -3.513   2.762 -0.9221  0.7523  0.1489
   17BDD    C1216221   5.474  -3.665   2.743  1.0362  0.4975 -0.8895
   17BDD    C1316222   5.391  -3.689   2.612 -0.0799  0.2339  0.1652
   17BDD    C1416223   5.252  -3.625   2.602  0.0880 -0.5416 -0.2680
   17BDD    C1516224   5.174  -3.680   2.485 -0.4433 -0.4628 -0.5593
   17BDD    C1616225   5.024  -3.644   2.474  0.3378 -0.1598 -0.0370
   17BDD    C1716226   5.397  -3.726   2.874  0.2672 -1.0667  0.8952
   17BDD    C1816227   5.362  -3.875   2.869 -0.9428  0.2631 -0.0196
   17BDD    C1916228   5.905  -3.488   3.141 -0.0439  0.3066  0.1499
   17BDD    C2016229   5.945  -3.635   3.172  0.5443 -0.1144 -0.2541
   17BDD    C2116230   6.093  -3.677   3.164 -0.0821 -0.8564  0.3669
   17BDD    C2216231   6.129  -3.826   3.150 -0.5275 -0.4244  0.1076
   17BDD    C2316232   6.059  -3.934   3.060  0.3786 -0.5476 -0.2561
   17BDD    C2416233   6.135  -4.059   3.043 -0.0006  0.1297  0.1606
   17BDD    C2516234   5.861  -3.703   3.284 -0.3758  0.1963  0.0148
   17BDD    C2616235   5.883  -3.642   3.422  0.1167  0.3034  1.0249
   18TPM     C116236   5.589  -3.082   3.442  0.0340 -0.2178 -0.0399
   18TPM     C216237   5.627  -3.172   3.538  0.4406  0.1103  0.1143
   18TPM     C316238   5.657  -3.112   3.665  0.5774  0.5062 -0.1022
   18TPM     C416239   5.642  -2.976   3.666  0.2749  0.4798 -0.4214
   18TPM     S116240   5.589  -2.913   3.506 -0.2099 -0.0512 -0.4737
   19BDTP    C116241   5.740  -2.517   4.085 -0.0391  0.0073 -0.0695
   19BDTP    C216242   5.695  -2.624   4.168  0.0154 -0.0046 -0.0553
   19BDTP    C316243   5.662  -2.749   4.119  0.0428 -0.0162 -0.0435
   19BDTP    C416244   5.674  -2.771   3.981  0.0154 -0.0167 -0.0457
   19BDTP    C516245   5.718  -2.665   3.897 -0.0392 -0.0050 -0.0598
   19BDTP    C616246   5.751  -2.539   3.946 -0.0666  0.0067 -0.0716
   19BDTP    C716247   5.646  -2.893   3.907  0.0355 -0.0277 -0.0351
   19BDTP    C816248   5.666  -2.883   3.773 -0.0008 -0.0248 -0.0406
   19BDTP    S116249   5.725  -2.718   3.722 -0.0657 -0.0079 -0.0598
   19BDTP    C916250   5.768  -2.396   4.158 -0.0594  0.0182 -0.0800
   19BDTP   C1016251   5.748  -2.406   4.292 -0.0230  0.0154 -0.0745
   19BDTP    S216252   5.689  -2.570   4.343  0.0419 -0.0015 -0.0552
   20FTM     S116253   5.461  -2.951   4.175 -0.3221  0.1046  0.2809
   20FTM     C116254   5.491  -3.046   4.325 -0.3110  0.3088  0.4085
   20FTM     C216255   5.603  -3.001   4.387 -0.0719  0.1227  0.1177
   20FTM     C316256   5.671  -2.892   4.323  0.1128 -0.1826 -0.2143
   20FTM     C416257   5.608  -2.853   4.208  0.0118 -0.2319 -0.1763
   20FTM     F116258   5.652  -3.055   4.505 -0.0060  0.2176  0.1346
   20FTM     C516259   5.399  -3.164   4.344  0.2000  0.5787  0.3168
   20FTM     C616260   5.243  -3.152   4.348  0.2485 -0.0129  0.7156
   20FTM     C716261   5.163  -3.287   4.355 -0.4861  0.0717 -0.5825
   20FTM     C816262   5.179  -3.394   4.251 -0.2545 -0.7960 -0.0711
   20FTM     C916263   5.066  -3.488   4.223  0.5569  0.5385 -0.1809
   20FTM    C1016264   4.926  -3.440   4.191 -0.3107 -1.0740  0.5337
   20FTM    C1116265   5.184  -3.040   4.435 -0.1713 -0.5295  0.0252
   20FTM    C1216266   5.046  -2.995   4.393  0.3432  0.3911 -0.3721
   21FTM     S116267   5.993  -2.466   3.804  0.2168 -0.0000 -0.0504
   21FTM     C116268   5.980  -2.314   3.707 -0.1849 -0.0830 -0.1298
   21FTM     C216269   5.856  -2.262   3.721 -0.4361 -0.5852 -0.4284
   21FTM     C316270   5.765  -2.334   3.805 -0.3338 -0.9274 -0.6095
   21FTM     C416271   5.822  -2.446   3.858  0.0065 -0.6797 -0.4439
   21FTM     F116272   5.816  -2.145   3.658 -0.7732 -0.7643 -0.5557
   21FTM     C516273   6.095  -2.270   3.624  0.5122 -0.4835  0.2444
   21FTM     C616274   6.215  -2.365   3.588 -0.2265  0.2365 -0.1970
   21FTM     C716275   6.179  -2.488   3.499  0.0166  0.0991 -0.4467
   21FTM     C816276   6.188  -2.462   3.349  0.2948  0.7993  0.1050
   21FTM     C916277   6.126  -2.563   3.253  0.0995 -0.7636  1.0565
   21FTM    C1016278   6.202  -2.696   3.251  0.2813  0.1747  0.2339
   21FTM    C1116279   6.320  -2.375   3.702  0.3904 -0.3448 -0.3587
   21FTM    C1216280   6.445  -2.460   3.696 -0.0040  0.2608  0.5100
   22TPM     C116281   5.758  -2.300   4.393  0.1294 -0.1755 -0.0086
   22TPM     C216282   5.748  -2.167   4.368  0.3535 -0.1645 -0.0495
   22TPM     C316283   5.760  -2.084   4.485  0.3440 -0.1575 -0.0533
   22TPM     C416284   5.780  -2.155   4.600  0.1126 -0.1630 -0.0158
   22TPM     S116285   5.785  -2.333   4.568 -0.1129 -0.1777  0.0280
   23BDD     C116286   5.857  -1.898   4.881 -0.0397  0.0242  0.1726
   23BDD     C216287   5.832  -2.014   4.949 -0.0417 -0.0138  0.1074
   23BDD     C316288   5.800  -2.126   4.862 -0.1028  0.0498  0.0468
   23BDD     C416289   5.802  -2.094   4.729 -0.1465  0.1356  0.0667
   23BDD     S116290   5.843  -1.921   4.704 -0.1143  0.1425  0.1627
   23BDD     C516291   5.835  -2.026   5.096  0.0125 -0.1101  0.0986
   23BDD     C616292   5.769  -2.261   4.915 -0.1155  0.0235 -0.0284
   23BDD     O116293   5.742  -2.357   4.840 -0.1681  0.0784 -0.0806
   23BDD     O216294   5.863  -1.929   5.171  0.0651 -0.1652  0.1508
   23BDD     C716295   5.773  -2.273   5.062 -0.0612 -0.0728 -0.0374
   23BDD     C816296   5.805  -2.160   5.149 -0.0001 -0.1367  0.0231
   23BDD     C916297   5.803  -2.192   5.281  0.0435 -0.2223  0.0035
   23BDD     S216298   5.761  -2.365   5.307  0.0113 -0.2293 -0.0926
   23BDD    C1016299   5.748  -2.388   5.130 -0.0632 -0.1109 -0.1024
   23BDD    C1116300   5.725  -2.531   5.094 -0.5710 -0.1552  0.4358
   23BDD    C1216301   5.844  -2.621   5.054  0.2645 -0.2786 -0.3708
   23BDD    C1316302   5.823  -2.750   4.987  0.2768 -0.1280  0.3410
   23BDD    C1416303   5.719  -2.769   4.877 -0.2658 -0.1207  0.0393
   23BDD    C1516304   5.698  -2.918   4.853  0.4427  0.4243 -0.4827
   23BDD    C1616305   5.809  -2.994   4.782 -0.5435 -0.1485 -0.1260
   23BDD    C1716306   5.967  -2.614   5.147 -0.2631  0.2050  0.2178
   23BDD    C1816307   5.965  -2.675   5.288  0.0032 -0.3516 -0.0271
   23BDD    C1916308   5.861  -2.131   5.406  0.3385 -0.6658 -0.1759
   23BDD    C2016309   6.011  -2.085   5.402  0.2477 -0.5147  0.0542
   23BDD    C2116310   6.108  -2.201   5.375 -0.3795 -0.1654  0.0871
   23BDD    C2216311   6.264  -2.169   5.351 -0.0992  0.0602  0.4374
   23BDD    C2316312   6.334  -2.287   5.290  0.1544  0.4367  0.4964
   23BDD    C2416313   6.481  -2.275   5.264  0.7043  0.4929  0.3865
   23BDD    C2516314   6.042  -1.994   5.531 -0.6706  0.0001 -0.2757
   23BDD    C2616315   6.047  -2.080   5.664 -0.4328 -0.0515  0.2302
   24TPM     C116316   5.874  -1.750   4.915 -0.1311 -0.0784  0.0550
   24TPM     C216317   5.862  -1.656   4.818 -0.2344 -0.0292  0.1149
   24TPM     C316318   5.878  -1.521   4.866 -0.1409 -0.0558  0.1594
   24TPM     C416319   5.902  -1.512   5.000  0.0335 -0.1254  0.1333
   24TPM     S116320   5.906  -1.676   5.077  0.0939 -0.1631  0.0501
   25BDTP    C116321   6.040  -0.959   5.270 -0.0873  0.1545 -0.0192
   25BDTP    C216322   6.020  -1.043   5.384 -0.0124  0.1080 -0.0405
   25BDTP    C316323   5.987  -1.177   5.373  0.0911  0.0844 -0.0747
   25BDTP    C416324   5.971  -1.231   5.244  0.1223  0.1082 -0.0885
   25BDTP    C516325   5.991  -1.147   5.130  0.0476  0.1545 -0.0670
   25BDTP    C616326   6.024  -1.013   5.141 -0.0560  0.1782 -0.0327
   25BDTP    C716327   5.937  -1.367   5.208  0.2250  0.0910 -0.1230
   25BDTP    C816328   5.929  -1.389   5.074  0.2309  0.1218 -0.1285
   25BDTP    S116329   5.965  -1.241   4.976  0.1070  0.1771 -0.0906
   25BDTP    C916330   6.074  -0.823   5.306 -0.1899  0.1717  0.0155
   25BDTP   C1016331   6.082  -0.801   5.440 -0.1957  0.1407  0.0210
   25BDTP    S216332   6.046  -0.949   5.538 -0.0718  0.0854 -0.0170
   26FTM     S116333   6.048  -1.426   5.502  0.2102 -0.1186 -0.3577
   26FTM     C116334   5.998  -1.439   5.675  0.0622 -0.6048 -0.4342
   26FTM     C216335   5.933  -1.325   5.713  0.1328 -0.6633 -0.1363
   26FTM     C316336   5.920  -1.223   5.613  0.3023 -0.3409  0.1624
   26FTM     C416337   5.975  -1.261   5.494  0.3635 -0.0262  0.0910
   26FTM     F116338   5.883  -1.306   5.841  0.0480 -1.0116 -0.1161
   26FTM     C516339   6.031  -1.559   5.767  0.7796 -0.2815  0.1866
   26FTM     C616340   6.141  -1.574   5.876  0.2203  0.0474 -0.4284
   26FTM     C716341   6.142  -1.716   5.934  0.0551 -0.0469 -0.9366
   26FTM     C816342   6.013  -1.784   5.995  0.3190 -0.2745 -0.2414
   26FTM     C916343   6.044  -1.928   6.030  0.0814 -0.1453 -0.6117
   26FTM    C1016344   5.919  -2.000   6.085  0.0742  0.2875  0.1603
   26FTM    C1116345   6.284  -1.519   5.869 -0.6788  0.2352 -0.1635
   26FTM    C1216346   6.306  -1.375   5.821  0.4943 -0.3162 -0.0012
   27FTM     S116347   5.989  -0.762   5.012  0.0754 -0.1721 -0.1979
   27FTM     C116348   6.049  -0.747   4.843  0.7157 -0.0887  0.0285
   27FTM     C216349   6.098  -0.866   4.800  1.0985 -0.0072  0.2341
   27FTM     C316350   6.093  -0.974   4.894  0.9217 -0.0045  0.2279
   27FTM     C416351   6.038  -0.937   5.013  0.3858 -0.0869  0.0109
   27FTM     F116352   6.151  -0.885   4.673  1.6320  0.0703  0.4398
   27FTM     C516353   6.050  -0.615   4.777  0.5372 -0.6531  0.8771
   27FTM     C616354   5.935  -0.594   4.678  0.6376  0.6025  0.7861
   27FTM     C716355   5.969  -0.477   4.579 -0.4835 -0.1304  0.0764
   27FTM     C816356   6.096  -0.498   4.491  0.6410  0.1120 -0.1728
   27FTM     C916357   6.094  -0.635   4.417 -0.1836 -0.1856 -0.7527
   27FTM    C1016358   6.225  -0.663   4.341  0.4070 -0.2070 -0.2729
   27FTM    C1116359   5.789  -0.580   4.730 -0.0828  0.5929 -0.8121
   27FTM    C1216360   5.683  -0.598   4.624  0.0287 -0.3970  0.1013
   28TPM     C116361   6.087  -0.672   5.504 -0.1262 -0.0204 -0.0443
   28TPM     C216362   6.081  -0.635   5.636  0.4517 -0.1674  0.0284
   28TPM     C316363   6.094  -0.493   5.657  1.0837 -0.2422  0.1789
   28TPM     C416364   6.110  -0.422   5.542  0.9878 -0.1521  0.2210
   28TPM     S116365   6.110  -0.529   5.396  0.0847  0.0355  0.0727
   29BDD     C116366   5.974  -0.070   5.437 -0.2741  0.1447  0.0893
   29BDD     C216367   6.055  -0.045   5.544 -0.2466  0.1762  0.0610
   29BDD     C316368   6.112  -0.165   5.602 -0.2707  0.1898  0.1125
   29BDD     C416369   6.073  -0.280   5.539 -0.3160  0.1684  0.1795
   29BDD     S116370   5.962  -0.245   5.402 -0.3319  0.1299  0.1825
   29BDD     C516371   6.084   0.090   5.596 -0.1973  0.1953 -0.0143
   29BDD     C616372   6.203  -0.162   5.718 -0.2477  0.2234  0.0936
   29BDD     O116373   6.253  -0.266   5.769 -0.2685  0.2351  0.1379
   29BDD     O216374   6.035   0.194   5.546 -0.1764  0.1836 -0.0588
   29BDD     C716375   6.232  -0.027   5.771 -0.1984  0.2422  0.0180
   29BDD     C816376   6.175   0.093   5.713 -0.1743  0.2286 -0.0334
   29BDD     C916377   6.215   0.208   5.776 -0.1289  0.2503 -0.1003
   29BDD     S216378   6.326   0.173   5.913 -0.1131  0.2887 -0.1032
   29BDD    C1016379   6.314  -0.002   5.878 -0.1709  0.2739 -0.0103
   29BDD    C1116380   6.406  -0.079   5.965  0.6185 -0.2473 -0.4197
   29BDD    C1216381   6.348  -0.103   6.107 -0.4771  0.5965  0.0882
   29BDD    C1316382   6.220  -0.182   6.117 -0.5167 -0.1753  0.1295
   29BDD    C1416383   6.228  -0.329   6.073  0.4099  0.1247 -0.0558
   29BDD    C1516384   6.108  -0.417   6.114 -0.2048  0.2410 -0.3583
   29BDD    C1616385   6.086  -0.528   6.018 -0.3537  0.3738  0.6721
   29BDD    C1716386   6.470  -0.145   6.199  0.7917 -0.3663  0.4354
   29BDD    C1816387   6.433  -0.114   6.346  0.3830  0.2293 -0.1905
   29BDD    C1916388   6.178   0.354   5.759  0.2882 -0.3444  0.1414
   29BDD    C2016389   6.238   0.430   5.644  0.2518 -0.2598 -0.1560
   29BDD    C2116390   6.180   0.576   5.642  0.1099 -0.4344 -0.3045
   29BDD    C2216391   6.034   0.609   5.631  0.2665  0.5736 -0.1885
   29BDD    C2316392   5.986   0.565   5.492  0.4635 -0.0771 -0.0719
   29BDD    C2416393   5.868   0.646   5.443  0.1113  0.1232  0.5464
   29BDD    C2516394   6.393   0.417   5.618  0.4879  0.7161 -0.0449
   29BDD    C2616395   6.493   0.499   5.698  0.7695  0.0747 -0.6011
   30TPM     C116396   5.869   0.012   5.373  0.0073  0.0349 -0.3538
   30TPM     C216397   5.902   0.116   5.291 -0.3692  0.3383 -0.1287
   30TPM     C316398   5.792   0.164   5.211 -0.6757  0.4703  0.3642
   30TPM     C416399   5.675   0.097   5.233 -0.5330  0.2674  0.5152
   30TPM     S116400   5.695  -0.033   5.356  0.0040 -0.1089  0.0429
   31BDTP    C116401   5.212   0.193   4.821 -0.0548 -0.0236  0.0385
   31BDTP    C216402   5.194   0.056   4.857 -0.0015 -0.0208  0.0768
   31BDTP    C316403   5.275  -0.009   4.948  0.0467  0.0262  0.0672
   31BDTP    C416404   5.380   0.064   5.007  0.0423  0.0726  0.0176
   31BDTP    C516405   5.399   0.200   4.971 -0.0107  0.0697 -0.0206
   31BDTP    C616406   5.317   0.266   4.880 -0.0589  0.0228 -0.0112
   31BDTP    C716407   5.477   0.018   5.104  0.0864  0.1257 -0.0013
   31BDTP    C816408   5.567   0.112   5.143  0.0693  0.1624 -0.0513
   31BDTP    S116409   5.540   0.272   5.061 -0.0051  0.1348 -0.0815
   31BDTP    C916410   5.115   0.239   4.724 -0.0987 -0.0767  0.0573
   31BDTP   C1016411   5.026   0.144   4.685 -0.0817 -0.1134  0.1073
   31BDTP    S216412   5.052  -0.016   4.767 -0.0072 -0.0859  0.1377
   32FTM     S116413   5.242  -0.203   5.143  0.0951  0.0855 -0.2330
   32FTM     C116414   5.197  -0.369   5.090 -0.0880  0.1235 -0.1976
   32FTM     C216415   5.196  -0.376   4.954 -0.0862  0.0935 -0.1961
   32FTM     C316416   5.229  -0.256   4.885  0.0542  0.0401 -0.2217
   32FTM     C416417   5.257  -0.153   4.970  0.1634  0.0288 -0.2434
   32FTM     F116418   5.164  -0.492   4.885 -0.2117  0.1123 -0.1712
   32FTM     C516419   5.179  -0.469   5.199  0.3381  0.4558  0.0550
   32FTM     C616420   5.042  -0.515   5.242 -0.3340  0.9394  0.1630
   32FTM     C716421   4.978  -0.614   5.138 -0.2295  0.0574 -0.3019
   32FTM     C816422   5.054  -0.746   5.122  0.0347 -0.1251 -0.6051
   32FTM     C916423   5.035  -0.830   5.251  0.0549 -0.4019 -0.0235
   32FTM    C1016424   5.106  -0.965   5.240  0.4071 -0.1632  0.3353
   32FTM    C1116425   4.947  -0.399   5.292 -0.9111 -0.3069 -0.3872
   32FTM    C1216426   4.810  -0.437   5.353  0.6234 -0.6164  0.4392
   33FTM     S116427   5.206   0.526   4.905 -0.1698  0.0597 -0.2558
   33FTM     C116428   5.307   0.664   4.849  0.0793  0.0154  0.0741
   33FTM     C216429   5.423   0.618   4.793  0.1496 -0.0444  0.2683
   33FTM     C316430   5.439   0.476   4.792  0.0170 -0.0590  0.1751
   33FTM     C416431   5.333   0.411   4.847 -0.1604 -0.0088 -0.0998
   33FTM     F116432   5.520   0.702   4.741  0.3381 -0.0894  0.5424
   33FTM     C516433   5.264   0.808   4.831  0.2849  0.0050 -0.1009
   33FTM     C616434   5.154   0.877   4.911 -0.5008 -0.4704 -1.2155
   33FTM     C716435   5.014   0.840   4.879 -0.0629  0.0334  0.6691
   33FTM     C816436   4.964   0.854   4.730  0.2015 -0.0086 -0.2450
   33FTM     C916437   4.824   0.785   4.697 -0.0848 -0.9280 -0.3535
   33FTM    C1016438   4.795   0.814   4.554  0.4077 -0.2749  0.6849
   33FTM    C1116439   5.168   0.877   5.067 -0.5558 -0.2332  0.2545
   33FTM    C1216440   5.307   0.915   5.123  0.0026  0.4578  0.1861
   34TPM     C116441   4.921   0.157   4.590  0.0567 -0.2048  0.2296
   34TPM     C216442   4.824   0.066   4.559 -0.3061  0.0612  0.5583
   34TPM     C316443   4.735   0.109   4.454 -0.3951  0.2088  0.6943
   34TPM     C416444   4.763   0.233   4.405 -0.0999  0.0554  0.4693
   34TPM     S116445   4.906   0.305   4.488  0.3164 -0.2901  0.0652
   35BDD     C116446   4.584   0.504   4.182 -0.4187  0.0217  0.3030
   35BDD     C216447   4.540   0.385   4.132 -0.3052  0.0294  0.1857
   35BDD     C316448   4.595   0.270   4.202 -0.1913  0.0130  0.0690
   35BDD     C416449   4.680   0.303   4.304 -0.2197 -0.0069  0.0990
   35BDD     S116450   4.696   0.481   4.320 -0.3908 -0.0066  0.2755
   35BDD     C516451   4.447   0.372   4.019 -0.2973  0.0520  0.1765
   35BDD     C616452   4.562   0.131   4.164 -0.0588  0.0177 -0.0681
   35BDD     O116453   4.610   0.031   4.224  0.0395  0.0036 -0.1687
   35BDD     O216454   4.399   0.471   3.959 -0.3954  0.0662  0.2773
   35BDD     C716455   4.469   0.118   4.051 -0.0508  0.0404 -0.0770
   35BDD     C816456   4.413   0.233   3.981 -0.1645  0.0568  0.0396
   35BDD     C916457   4.329   0.199   3.879 -0.1364  0.0767  0.0097
   35BDD     S216458   4.313   0.021   3.863  0.0348  0.0764 -0.1669
   35BDD    C1016459   4.425  -0.002   4.000  0.0626  0.0481 -0.1943
   35BDD    C1116460   4.451  -0.144   4.041 -0.5045  0.0388 -0.5807
   35BDD    C1216461   4.343  -0.235   4.103 -0.0782 -0.5129 -0.7825
   35BDD    C1316462   4.284  -0.192   4.245 -0.0573  0.1473  1.0611
   35BDD    C1416463   4.382  -0.144   4.347  0.0070  0.2331 -0.7543
   35BDD    C1516464   4.466  -0.259   4.414  0.3820 -0.3799  0.8265
   35BDD    C1616465   4.580  -0.226   4.505  0.5044  0.1532 -0.2540
   35BDD    C1716466   4.228  -0.282   4.010  0.3892  0.5286 -0.1534
   35BDD    C1816467   4.278  -0.327   3.873 -0.1134  0.1076  0.5517
   35BDD    C1916468   4.257   0.288   3.772  0.1473  0.5917  0.4076
   35BDD    C2016469   4.099   0.283   3.772 -0.5471  0.6177  0.2127
   35BDD    C2116470   4.054   0.364   3.654 -0.8837 -0.1031 -0.4836
   35BDD    C2216471   4.065   0.289   3.528  0.1844  0.0842 -0.0616
   35BDD    C2316472   4.012   0.358   3.399  0.1474  0.2990 -0.1906
   35BDD    C2416473   3.962   0.254   3.300 -0.5661 -0.5284  0.0372
   35BDD    C2516474   4.029   0.311   3.905 -0.1568 -0.7425 -0.1639
   35BDD    C2616475   3.877   0.279   3.903  0.1165 -0.4303 -0.7676
   36TPM     C116476   4.572   0.652   4.165  0.0358  0.4225 -0.0068
   36TPM     C216477   4.661   0.743   4.213  0.0899  0.4950 -0.2437
   36TPM     C316478   4.635   0.878   4.169  0.0849  0.4203 -0.4766
   36TPM     C416479   4.526   0.890   4.089  0.0268  0.2908 -0.4173
   36TPM     S116480   4.447   0.730   4.061 -0.0261  0.2528 -0.0596
   37BDTP    C116481   4.253   1.432   3.916 -0.0563 -0.1936  0.0037
   37BDTP    C216482   4.372   1.476   3.979  0.0308 -0.2280 -0.1357
   37BDTP    C316483   4.466   1.388   4.032  0.0633 -0.2548 -0.2393
   37BDTP    C416484   4.441   1.250   4.021  0.0076 -0.2476 -0.2037
   37BDTP    C516485   4.322   1.206   3.957 -0.0794 -0.2132 -0.0642
   37BDTP    C616486   4.228   1.294   3.905 -0.1121 -0.1863  0.0392
   37BDTP    C716487   4.524   1.141   4.067  0.0266 -0.2712 -0.2928
   37BDTP    C816488   4.473   1.018   4.042 -0.0409 -0.2564 -0.2279
   37BDTP    S116489   4.312   1.024   3.956 -0.1385 -0.2105 -0.0447
   37BDTP    C916490   4.170   1.542   3.870 -0.0755 -0.1700  0.0930
   37BDTP   C1016491   4.221   1.664   3.895 -0.0076 -0.1848  0.0281
   37BDTP    S216492   4.381   1.658   3.981  0.0899 -0.2307 -0.1552
   38FTM     S116493   4.755   1.424   4.066  0.1593  0.1869  0.1568
   38FTM     C116494   4.805   1.527   4.205 -0.1650  0.2028  0.2619
   38FTM     C216495   4.695   1.572   4.271 -0.3095 -0.4972  0.5219
   38FTM     C316496   4.568   1.531   4.218 -0.1801 -1.0746  0.6522
   38FTM     C416497   4.582   1.451   4.108  0.0717 -0.8081  0.4866
   38FTM     F116498   4.702   1.654   4.382 -0.5676 -0.6566  0.6574
   38FTM     C516499   4.943   1.531   4.255 -0.6401 -0.4466 -0.3349
   38FTM     C616500   4.989   1.442   4.370  0.6074  0.2971 -0.0422
   38FTM     C716501   5.133   1.461   4.414 -0.1048 -0.0097 -0.0097
   38FTM     C816502   5.173   1.599   4.465 -0.3803  0.6224 -0.3566
   38FTM     C916503   5.314   1.621   4.514 -0.0222  0.0407  0.1551
   38FTM    C1016504   5.332   1.764   4.555 -0.2847  0.0376  0.3928
   38FTM    C1116505   4.946   1.289   4.369 -0.4605 -0.3286  0.1012
   38FTM    C1216506   5.001   1.201   4.258  0.4519  0.9495 -0.0242
   39FTM     S116507   4.035   1.269   3.690  0.0174  0.1768  0.2751
   39FTM     C116508   3.878   1.191   3.732 -0.1161  0.1265 -0.2977
   39FTM     C216509   3.878   1.155   3.863 -0.4198 -0.2616 -0.4001
   39FTM     C316510   3.997   1.185   3.937 -0.5637 -0.5370 -0.0479
   39FTM     C416511   4.091   1.247   3.860 -0.3639 -0.3536  0.3368
   39FTM     F116512   3.771   1.092   3.924 -0.5854 -0.3906 -0.8190
   39FTM     C516513   3.778   1.152   3.631 -0.7198  0.0822  0.4113
   39FTM     C616514   3.698   1.264   3.564 -0.5545  0.0028 -0.2029
   39FTM     C716515   3.772   1.350   3.461  1.0188  0.1371 -0.0952
   39FTM     C816516   3.837   1.282   3.343 -0.0104 -0.3186  0.2328
   39FTM     C916517   3.904   1.388   3.245 -0.3425  0.4210 -0.6708
   39FTM    C1016518   4.029   1.332   3.187 -0.5060 -0.4054  0.4518
   39FTM    C1116519   3.611   1.335   3.666  0.1538 -0.0761  0.0020
   39FTM    C1216520   3.484   1.421   3.625 -0.9348 -0.1863 -0.2324
   40TPM     C116521   4.177   1.794   3.847  0.0604  0.1799 -0.3639
   40TPM     C216522   4.052   1.848   3.847  0.0007  0.0443 -0.4905
   40TPM     C316523   4.047   1.982   3.795 -0.0553  0.1181 -0.3000
   40TPM     C416524   4.169   2.029   3.754 -0.0383  0.3100 -0.0281
   40TPM     S116525   4.299   1.908   3.780  0.0506  0.4131  0.0086
   41BDD     C116526   4.330   2.378   3.669  0.0937 -0.0960 -0.1441
   41BDD     C216527   4.206   2.384   3.613  0.0658 -0.0492 -0.0767
   41BDD     C316528   4.129   2.262   3.632  0.0299 -0.0199 -0.0342
   41BDD     C416529   4.196   2.165   3.702  0.0310 -0.0448 -0.0698
   41BDD     S116530   4.360   2.220   3.749  0.0771 -0.1065 -0.1590
   41BDD     C516531   4.153   2.501   3.541  0.0708 -0.0297 -0.0489
   41BDD     C616532   3.991   2.246   3.581 -0.0044  0.0317  0.0402
   41BDD     O116533   3.925   2.141   3.597 -0.0353  0.0570  0.0769
   41BDD     O216534   4.219   2.606   3.525  0.1018 -0.0549 -0.0857
   41BDD     C716535   3.938   2.363   3.508  0.0008  0.0513  0.0679
   41BDD     C816536   4.015   2.485   3.489  0.0366  0.0219  0.0254
   41BDD     C916537   3.948   2.581   3.419  0.0356  0.0469  0.0610
   41BDD     S216538   3.784   2.527   3.373 -0.0106  0.1087  0.1502
   41BDD    C1016539   3.813   2.369   3.452 -0.0272  0.0981  0.1354
   41BDD    C1116540   3.712   2.259   3.430 -0.1921 -0.5486 -0.0461
   41BDD    C1216541   3.562   2.295   3.410 -0.2044  0.0165 -0.4566
   41BDD    C1316542   3.480   2.165   3.389 -0.1352  0.1062  1.0013
   41BDD    C1416543   3.472   2.058   3.503 -0.4304  0.1870  0.0330
   41BDD    C1516544   3.361   1.960   3.484  0.6402  0.2882  0.3950
   41BDD    C1616545   3.363   1.850   3.593  0.4362  0.1309  0.5949
   41BDD    C1716546   3.518   2.383   3.528  0.2445  0.6284  0.3243
   41BDD    C1816547   3.380   2.458   3.509 -0.9025  0.1976 -0.0988
   41BDD    C1916548   3.981   2.722   3.384 -0.8674  0.6900  0.0783
   41BDD    C2016549   4.088   2.729   3.268  0.1194  0.0066  0.3726
   41BDD    C2116550   4.041   2.673   3.130  0.1498 -0.5342 -0.5138
   41BDD    C2216551   4.142   2.669   3.021 -0.3124  0.7763  0.2635
   41BDD    C2316552   4.096   2.590   2.894  0.5699 -0.4989 -0.1190
   41BDD    C2416553   4.223   2.559   2.817 -0.4822  0.1445  0.3888
   41BDD    C2516554   4.160   2.869   3.254  0.4164 -0.4114  0.1520
   41BDD    C2616555   4.221   2.925   3.377 -0.6568 -0.0456 -0.3703
   42TPM     C116556   4.455   2.457   3.661  0.2216  0.3222  0.1551
   42TPM     C216557   4.493   2.514   3.543  0.3346 -0.0441  0.0142
   42TPM     C316558   4.632   2.551   3.538  0.4309 -0.4077 -0.1114
   42TPM     C416559   4.700   2.523   3.653  0.3914 -0.3187 -0.0661
   42TPM     S116560   4.593   2.447   3.777  0.2282  0.2357  0.1401
   43BDTP    C116561   5.322   2.586   3.674 -0.0660  0.0510 -0.0499
   43BDTP    C216562   5.298   2.485   3.772 -0.0614  0.0703 -0.0290
   43BDTP    C316563   5.170   2.439   3.803 -0.0566  0.0501 -0.0401
   43BDTP    C416564   5.061   2.494   3.733 -0.0566  0.0088 -0.0731
   43BDTP    C516565   5.085   2.595   3.635 -0.0610 -0.0106 -0.0940
   43BDTP    C616566   5.213   2.641   3.604 -0.0659  0.0097 -0.0830
   43BDTP    C716567   4.921   2.462   3.748 -0.0520 -0.0185 -0.0901
   43BDTP    C816568   4.839   2.533   3.666 -0.0532 -0.0568 -0.1222
   43BDTP    S116569   4.929   2.650   3.559 -0.0600 -0.0638 -0.1356
   43BDTP    C916570   5.462   2.618   3.660 -0.0705  0.0783 -0.0330
   43BDTP   C1016571   5.544   2.547   3.741 -0.0694  0.1166 -0.0008
   43BDTP    S216572   5.454   2.430   3.848 -0.0626  0.1236  0.0125
   44FTM     S116573   5.077   2.175   3.893 -0.3536 -0.0124  0.1220
   44FTM     C116574   5.111   2.142   4.067 -0.0798 -0.2147  0.0329
   44FTM     C216575   5.173   2.250   4.123  0.0008 -0.2765  0.0623
   44FTM     C316576   5.197   2.361   4.036 -0.1419 -0.1729  0.1543
   44FTM     C416577   5.153   2.338   3.909 -0.3381 -0.0268  0.1960
   44FTM     F116578   5.211   2.253   4.256  0.2085 -0.4306  0.0082
   44FTM     C516579   5.073   2.008   4.129 -0.5117 -0.2775  0.0622
   44FTM     C616580   5.104   1.880   4.051  0.2380  0.0544 -0.0151
   44FTM     C716581   5.244   1.853   4.014 -0.1828 -0.6871  0.1932
   44FTM     C816582   5.353   1.862   4.120 -0.8527 -0.0716 -0.6434
   44FTM     C916583   5.508   1.842   4.093  0.6271 -0.3004  0.2018
   44FTM    C1016584   5.571   1.911   3.974  0.0164 -0.7377  0.4429
   44FTM    C1116585   5.001   1.845   3.938 -0.0452 -0.6198  0.7124
   44FTM    C1216586   4.856   1.843   3.972  0.0330  0.1385 -0.1394
   45FTM     S116587   5.223   2.709   3.332 -0.4643  0.1109 -0.0533
   45FTM     C116588   5.258   2.880   3.289 -0.0015  0.0079 -0.0957
   45FTM     C216589   5.273   2.954   3.403  0.1771 -0.0013 -0.1137
   45FTM     C316590   5.259   2.883   3.526 -0.0300  0.0694 -0.0962
   45FTM     C416591   5.232   2.751   3.507 -0.3786  0.1349 -0.0635
   45FTM     F116592   5.301   3.090   3.401  0.5387 -0.0742 -0.1473
   45FTM     C516593   5.268   2.935   3.143 -0.2140 -0.4535 -0.5161
   45FTM     C616594   5.196   2.882   3.023  0.6994  0.2831 -0.4759
   45FTM     C716595   5.244   2.745   2.968 -0.5807 -0.2006 -0.5483
   45FTM     C816596   5.393   2.727   2.927  0.1601  0.5026  0.2773
   45FTM     C916597   5.448   2.797   2.808 -0.1905 -0.1623  0.0156
   45FTM    C1016598   5.599   2.793   2.787 -0.4274  0.1162  0.0611
   45FTM    C1116599   5.047   2.904   3.046  0.2353  0.4410  0.1748
   45FTM    C1216600   4.944   2.882   2.936 -0.0651  0.2108  0.2720
   46TPM     C116601   5.686   2.560   3.745  0.0605 -0.2379 -0.1435
   46TPM     C216602   5.778   2.468   3.784  0.0579 -0.1959 -0.0383
   46TPM     C316603   5.914   2.512   3.767  0.0595 -0.2316 -0.1217
   46TPM     C416604   5.926   2.637   3.715  0.0629 -0.3010 -0.2903
   46TPM     S116605   5.764   2.711   3.683  0.0647 -0.3267 -0.3576
   47BDD     C116606   6.198   2.789   3.481 -0.0810  0.1836  0.0626
   47BDD     C216607   6.263   2.764   3.598 -0.0639  0.1438  0.0448
   47BDD     C316608   6.178   2.703   3.699 -0.0043 -0.0467 -0.0212
   47BDD     C416609   6.050   2.681   3.656  0.0230 -0.1494 -0.0527
   47BDD     S116610   6.027   2.737   3.487 -0.0238 -0.0147 -0.0020
   47BDD     C516611   6.405   2.796   3.623 -0.1016  0.2794  0.0877
   47BDD     C616612   6.228   2.667   3.834  0.0232 -0.1198 -0.0504
   47BDD     O116613   6.155   2.614   3.920  0.0746 -0.2840 -0.1073
   47BDD     O216614   6.478   2.850   3.536 -0.1529  0.4437  0.1445
   47BDD     C716615   6.370   2.699   3.858 -0.0147  0.0157 -0.0075
   47BDD     C816616   6.454   2.761   3.757 -0.0741  0.2062  0.0584
   47BDD     C916617   6.583   2.782   3.800 -0.1014  0.3089  0.0899
   47BDD     S216618   6.606   2.727   3.969 -0.0546  0.1743  0.0392
   47BDD    C1016619   6.435   2.674   3.976  0.0026 -0.0240 -0.0253
   47BDD    C1116620   6.391   2.625   4.113  0.1088  0.4078 -0.0506
   47BDD    C1216621   6.388   2.474   4.139 -0.9395 -0.4441 -0.3423
   47BDD    C1316622   6.517   2.387   4.123  0.0837 -0.4609 -0.1156
   47BDD    C1416623   6.628   2.395   4.226 -0.1284 -0.0311  0.2872
   47BDD    C1516624   6.734   2.285   4.220  0.1343 -0.0210 -0.3694
   47BDD    C1616625   6.714   2.166   4.309  0.3690 -0.2028 -0.3107
   47BDD    C1716626   6.299   2.457   4.263 -0.1433 -0.2968  0.1061
   47BDD    C1816627   6.230   2.319   4.269  0.1027  0.2635 -0.3489
   47BDD    C1916628   6.699   2.855   3.735 -0.2907 -0.4992 -0.1809
   47BDD    C2016629   6.711   3.002   3.789  0.1914  0.6292  0.0174
   47BDD    C2116630   6.591   3.097   3.756  0.1613  0.9190  0.1419
   47BDD    C2216631   6.580   3.240   3.820  0.3818 -0.7039  0.0542
   47BDD    C2316632   6.621   3.256   3.964 -0.3607 -0.5630  0.3326
   47BDD    C2416633   6.610   3.394   4.022  0.4870 -0.2558 -0.0331
   47BDD    C2516634   6.851   3.066   3.764 -0.3415  0.3313  0.0447
   47BDD    C2616635   6.974   2.987   3.811  0.1236  0.2571 -0.0466
   48TPM     C116636   6.231   2.842   3.345  0.1706  0.1896 -0.2214
   48TPM     C216637   6.126   2.870   3.264  0.2161  0.3159 -0.2369
   48TPM     C316638   6.163   2.940   3.144  0.2760  0.5518 -0.0817
   48TPM     C416639   6.297   2.966   3.134  0.2760  0.6052  0.0522
   48TPM     S116640   6.387   2.902   3.277  0.1999  0.3600 -0.0078
   49BDTP    C116641   6.447   3.405   2.722  0.2756 -0.1850 -0.0383
   49BDTP    C216642   6.560   3.402   2.809  0.2062 -0.0186  0.0584
   49BDTP    C316643   6.573   3.310   2.913  0.2193  0.0477  0.1158
   49BDTP    C416644   6.470   3.216   2.931  0.3047 -0.0548  0.0764
   49BDTP    C516645   6.357   3.219   2.844  0.3743 -0.2211 -0.0201
   49BDTP    C616646   6.344   3.311   2.741  0.3612 -0.2875 -0.0777
   49BDTP    C716647   6.461   3.112   3.031  0.3343 -0.0137  0.1220
   49BDTP    C816648   6.349   3.037   3.024  0.4214 -0.1396  0.0651
   49BDTP    S116649   6.238   3.088   2.889  0.4785 -0.3279 -0.0544
   49BDTP    C916650   6.456   3.509   2.622  0.2463 -0.2260 -0.0839
   49BDTP   C1016651   6.569   3.584   2.630  0.1590 -0.1001 -0.0269
   49BDTP    S216652   6.680   3.533   2.765  0.1019  0.0883  0.0925
   50FTM     S116653   6.803   3.189   3.024  0.0962  0.1893 -0.4361
   50FTM     C116654   6.893   3.286   3.147 -0.2688 -0.0691  0.0412
   50FTM     C216655   6.834   3.408   3.162 -0.4520 -0.1876  0.2989
   50FTM     C316656   6.718   3.433   3.081 -0.3231 -0.0872  0.1444
   50FTM     C416657   6.688   3.327   3.001 -0.0317  0.1147 -0.2442
   50FTM     F116658   6.882   3.504   3.250 -0.7476 -0.3939  0.6898
   50FTM     C516659   7.017   3.232   3.202  0.1403 -0.6142 -0.0969
   50FTM     C616660   7.045   3.080   3.226  0.4568 -0.7101 -0.8536
   50FTM     C716661   7.083   2.998   3.103 -0.0519  0.5556  0.0904
   50FTM     C816662   7.213   3.042   3.035  0.2580 -0.6458 -0.4788
   50FTM     C916663   7.335   3.014   3.120 -0.6644 -0.4872  0.9481
   50FTM    C1016664   7.470   3.037   3.049  0.6043 -0.0341 -0.2481
   50FTM    C1116665   6.939   3.016   3.319  0.3290  0.9129 -0.1110
   50FTM    C1216666   6.978   2.879   3.385 -0.2754  0.0776  0.0476
   51FTM     S116667   6.223   3.318   2.473 -0.1287  0.0262 -0.1686
   51FTM     C116668   6.043   3.325   2.468 -0.1316 -0.0918 -0.2589
   51FTM     C216669   5.993   3.325   2.595 -0.1867  0.0724 -0.2798
   51FTM     C316670   6.090   3.320   2.701 -0.2291  0.2945 -0.2281
   51FTM     C416671   6.218   3.315   2.653 -0.2057  0.3008 -0.1656
   51FTM     F116672   5.858   3.330   2.623 -0.2019  0.0312 -0.3470
   51FTM     C516673   5.971   3.335   2.337  0.6189  0.4691 -0.1757
   51FTM     C616674   5.914   3.207   2.255  0.1479  0.3056 -0.1841
   51FTM     C716675   5.815   3.107   2.322  0.1874  0.0701 -0.5185
   51FTM     C816676   5.692   3.170   2.386  0.2308  0.8097  0.2859
   51FTM     C916677   5.616   3.070   2.480 -0.5435 -0.7872  0.0868
   51FTM    C1016678   5.478   3.117   2.515  0.0628  0.3209 -0.7260
   51FTM    C1116679   6.018   3.144   2.169 -0.3009  0.0279 -0.7727
   51FTM    C1216680   6.079   3.229   2.055 -0.3685  0.1975 -0.3349
   52TPM     C116681   6.609   3.685   2.538  0.3020  0.1842 -0.0152
   52TPM     C216682   6.578   3.711   2.408 -0.1605  0.2062  0.0961
   52TPM     C316683   6.650   3.822   2.352 -0.6231  0.4421 -0.0368
   52TPM     C416684   6.736   3.882   2.440 -0.5135  0.5999 -0.2494
   52TPM     S116685   6.733   3.801   2.601  0.1877  0.4617 -0.2986
   53BDD     C116686   6.975   4.140   2.266  0.0592 -0.0223  0.0429
   53BDD     C216687   6.924   4.205   2.375  0.0025  0.0266 -0.0127
   53BDD     C316688   6.832   4.124   2.453 -0.0989  0.0877 -0.0677
   53BDD     C416689   6.814   3.998   2.403 -0.1180  0.0848 -0.0532
   53BDD     S116690   6.911   3.973   2.254 -0.0103  0.0051  0.0302
   53BDD     C516691   6.957   4.344   2.412  0.0395  0.0190 -0.0172
   53BDD     C616692   6.765   4.174   2.575 -0.1733  0.1472 -0.1325
   53BDD     O116693   6.686   4.104   2.643 -0.2609  0.1999 -0.1799
   53BDD     O216694   7.036   4.414   2.345  0.1271 -0.0337  0.0302
   53BDD     C716695   6.799   4.313   2.612 -0.1364  0.1395 -0.1370
   53BDD     C816696   6.891   4.394   2.534 -0.0348  0.0783 -0.0820
   53BDD     C916697   6.908   4.520   2.585 -0.0157  0.0814 -0.0964
   53BDD     S216698   6.811   4.545   2.733 -0.1235  0.1612 -0.1798
   53BDD    C1016699   6.748   4.378   2.721 -0.1932  0.1885 -0.1926
   53BDD    C1116700   6.632   4.342   2.818  0.2168  0.3606 -0.0149
   53BDD    C1216701   6.488   4.311   2.774  0.0897  0.1444 -0.1515
   53BDD    C1316702   6.421   4.410   2.673  0.0176  0.0728 -0.2911
   53BDD    C1416703   6.471   4.458   2.543  0.1375  0.4576  0.7917
   53BDD    C1516704   6.473   4.358   2.425  0.5043  0.8883  0.1830
   53BDD    C1616705   6.529   4.409   2.300 -0.6258 -0.4938 -0.0782
   53BDD    C1716706   6.398   4.265   2.896  0.7393 -0.4013  0.1244
   53BDD    C1816707   6.336   4.375   2.991 -0.7289  0.1344 -0.2992
   53BDD    C1916708   7.001   4.631   2.549 -0.2513  0.3946 -0.6646
   53BDD    C2016709   6.972   4.696   2.411  0.5225  0.2260  0.2786
   53BDD    C2116710   6.827   4.721   2.376  0.5667 -0.6164  0.3316
   53BDD    C2216711   6.752   4.819   2.472 -0.2665  0.1886 -0.0010
   53BDD    C2316712   6.603   4.830   2.436  0.0035  0.3363 -0.2631
   53BDD    C2416713   6.536   4.927   2.523 -0.1836 -0.2726  0.1399
   53BDD    C2516714   7.065   4.805   2.373 -0.7715 -0.3352  0.3569
   53BDD    C2616715   7.210   4.771   2.341  0.3985  0.0961 -0.2206
   54TPM     C116716   7.085   4.164   2.171 -0.0150  0.6915  0.4451
   54TPM     C216717   7.165   4.062   2.127 -0.1261  0.4702  0.7530
   54TPM     C316718   7.269   4.104   2.037 -0.1879  0.0590  0.4842
   54TPM     C416719   7.269   4.238   2.012 -0.1238 -0.0332 -0.0289
   54TPM     S116720   7.136   4.322   2.101  0.0204  0.3954 -0.2137
   55BDTP    C116721   7.769   4.521   1.752 -0.0530  0.1078 -0.1587
   55BDTP    C216722   7.700   4.631   1.811 -0.0210  0.0328  0.0189
   55BDTP    C316723   7.580   4.617   1.878  0.0972 -0.0775  0.2091
   55BDTP    C416724   7.524   4.489   1.888  0.1881 -0.1158  0.2252
   55BDTP    C516725   7.592   4.379   1.829  0.1559 -0.0410  0.0477
   55BDTP    C616726   7.713   4.393   1.761  0.0378  0.0692 -0.1425
   55BDTP    C716727   7.400   4.450   1.953  0.3163 -0.2263  0.4057
   55BDTP    C816728   7.373   4.317   1.945  0.3815 -0.2379  0.3727
   55BDTP    S116729   7.500   4.223   1.855  0.2892 -0.1107  0.1083
   55BDTP    C916730   7.892   4.560   1.687 -0.1814  0.2182 -0.3392
   55BDTP   C1016731   7.920   4.693   1.695 -0.2465  0.2300 -0.3061
   55BDTP    S216732   7.793   4.787   1.785 -0.1543  0.1025 -0.0417
   56FTM     S116733   7.619   4.853   2.034 -0.1221 -0.2008  0.3928
   56FTM     C116734   7.475   4.959   2.057 -0.0686 -0.0965  0.2517
   56FTM     C216735   7.365   4.901   2.003  0.0648  0.2886 -0.4634
   56FTM     C316736   7.385   4.773   1.942  0.1322  0.5203 -0.9340
   56FTM     C416737   7.515   4.732   1.949  0.0471  0.3058 -0.5671
   56FTM     F116738   7.239   4.959   2.006  0.1343  0.4539 -0.7345
   56FTM     C516739   7.489   5.093   2.117  0.5467 -0.3177 -0.4279
   56FTM     C616740   7.486   5.114   2.268  0.3195 -0.0843 -0.0538
   56FTM     C716741   7.565   5.026   2.360 -0.0583  0.3040  0.6971
   56FTM     C816742   7.724   5.017   2.331 -0.1699  0.0172 -0.5044
   56FTM     C916743   7.810   4.937   2.428 -0.2873 -0.1369  0.3449
   56FTM    C1016744   7.956   4.974   2.416 -0.3139 -0.2075 -0.3332
   56FTM    C1116745   7.460   5.253   2.310 -0.3157  0.2551  0.1922
   56FTM    C1216746   7.565   5.363   2.291 -0.2832 -0.0618  0.1266
   57FTM     S116747   7.686   4.187   1.566 -0.2445  0.1884  0.1048
   57FTM     C116748   7.837   4.100   1.522 -0.4485 -0.1082 -0.0137
   57FTM     C216749   7.941   4.145   1.597 -0.2396 -0.0999 -0.3004
   57FTM     C316750   7.909   4.248   1.692  0.0837  0.1318 -0.4419
   57FTM     C416751   7.778   4.283   1.689  0.1238  0.3069 -0.2576
   57FTM     F116752   8.070   4.096   1.585 -0.3290 -0.3020 -0.4517
   57FTM     C516753   7.854   3.984   1.423  0.1704  0.0662 -0.0267
   57FTM     C616754   7.816   4.018   1.276 -0.0549  0.2028  0.5094
   57FTM     C716755   7.779   3.901   1.183  0.1503 -0.4718 -0.2484
   57FTM     C816756   7.865   3.770   1.182  0.4619  0.3024 -0.2537
   57FTM     C916757   8.006   3.782   1.137  0.6120  0.1447  0.5809
   57FTM    C1016758   8.085   3.656   1.159  0.0671  0.0888 -0.3778
   57FTM    C1116759   7.876   4.135   1.201  0.6973  0.3097  0.0344
   57FTM    C1216760   8.026   4.114   1.174  0.4692 -0.0623 -0.1379
   58TPM     C116761   8.034   4.766   1.649 -0.1354  0.2992 -0.4047
   58TPM     C216762   8.124   4.727   1.555 -0.5119  0.8363 -1.0031
   58TPM     C316763   8.222   4.829   1.524 -0.7265  1.0686 -0.9274
   58TPM     C416764   8.206   4.944   1.595 -0.5132  0.7088 -0.2711
   58TPM     S116765   8.064   4.934   1.707 -0.0212  0.0435  0.3065
   59BDD     C116766   8.439   5.243   1.702 -0.0832 -0.0837  0.1394
   59BDD     C216767   8.462   5.228   1.568 -0.0901 -0.1271  0.1430
   59BDD     C316768   8.387   5.119   1.509 -0.0305 -0.1985  0.1987
   59BDD     C416769   8.308   5.052   1.599  0.0212 -0.2087  0.2369
   59BDD     S116770   8.322   5.121   1.763 -0.0012 -0.1295  0.2056
   59BDD     C516771   8.553   5.314   1.490 -0.1519 -0.1044  0.0952
   59BDD     C616772   8.396   5.085   1.366 -0.0269 -0.2540  0.2121
   59BDD     O116773   8.331   4.991   1.314  0.0241 -0.3157  0.2601
   59BDD     O216774   8.618   5.408   1.541 -0.2034 -0.0429  0.0472
   59BDD     C716775   8.487   5.171   1.287 -0.0892 -0.2314  0.1644
   59BDD     C816776   8.562   5.280   1.347 -0.1488 -0.1599  0.1086
   59BDD     C916777   8.641   5.347   1.257 -0.2007 -0.1498  0.0705
   59BDD     S216778   8.627   5.277   1.092 -0.1784 -0.2290  0.1017
   59BDD    C1016779   8.510   5.156   1.153 -0.0966 -0.2747  0.1679
   59BDD    C1116780   8.460   5.052   1.049  0.3312 -0.3175 -0.5367
   59BDD    C1216781   8.368   5.103   0.938  0.1753 -1.1730  0.1762
   59BDD    C1316782   8.264   5.219   0.977 -0.2996  0.0002 -0.5238
   59BDD    C1416783   8.181   5.290   0.867 -0.0251  0.0298 -0.4932
   59BDD    C1516784   8.072   5.382   0.922  0.5040  0.1284  0.0281
   59BDD    C1616785   8.025   5.470   0.807  0.1475  0.1065  0.2916
   59BDD    C1716786   8.315   4.992   0.846  0.1679 -0.4183 -0.0799
   59BDD    C1816787   8.196   4.908   0.896 -0.0253  0.0303 -0.3943
   59BDD    C1916788   8.721   5.478   1.261 -0.3899  0.3314 -0.2750
   59BDD    C2016789   8.870   5.462   1.313  0.1353  0.3381 -0.1572
   59BDD    C2116790   8.954   5.591   1.334  0.7781  0.2620 -0.4875
   59BDD    C2216791   8.892   5.694   1.431  0.0213  0.0279  0.3514
   59BDD    C2316792   8.843   5.654   1.568 -0.4692  0.0421 -0.2827
   59BDD    C2416793   8.764   5.759   1.642 -0.8826 -0.0266 -0.4666
   59BDD    C2516794   8.946   5.343   1.252 -0.2624  0.1634  0.2067
   59BDD    C2616795   9.054   5.272   1.329 -0.3403 -0.3766  0.0461
   60TPM     C116796   8.489   5.330   1.812 -0.1526 -0.0149  0.3272
   60TPM     C216797   8.401   5.371   1.907  0.1559  0.1724  0.5378
   60TPM     C316798   8.452   5.474   1.994  0.4542  0.3160  0.1962
   60TPM     C416799   8.580   5.511   1.965  0.3729  0.2383 -0.2749
   60TPM     S116800   8.645   5.419   1.824 -0.0903 -0.0242 -0.3239
    1BDTP    C116801   4.947   5.943   3.786 -0.1274 -0.1197 -0.0604
    1BDTP    C216802   4.977   6.082   3.799 -0.0802 -0.1364  0.0117
    1BDTP    C316803   5.106   6.129   3.820 -0.0674 -0.1925  0.0595
    1BDTP    C416804   5.210   6.035   3.829 -0.1029 -0.2342  0.0353
    1BDTP    C516805   5.180   5.896   3.816 -0.1503 -0.2176 -0.0367
    1BDTP    C616806   5.051   5.849   3.795 -0.1629 -0.1614 -0.0845
    1BDTP    C716807   5.352   6.060   3.850 -0.0981 -0.2951  0.0750
    1BDTP    C816808   5.428   5.948   3.854 -0.1391 -0.3242  0.0367
    1BDTP    S116809   5.331   5.795   3.832 -0.1894 -0.2792 -0.0550
    1BDTP    C916810   4.806   5.918   3.765 -0.1322 -0.0589 -0.1000
    1BDTP   C1016811   4.730   6.030   3.760 -0.0912 -0.0296 -0.0618
    1BDTP    S216812   4.826   6.183   3.783 -0.0409 -0.0747  0.0299
    2FTM     S116813   5.242   6.375   3.731 -0.2417 -0.0535 -0.2390
    2FTM     C116814   5.194   6.525   3.819 -0.0830 -0.1477  0.0124
    2FTM     C216815   5.103   6.495   3.916  0.1929 -0.2713  0.2357
    2FTM     C316816   5.066   6.357   3.927  0.2949 -0.2995  0.2251
    2FTM     C416817   5.131   6.279   3.836  0.0911 -0.1941 -0.0140
    2FTM     F116818   5.047   6.590   3.999  0.3691 -0.3663  0.4629
    2FTM     C516819   5.243   6.656   3.762  0.1371  0.1119 -0.7006
    2FTM     C616820   5.163   6.784   3.765 -0.1822 -0.0721  0.0697
    2FTM     C716821   5.043   6.795   3.676  0.3547 -0.1822  0.2284
    2FTM     C816822   5.074   6.819   3.524  0.1055 -0.3020  0.1213
    2FTM     C916823   5.150   6.951   3.504  0.6715 -0.4607  0.2493
    2FTM    C1016824   5.177   6.970   3.354 -0.4348  0.0829 -0.3950
    2FTM    C1116825   5.151   6.863   3.899 -0.0809 -0.4861 -0.2562
    2FTM    C1216826   5.278   6.895   3.988 -0.1708  0.1243  0.5842
    3FTM     S116827   4.895   5.620   3.862 -0.1972 -0.2921  0.0407
    3FTM     C116828   4.938   5.467   3.776 -0.0943 -0.1611 -0.1416
    3FTM     C216829   5.045   5.489   3.695 -0.0610 -0.0108 -0.0591
    3FTM     C316830   5.098   5.622   3.695 -0.1121  0.0112  0.1461
    3FTM     C416831   5.030   5.705   3.778 -0.1871 -0.1269  0.2230
    3FTM     F116832   5.100   5.389   3.616  0.0179  0.1159 -0.1642
    3FTM     C516833   4.851   5.345   3.784  0.7318  0.1766 -0.1744
    3FTM     C616834   4.700   5.340   3.839 -0.1332  0.5128  0.0687
    3FTM     C716835   4.681   5.374   3.978  0.8617  0.0118 -0.2704
    3FTM     C816836   4.650   5.255   4.069 -0.0201 -0.2351 -0.1167
    3FTM     C916837   4.646   5.281   4.223 -0.4616  0.0745 -0.2743
    3FTM    C1016838   4.785   5.294   4.289  0.8385 -0.3244 -0.0013
    3FTM    C1116839   4.603   5.411   3.744 -0.1621 -0.3037 -0.2243
    3FTM    C1216840   4.460   5.379   3.767 -0.4562  0.0748  0.4469
    4TPM     C116841   4.589   6.036   3.730  0.2388 -0.0022 -0.6834
    4TPM     C216842   4.513   6.149   3.716  0.2637  0.0417 -0.4606
    4TPM     C316843   4.375   6.123   3.686  0.1053  0.1166  0.1718
    4TPM     C416844   4.345   5.990   3.676 -0.0405  0.1299  0.4313
    4TPM     S116845   4.490   5.887   3.705  0.0116  0.0481 -0.1072
    5BDD     C116846   4.016   5.791   3.750  0.0987 -0.0320 -0.3367
    5BDD     C216847   3.982   5.885   3.657  0.0455  0.0172 -0.2678
    5BDD     C316848   4.094   5.968   3.615 -0.0463  0.2555 -0.0463
    5BDD     C416849   4.211   5.936   3.678 -0.0615  0.3845  0.0506
    5BDD     S116850   4.190   5.800   3.792  0.0378  0.2165 -0.1288
    5BDD     C516851   3.846   5.903   3.603  0.0770 -0.1531 -0.4032
    5BDD     C616852   4.080   6.076   3.516 -0.1153  0.3467  0.0613
    5BDD     O116853   4.177   6.147   3.480 -0.1943  0.5523  0.2523
    5BDD     O216854   3.749   5.831   3.639  0.1560 -0.3586 -0.5943
    5BDD     C716855   3.944   6.094   3.461 -0.0837  0.1764 -0.0741
    5BDD     C816856   3.832   6.011   3.503  0.0080 -0.0619 -0.2957
    5BDD     C916857   3.715   6.043   3.441  0.0233 -0.1910 -0.3925
    5BDD     S216858   3.736   6.179   3.326 -0.0759 -0.0230 -0.2131
    5BDD    C1016859   3.910   6.188   3.368 -0.1369  0.2257 -0.0052
    5BDD    C1116860   3.973   6.304   3.305 -0.0165  0.2657  0.3440
    5BDD    C1216861   3.971   6.435   3.387  0.1802  0.6549  0.0015
    5BDD    C1316862   4.072   6.540   3.339 -0.2742  0.5536  0.0521
    5BDD    C1416863   4.057   6.632   3.210  0.1168 -0.2980  0.3117
    5BDD    C1516864   4.011   6.560   3.082 -0.1805 -0.2952 -0.8935
    5BDD    C1616865   3.993   6.655   2.966 -0.0844 -0.7124 -0.1355
    5BDD    C1716866   3.831   6.484   3.443 -0.1079 -0.3608  0.1533
    5BDD    C1816867   3.834   6.591   3.551 -0.0516 -0.3216  0.0545
    5BDD    C1916868   3.570   6.006   3.463  0.0322  0.6650 -0.3901
    5BDD    C2016869   3.509   5.880   3.397 -0.0344 -0.3775 -0.6373
    5BDD    C2116870   3.359   5.877   3.439  0.1311  0.8419  0.5198
    5BDD    C2216871   3.320   5.853   3.587 -0.3231  0.1810 -0.0164
    5BDD    C2316872   3.395   5.732   3.650 -0.0579 -0.5713  0.2290
    5BDD    C2416873   3.340   5.714   3.797 -0.2586 -0.0569  0.1546
    5BDD    C2516874   3.531   5.874   3.241 -0.0394 -0.1522 -0.9679
    5BDD    C2616875   3.459   5.980   3.162  0.3095  1.0016  0.1711
    6TPM     C116876   3.946   5.683   3.821 -0.2239  0.0705 -0.0732
    6TPM     C216877   3.850   5.703   3.916 -0.4546  0.0445 -0.2989
    6TPM     C316878   3.807   5.582   3.982 -0.4492  0.0552 -0.2759
    6TPM     C416879   3.871   5.470   3.937 -0.2144  0.0890 -0.0325
    6TPM     S116880   3.990   5.509   3.807  0.0198  0.1105  0.1881
    7BDTP    C116881   3.743   4.878   4.109 -0.0815 -0.2410  0.0515
    7BDTP    C216882   3.720   4.875   3.969 -0.1554 -0.1085  0.0600
    7BDTP    C316883   3.739   4.986   3.887 -0.1408 -0.0482  0.1451
    7BDTP    C416884   3.783   5.105   3.947 -0.0489 -0.1217  0.2252
    7BDTP    C516885   3.806   5.109   4.087  0.0250 -0.2542  0.2164
    7BDTP    C616886   3.787   4.998   4.169  0.0103 -0.3145  0.1315
    7BDTP    C716887   3.810   5.232   3.882 -0.0168 -0.0802  0.3206
    7BDTP    C816888   3.852   5.330   3.967  0.0765 -0.1740  0.3830
    7BDTP    S116889   3.863   5.274   4.140  0.1369 -0.3279  0.3300
    7BDTP    C916890   3.716   4.751   4.173 -0.1137 -0.2823 -0.0439
    7BDTP   C1016891   3.674   4.654   4.089 -0.2071 -0.1886 -0.1063
    7BDTP    S216892   3.664   4.710   3.916 -0.2674 -0.0347 -0.0533
    8FTM     S116893   3.833   4.834   3.669  0.1489 -0.0110  0.3757
    8FTM     C116894   3.775   4.874   3.503  0.2902 -0.2402  0.2689
    8FTM     C216895   3.694   4.984   3.508  0.5654 -0.0210  0.0026
    8FTM     C316896   3.673   5.041   3.638  0.6804  0.3303 -0.1312
    8FTM     C416897   3.740   4.973   3.735  0.4870  0.3816  0.0379
    8FTM     F116898   3.635   5.038   3.395  0.7296 -0.1253 -0.1355
    8FTM     C516899   3.808   4.780   3.395  0.0866  0.2275 -0.1878
    8FTM     C616900   3.754   4.630   3.399 -0.1927 -0.1990 -0.5301
    8FTM     C716901   3.775   4.547   3.273 -0.7250  0.1171  0.0679
    8FTM     C816902   3.899   4.564   3.183 -0.6004 -0.3773  0.6421
    8FTM     C916903   3.923   4.455   3.079 -0.3012 -0.6813  0.5871
    8FTM    C1016904   4.041   4.486   2.990 -0.0179 -0.5243 -0.0556
    8FTM    C1116905   3.615   4.608   3.460 -0.0021 -0.5212 -0.5979
    8FTM    C1216906   3.486   4.649   3.386 -0.0442  0.0338 -0.4535
    9FTM     S116907   3.862   4.917   4.433  0.2682  0.1599 -0.0759
    9FTM     C116908   3.794   5.017   4.566 -0.0341 -0.0023 -0.1087
    9FTM     C216909   3.710   5.111   4.516 -0.1826 -0.1565 -0.1545
    9FTM     C316910   3.695   5.112   4.373 -0.0728 -0.1578 -0.1663
    9FTM     C416911   3.769   5.015   4.313  0.1674  0.0005 -0.1286
    9FTM     F116912   3.643   5.203   4.595 -0.4265 -0.3055 -0.1882
    9FTM     C516913   3.825   4.990   4.709 -0.3151 -0.8284 -0.8394
    9FTM     C616914   3.963   4.939   4.753 -0.3659  0.3155  0.3825
    9FTM     C716915   3.960   4.864   4.879  0.6978 -0.2375 -0.5217
    9FTM     C816916   3.908   4.727   4.874 -0.0111  0.5174  0.1138
    9FTM     C916917   3.858   4.686   5.011  0.0896 -0.1682  0.2569
    9FTM    C1016918   3.829   4.534   5.028 -0.3906  0.1497  0.2172
    9FTM    C1116919   4.083   5.024   4.712  0.1092  0.0153 -0.6638
    9FTM    C1216920   4.219   4.959   4.707 -0.7204  0.3327  0.2770
   10TPM     C116921   3.647   4.519   4.116 -0.0794  0.2018 -0.2079
   10TPM     C216922   3.726   4.408   4.106  0.0695  0.3226 -0.4014
   10TPM     C316923   3.673   4.294   4.175  0.3664  0.2127 -0.3531
   10TPM     C416924   3.554   4.317   4.237  0.4440  0.0081 -0.1233
   10TPM     S116925   3.499   4.487   4.213  0.1458 -0.0621  0.0519
   11BDD     C116926   3.261   4.059   4.175 -0.2076  0.0498  0.1110
   11BDD     C216927   3.350   3.993   4.256 -0.1581 -0.0198 -0.0001
   11BDD     C316928   3.467   4.072   4.289 -0.0696 -0.0994 -0.1189
   11BDD     C416929   3.466   4.197   4.234 -0.0528 -0.0897 -0.0968
   11BDD     S116930   3.318   4.224   4.136 -0.1467  0.0203  0.0743
   11BDD     C516931   3.330   3.855   4.304 -0.1905 -0.0156 -0.0010
   11BDD     C616932   3.576   4.020   4.375 -0.0048 -0.1825 -0.2501
   11BDD     O116933   3.677   4.088   4.404  0.0715 -0.2513 -0.3526
   11BDD     O216934   3.229   3.787   4.275 -0.2668  0.0531  0.1016
   11BDD     C716935   3.556   3.882   4.424 -0.0373 -0.1785 -0.2508
   11BDD     C816936   3.439   3.803   4.390 -0.1258 -0.0987 -0.1320
   11BDD     C916937   3.440   3.678   4.446 -0.1426 -0.1086 -0.1541
   11BDD     S216938   3.588   3.651   4.544 -0.0487 -0.2184 -0.3252
   11BDD    C1016939   3.645   3.816   4.505  0.0122 -0.2478 -0.3619
   11BDD    C1116940   3.768   3.858   4.586  0.1762  0.0459 -0.6654
   11BDD    C1216941   3.912   3.826   4.547  0.0107 -0.0426 -0.9044
   11BDD    C1316942   3.962   3.885   4.415 -0.1915 -0.1999  0.4045
   11BDD    C1416943   3.996   4.036   4.415  0.2393  0.0498  0.1558
   11BDD    C1516944   4.065   4.081   4.289  0.1940 -0.2567 -0.2188
   11BDD    C1616945   4.054   4.234   4.274  0.3752  0.4411  0.0438
   11BDD    C1716946   3.963   3.687   4.565 -0.0962  0.6657  0.1413
   11BDD    C1816947   3.950   3.618   4.698 -0.5003  0.2088  0.8821
   11BDD    C1916948   3.356   3.551   4.413 -0.1449 -0.4415  0.3973
   11BDD    C2016949   3.243   3.502   4.505  0.4342  0.1324  0.1942
   11BDD    C2116950   3.149   3.613   4.565 -0.0415  0.7126 -0.2711
   11BDD    C2216951   3.035   3.668   4.481 -0.0892  0.0308  0.4684
   11BDD    C2316952   2.926   3.754   4.541 -0.0171  0.0759  0.2675
   11BDD    C2416953   2.819   3.802   4.440  0.1915  0.9362  0.5093
   11BDD    C2516954   3.170   3.370   4.460  0.6952  0.2056  0.3324
   11BDD    C2616955   3.259   3.254   4.404  0.2701  0.3785 -0.1662
   12TPM     C116956   3.134   4.031   4.100  0.3524 -0.1277 -0.2917
   12TPM     C216957   3.040   3.946   4.149  0.7240 -0.5788 -0.3543
   12TPM     C316958   2.915   3.950   4.078  0.5296 -0.6867 -0.0241
   12TPM     C416959   2.914   4.039   3.975  0.0099 -0.3175  0.2903
   12TPM     S116960   3.072   4.125   3.959 -0.2767  0.1987  0.1930
   13BDTP    C116961   2.401   4.153   3.623  0.1139 -0.2022 -0.4399
   13BDTP    C216962   2.496   4.244   3.568  0.1588 -0.1911 -0.3450
   13BDTP    C316963   2.626   4.254   3.615  0.0901 -0.1255 -0.1677
   13BDTP    C416964   2.665   4.171   3.721 -0.0286 -0.0681 -0.0795
   13BDTP    C516965   2.570   4.080   3.777 -0.0735 -0.0793 -0.1743
   13BDTP    C616966   2.440   4.070   3.730 -0.0047 -0.1447 -0.3517
   13BDTP    C716967   2.794   4.164   3.787 -0.1166  0.0047  0.1037
   13BDTP    C816968   2.800   4.073   3.887 -0.2240  0.0482  0.1501
   13BDTP    S116969   2.644   3.984   3.913 -0.2288  0.0029 -0.0313
   13BDTP    C916970   2.272   4.160   3.558  0.2020 -0.2751 -0.6230
   13BDTP   C1016971   2.265   4.250   3.457  0.3094 -0.3184 -0.6695
   13BDTP    S216972   2.421   4.340   3.431  0.3143 -0.2731 -0.4881
   14FTM     S116973   2.859   4.418   3.635 -0.2297 -0.4256 -0.0236
   14FTM     C116974   2.926   4.475   3.479 -0.1547  0.2106  0.2365
   14FTM     C216975   2.848   4.433   3.376 -0.3309  0.9667  0.0492
   14FTM     C316976   2.733   4.355   3.412 -0.5300  1.0941 -0.2995
   14FTM     C416977   2.723   4.337   3.547 -0.5057  0.4136 -0.3819
   14FTM     F116978   2.875   4.462   3.243 -0.3221  1.5881  0.1824
   14FTM     C516979   3.057   4.554   3.468 -0.3743 -0.6796  0.1001
   14FTM     C616980   3.087   4.700   3.515 -0.1268  0.5097 -0.5169
   14FTM     C716981   3.064   4.726   3.662  0.6515 -0.0340 -0.8202
   14FTM     C816982   3.127   4.633   3.775  0.0753  0.0899  0.4421
   14FTM     C916983   3.273   4.590   3.766 -0.0373  0.0153  0.1249
   14FTM    C1016984   3.302   4.483   3.877 -0.1168  0.1997  0.0691
   14FTM    C1116985   3.009   4.808   3.439  0.0876  0.3745 -0.2187
   14FTM    C1216986   3.045   4.822   3.292  0.7679 -0.2297 -0.1176
   15FTM     S116987   2.278   3.840   3.678 -0.0925 -0.0374 -0.0849
   15FTM     C116988   2.200   3.760   3.819 -0.1432 -0.0262 -0.1065
   15FTM     C216989   2.233   3.826   3.933 -0.0566 -0.1113 -0.0827
   15FTM     C316990   2.319   3.939   3.919  0.0517 -0.1888 -0.0470
   15FTM     C416991   2.353   3.961   3.788  0.0479 -0.1618 -0.0434
   15FTM     F116992   2.187   3.787   4.058 -0.0703 -0.1244 -0.0917
   15FTM     C516993   2.110   3.644   3.798  0.7052 -0.0883  0.2689
   15FTM     C616994   2.162   3.501   3.770 -0.4937 -0.2387 -0.9945
   15FTM     C716995   2.247   3.449   3.889 -0.0210 -0.1926  0.1680
   15FTM     C816996   2.191   3.405   4.028  0.3302  0.6773 -0.0807
   15FTM     C916997   2.098   3.285   4.016  0.0580  0.2178  0.1956
   15FTM    C1016998   2.042   3.230   4.151  0.0088  0.7679  0.1122
   15FTM    C1116999   2.245   3.467   3.646 -0.4238 -0.3541 -0.0989
   15FTM    C1217000   2.177   3.511   3.518 -0.5359  0.2708  0.2322
   16TPM     C117001   2.147   4.286   3.378  0.2366 -0.1269  0.0925
   16TPM     C217002   2.129   4.370   3.272  0.4997 -0.4923 -0.2460
   16TPM     C317003   1.995   4.371   3.221  0.6157 -0.6335 -0.5579
   16TPM     C417004   1.910   4.288   3.288  0.4411 -0.3756 -0.4573
   16TPM     S117005   1.993   4.201   3.422  0.1140  0.0689  0.0431
   17BDD     C117006   1.577   4.310   3.078  0.0881  0.0321  0.1069
   17BDD     C217007   1.577   4.182   3.127  0.0652  0.0244  0.0870
   17BDD     C317008   1.692   4.153   3.211  0.1361 -0.0533 -0.0344
   17BDD     C417009   1.776   4.259   3.226  0.2120 -0.1040 -0.1052
   17BDD     S117010   1.719   4.403   3.135  0.2000 -0.0573 -0.0249
   17BDD     C517011   1.473   4.081   3.097 -0.0228  0.0883  0.1789
   17BDD     C617012   1.713   4.021   3.275  0.1259 -0.0747 -0.0756
   17BDD     O117013   1.811   3.996   3.348  0.1871 -0.1419 -0.1803
   17BDD     O217014   1.374   4.106   3.024 -0.0839  0.1554  0.2835
   17BDD     C717015   1.608   3.921   3.245  0.0380 -0.0110  0.0163
   17BDD     C817016   1.494   3.950   3.160 -0.0329  0.0669  0.1377
   17BDD     C917017   1.409   3.843   3.145 -0.1089  0.1173  0.2086
   17BDD     S217018   1.466   3.700   3.237 -0.0969  0.0709  0.1282
   17BDD    C1017019   1.609   3.793   3.294  0.0151 -0.0187 -0.0036
   17BDD    C1117020   1.701   3.714   3.392  0.4109  0.0123  0.0196
   17BDD    C1217021   1.643   3.656   3.525 -0.3243 -0.2644  0.2922
   17BDD    C1317022   1.569   3.765   3.607 -0.3025  0.1064 -0.2191
   17BDD    C1417023   1.667   3.869   3.672 -0.0662  0.3155  0.5859
   17BDD    C1517024   1.604   3.974   3.755 -0.2548 -0.8055 -0.3482
   17BDD    C1617025   1.565   3.936   3.898 -0.3914  0.3346 -0.1520
   17BDD    C1717026   1.758   3.575   3.585 -0.6821 -0.4203  0.3941
   17BDD    C1817027   1.722   3.503   3.714  0.2358  0.1493 -0.3052
   17BDD    C1917028   1.274   3.813   3.087 -0.1544 -0.6266 -0.1365
   17BDD    C2017029   1.154   3.817   3.181 -0.6224 -0.0611 -0.9415
   17BDD    C2117030   1.033   3.752   3.112 -0.0884  0.2146 -0.2940
   17BDD    C2217031   0.905   3.732   3.191  0.2871 -0.6696 -0.0658
   17BDD    C2317032   0.803   3.648   3.114 -0.1398 -0.3169  0.3106
   17BDD    C2417033   0.668   3.651   3.170  0.5755 -0.0130  0.3623
   17BDD    C2517034   1.127   3.951   3.252  0.0016 -0.2598 -0.2641
   17BDD    C2617035   1.089   4.068   3.163 -0.3212 -0.3546  0.4483
   18TPM     C117036   1.480   4.390   3.001 -0.0216  0.2555  0.1071
   18TPM     C217037   1.520   4.470   2.898 -0.1696  0.0517 -0.1114
   18TPM     C317038   1.411   4.534   2.829 -0.2724 -0.1296 -0.1188
   18TPM     C417039   1.288   4.503   2.879 -0.2029 -0.0641  0.0942
   18TPM     S117040   1.301   4.389   3.018 -0.0005  0.2340  0.3222
   19BDTP    C117041   0.727   4.607   2.605 -0.0671 -0.0263  0.0478
   19BDTP    C217042   0.692   4.531   2.720 -0.0974 -0.0163  0.0452
   19BDTP    C317043   0.787   4.486   2.811 -0.1165 -0.0468  0.0498
   19BDTP    C417044   0.922   4.517   2.788 -0.1053 -0.0889  0.0575
   19BDTP    C517045   0.957   4.594   2.674 -0.0749 -0.0987  0.0603
   19BDTP    C617046   0.863   4.639   2.582 -0.0558 -0.0683  0.0554
   19BDTP    C717047   1.037   4.482   2.869 -0.1208 -0.1258  0.0635
   19BDTP    C817048   1.155   4.528   2.821 -0.1038 -0.1624  0.0705
   19BDTP    S117049   1.137   4.622   2.667 -0.0657 -0.1553  0.0703
   19BDTP    C917050   0.613   4.643   2.524 -0.0516  0.0105  0.0418
   19BDTP   C1017051   0.494   4.597   2.572 -0.0685  0.0472  0.0350
   19BDTP    S217052   0.512   4.503   2.726 -0.1066  0.0401  0.0351
   20FTM     S117053   0.805   4.257   2.983 -0.1012 -0.0274 -0.1627
   20FTM     C117054   0.721   4.275   3.141 -0.0481  0.4105 -0.1802
   20FTM     C217055   0.655   4.394   3.146  0.2780  0.5990 -0.3314
   20FTM     C317056   0.666   4.477   3.029  0.5009  0.4185 -0.4402
   20FTM     C417057   0.743   4.419   2.932  0.3404  0.0811 -0.3700
   20FTM     F117058   0.581   4.435   3.256  0.3938  0.9460 -0.3803
   20FTM     C517059   0.730   4.156   3.240  0.2901 -0.2449 -0.7212
   20FTM     C617060   0.683   4.164   3.392  0.6395  0.4196  0.4124
   20FTM     C717061   0.645   4.015   3.414 -0.5660 -0.3773 -0.7549
   20FTM     C817062   0.554   3.972   3.525  0.2274 -0.0409 -0.0681
   20FTM     C917063   0.421   4.054   3.542  0.2235  0.0499  0.2537
   20FTM    C1017064   0.344   4.024   3.666  0.4573  0.5188 -0.4369
   20FTM    C1117065   0.773   4.234   3.494  0.8238  0.4769  0.6849
   20FTM    C1217066   0.912   4.178   3.510  0.6327 -0.2582  0.3667
   21FTM     S117067   0.865   4.685   2.294  0.3660 -0.1857 -0.0713
   21FTM     C117068   0.919   4.849   2.245  0.1992 -0.1856 -0.2551
   21FTM     C217069   0.963   4.918   2.353 -0.3648  0.1714 -0.2458
   21FTM     C317070   0.958   4.849   2.479 -0.6936  0.4597 -0.0987
   21FTM     C417071   0.908   4.723   2.466 -0.3709  0.3187  0.0081
   21FTM     F117072   1.011   5.048   2.345 -0.6167  0.2584 -0.3700
   21FTM     C517073   0.889   4.879   2.097 -0.3356  0.0603  0.2004
   21FTM     C617074   0.764   4.957   2.054 -0.2314 -0.0116  0.1044
   21FTM     C717075   0.760   4.983   1.904  0.1095 -0.0047 -0.2567
   21FTM     C817076   0.795   5.119   1.849  0.1413 -0.1336  0.1385
   21FTM     C917077   0.744   5.249   1.925  0.2651  0.1766  0.3657
   21FTM    C1017078   0.603   5.291   1.886  0.3470  0.4731  0.1279
   21FTM    C1117079   0.635   4.916   2.118  0.2907 -0.1954 -0.2280
   21FTM    C1217080   0.555   4.796   2.065  0.0144 -0.7125 -0.4428
   22TPM     C117081   0.372   4.601   2.493 -0.1089  0.1290  0.6542
   22TPM     C217082   0.332   4.695   2.403  0.0686  0.1915  0.6399
   22TPM     C317083   0.219   4.655   2.323  0.1977  0.2633  0.4182
   22TPM     C417084   0.173   4.530   2.353  0.1187  0.2558  0.2634
   22TPM     S117085   0.270   4.453   2.484 -0.1269  0.1563  0.3866
   23BDD     C117086  -0.114   4.414   2.105 -0.2179  0.1108  0.1463
   23BDD     C217087  -0.158   4.381   2.231 -0.1400  0.0807  0.1658
   23BDD     C317088  -0.065   4.419   2.336 -0.0124 -0.0666  0.1070
   23BDD     C417089   0.048   4.480   2.289  0.0051 -0.1471  0.0437
   23BDD     S117090   0.046   4.495   2.111 -0.1366 -0.0437  0.0532
   23BDD     C517091  -0.286   4.314   2.258 -0.1798  0.1868  0.2390
   23BDD     C617092  -0.092   4.393   2.479  0.0875 -0.1224  0.1158
   23BDD     O117093  -0.012   4.425   2.570  0.1974 -0.2497  0.0650
   23BDD     O217094  -0.366   4.281   2.168 -0.2899  0.3140  0.2897
   23BDD     C717095  -0.221   4.325   2.506  0.0472 -0.0166  0.1891
   23BDD     C817096  -0.313   4.288   2.401 -0.0803  0.1310  0.2479
   23BDD     C917097  -0.427   4.227   2.448 -0.0978  0.2114  0.3113
   23BDD     S217098  -0.425   4.212   2.627  0.0439  0.1079  0.3018
   23BDD    C1017099  -0.265   4.292   2.632  0.1254 -0.0465  0.2086
   23BDD    C1117100  -0.196   4.293   2.771 -0.3795 -0.0279  0.0829
   23BDD    C1217101  -0.152   4.161   2.831 -0.0134 -0.9314 -0.3797
   23BDD    C1317102  -0.048   4.089   2.744  0.2336 -0.0244 -0.2482
   23BDD    C1417103   0.091   4.141   2.701 -0.0873  0.6139  0.0075
   23BDD    C1517104   0.198   4.124   2.807  0.1500 -0.4506  0.0228
   23BDD    C1617105   0.332   4.169   2.747  0.4699  0.4191 -0.5957
   23BDD    C1717106  -0.101   4.185   2.978  0.2472 -0.4145  0.5653
   23BDD    C1817107  -0.202   4.236   3.088  0.1446  0.7784  1.1468
   23BDD    C1917108  -0.553   4.180   2.374 -0.4462 -0.0442 -0.2017
   23BDD    C2017109  -0.538   4.044   2.299 -0.5761 -0.2960 -0.6085
   23BDD    C2117110  -0.496   3.919   2.380 -0.0698 -0.2968 -0.2447
   23BDD    C2217111  -0.594   3.853   2.479  0.7179 -0.2650  0.0850
   23BDD    C2317112  -0.601   3.702   2.503  0.3873 -0.2353  0.6246
   23BDD    C2417113  -0.475   3.617   2.523 -0.6492 -0.0680  0.6210
   23BDD    C2517114  -0.650   4.006   2.200 -1.2016 -0.2887  0.7027
   23BDD    C2617115  -0.680   4.079   2.066  0.2080 -1.1700 -0.7654
   24TPM     C117116  -0.150   4.379   1.969 -0.2395 -0.4176  0.4669
   24TPM     C217117  -0.052   4.347   1.880 -0.0057 -1.0676  0.9422
   24TPM     C317118  -0.101   4.304   1.752  0.3259 -0.9180  0.7604
   24TPM     C417119  -0.237   4.303   1.743  0.3456 -0.1539  0.1465
   24TPM     S117120  -0.314   4.357   1.897 -0.0569  0.4407 -0.2527
   25BDTP    C117121  -0.596   4.295   1.225  0.1426  0.0477  0.1545
   25BDTP    C217122  -0.465   4.307   1.171  0.1302  0.1011  0.1356
   25BDTP    C317123  -0.351   4.309   1.251  0.1392  0.1702  0.1208
   25BDTP    C417124  -0.368   4.299   1.391  0.1616  0.1879  0.1248
   25BDTP    C517125  -0.500   4.287   1.444  0.1740  0.1343  0.1436
   25BDTP    C617126  -0.613   4.285   1.364  0.1650  0.0652  0.1584
   25BDTP    C717127  -0.266   4.299   1.493  0.1747  0.2557  0.1118
   25BDTP    C817128  -0.313   4.288   1.619  0.1965  0.2561  0.1199
   25BDTP    S117129  -0.495   4.276   1.626  0.2027  0.1702  0.1451
   25BDTP    C917130  -0.699   4.295   1.122  0.1292 -0.0204  0.1674
   25BDTP   C1017131  -0.651   4.306   0.996  0.1080 -0.0206  0.1594
   25BDTP    S217132  -0.470   4.318   0.989  0.1015  0.0652  0.1341
   26FTM     S117133  -0.091   4.425   1.235 -0.1234 -0.0366  0.0471
   26FTM     C117134   0.014   4.356   1.105 -0.0578 -0.0466  0.1056
   26FTM     C217135  -0.053   4.259   1.038 -0.1199  0.1398 -0.1006
   26FTM     C317136  -0.187   4.233   1.081 -0.2198  0.2980 -0.3116
   26FTM     C417137  -0.224   4.313   1.185 -0.2350  0.2307 -0.2654
   26FTM     F117138   0.003   4.189   0.932 -0.0899  0.1782 -0.1106
   26FTM     C517139   0.154   4.408   1.092  0.5359 -0.7051  0.4548
   26FTM     C617140   0.186   4.553   1.049  0.2677  0.2188  0.2779
   26FTM     C717141   0.134   4.598   0.907  0.0485 -0.3082  0.0989
   26FTM     C817142   0.158   4.508   0.790 -0.3541 -0.1265 -0.0600
   26FTM     C917143   0.300   4.485   0.738  0.2242 -0.1184 -0.2406
   26FTM    C1017144   0.309   4.410   0.603 -0.0152  0.0930  0.0448
   26FTM    C1117145   0.170   4.667   1.146  0.3631  0.4102  0.4265
   26FTM    C1217146   0.258   4.658   1.269 -0.0493 -0.6585  0.3478
   27FTM     S117147  -0.857   4.141   1.375  0.2728  0.1250  0.1328
   27FTM     C117148  -0.974   4.186   1.504  0.1383  0.1577 -0.0003
   27FTM     C217149  -0.926   4.290   1.576 -0.0153  0.2887 -0.0861
   27FTM     C317150  -0.797   4.340   1.537 -0.0365  0.3697 -0.0542
   27FTM     C417151  -0.746   4.272   1.431  0.1041  0.2984  0.0596
   27FTM     F117152  -0.995   4.346   1.682 -0.1450  0.3430 -0.1985
   27FTM     C517153  -1.110   4.112   1.524 -0.4004 -0.2049  0.1210
   27FTM     C617154  -1.236   4.163   1.451  0.3923 -0.4255  0.1382
   27FTM     C717155  -1.238   4.145   1.297 -0.4781 -0.3170 -0.1556
   27FTM     C817156  -1.232   4.005   1.246 -0.3845  0.1787 -0.3398
   27FTM     C917157  -1.224   3.993   1.091 -0.4361 -0.0771 -0.9547
   27FTM    C1017158  -1.230   3.844   1.047  1.0802 -0.0158  0.0029
   27FTM    C1117159  -1.289   4.306   1.485 -0.3589 -0.0973  1.2028
   27FTM    C1217160  -1.312   4.342   1.629  0.3458 -0.3724 -0.2249
   28TPM     C117161  -0.716   4.329   0.871  0.2766  0.0932 -0.0715
   28TPM     C217162  -0.850   4.342   0.850  0.2346  0.1791  0.2392
   28TPM     C317163  -0.883   4.390   0.718 -0.0486 -0.0199  0.2369
   28TPM     C417164  -0.775   4.413   0.639 -0.2227 -0.2576 -0.0755
   28TPM     S117165  -0.621   4.376   0.725 -0.0410 -0.2483 -0.3936
   29BDD     C117166  -0.703   4.682   0.369  0.0447 -0.0643 -0.0417
   29BDD     C217167  -0.816   4.620   0.325  0.0515 -0.0936 -0.0172
   29BDD     C317168  -0.864   4.516   0.415  0.0629 -0.0638  0.0233
   29BDD     C417169  -0.785   4.501   0.526  0.0651 -0.0121  0.0291
   29BDD     S117170  -0.647   4.615   0.525  0.0527  0.0027 -0.0157
   29BDD     C517171  -0.886   4.654   0.199  0.0472 -0.1502 -0.0302
   29BDD     C617172  -0.985   4.436   0.388  0.0715 -0.0876  0.0548
   29BDD     O117173  -1.026   4.347   0.465  0.0818 -0.0620  0.0897
   29BDD     O217174  -0.845   4.743   0.121  0.0374 -0.1760 -0.0652
   29BDD     C717175  -1.055   4.470   0.262  0.0675 -0.1442  0.0418
   29BDD     C817176  -1.007   4.574   0.172  0.0558 -0.1740  0.0012
   29BDD     C917177  -1.086   4.590   0.061  0.0539 -0.2257 -0.0046
   29BDD     S217178  -1.224   4.475   0.061  0.0661 -0.2405  0.0403
   29BDD    C1017179  -1.168   4.408   0.218  0.0741 -0.1736  0.0663
   29BDD    C1117180  -1.267   4.312   0.278  0.0199  0.4294 -0.6952
   29BDD    C1217181  -1.397   4.372   0.344 -0.3543  0.6489 -0.2878
   29BDD    C1317182  -1.500   4.264   0.376  0.3209 -0.1858  0.1475
   29BDD    C1417183  -1.646   4.310   0.385  0.1142 -0.1018  0.1159
   29BDD    C1517184  -1.742   4.195   0.393 -0.2766 -0.3561 -0.2563
   29BDD    C1617185  -1.879   4.253   0.412 -0.1632 -0.5939 -0.2340
   29BDD    C1717186  -1.371   4.479   0.457  0.6170 -0.4458  0.2734
   29BDD    C1817187  -1.333   4.419   0.585 -0.4668  0.1335 -0.5135
   29BDD    C1917188  -1.092   4.691  -0.049 -0.4034  0.0456  0.1858
   29BDD    C2017189  -0.985   4.681  -0.161  0.3408  0.0026  0.1207
   29BDD    C2117190  -0.980   4.807  -0.253 -0.3290  0.2082 -0.3370
   29BDD    C2217191  -0.856   4.832  -0.340  0.5453 -0.0090  0.3306
   29BDD    C2317192  -0.859   4.768  -0.475  0.0741 -0.8158 -0.0801
   29BDD    C2417193  -0.721   4.772  -0.532 -0.5022 -0.1155  0.0693
   29BDD    C2517194  -0.932   4.542  -0.214  0.4713 -0.8692 -0.0260
   29BDD    C2617195  -1.028   4.459  -0.304 -0.3318  0.1999 -0.3209
   30TPM     C117196  -0.603   4.777   0.314  0.1924 -0.4939  0.0368
   30TPM     C217197  -0.653   4.900   0.282 -0.1252 -0.5953  0.1383
   30TPM     C317198  -0.553   5.004   0.276 -0.4020 -0.3148  0.2995
   30TPM     C417199  -0.426   4.960   0.303 -0.2958  0.0004  0.3209
   30TPM     S117200  -0.424   4.783   0.338  0.1662 -0.0327  0.1377
   31BDTP    C117201   0.131   5.245   0.302  0.0664 -0.0454  0.1303
   31BDTP    C217202   0.043   5.350   0.341  0.0005 -0.0345 -0.0477
   31BDTP    C317203  -0.093   5.332   0.355 -0.0045 -0.0659 -0.1361
   31BDTP    C417204  -0.147   5.205   0.330  0.0584 -0.1104 -0.0450
   31BDTP    C517205  -0.059   5.099   0.291  0.1242 -0.1212  0.1329
   31BDTP    C617206   0.078   5.117   0.277  0.1294 -0.0898  0.2214
   31BDTP    C717207  -0.285   5.162   0.338  0.0662 -0.1484 -0.1091
   31BDTP    C817208  -0.305   5.032   0.308  0.1345 -0.1869  0.0107
   31BDTP    S117209  -0.152   4.944   0.265  0.1976 -0.1802  0.2215
   31BDTP    C917210   0.270   5.287   0.294  0.0584 -0.0073  0.1943
   31BDTP   C1017211   0.290   5.418   0.324 -0.0096  0.0312  0.0745
   31BDTP    S217212   0.136   5.505   0.367 -0.0729  0.0246 -0.1362
   32FTM     S117213  -0.132   5.621   0.392  0.2800 -0.0023  0.2295
   32FTM     C117214  -0.298   5.673   0.440  0.3000  0.2587  0.0204
   32FTM     C217215  -0.379   5.564   0.452  0.0231  0.4140 -0.4172
   32FTM     C317216  -0.319   5.437   0.424 -0.2162  0.3409 -0.6117
   32FTM     C417217  -0.187   5.449   0.391 -0.1189  0.1229 -0.3134
   32FTM     F117218  -0.513   5.574   0.488 -0.0305  0.6312 -0.6675
   32FTM     C517219  -0.350   5.811   0.467 -0.2104 -0.5802  0.1752
   32FTM     C617220  -0.273   5.922   0.550  0.1369  0.0672  0.0584
   32FTM     C717221  -0.284   5.896   0.701 -0.0279 -1.0272 -0.2509
   32FTM     C817222  -0.428   5.927   0.759  0.1640 -0.3690  0.3850
   32FTM     C917223  -0.437   5.949   0.910 -0.1044  0.0121 -0.2127
   32FTM    C1017224  -0.575   5.994   0.952 -0.0741 -0.6965  0.0365
   32FTM    C1117225  -0.134   5.976   0.507 -0.0339  0.1864  0.1135
   32FTM    C1217226  -0.132   6.049   0.379 -0.5411 -0.6053  0.3676
   33FTM     S117227   0.252   4.892   0.331 -0.0271 -0.1053  0.4135
   33FTM     C117228   0.316   4.803   0.187 -0.1907  0.0484  0.2446
   33FTM     C217229   0.267   4.858   0.073 -0.1392  0.3151  0.3508
   33FTM     C317230   0.180   4.971   0.090  0.0265  0.4138  0.5647
   33FTM     C417231   0.161   5.002   0.221  0.1046  0.2162  0.6243
   33FTM     F117232   0.298   4.811  -0.053 -0.2392  0.4855  0.2606
   33FTM     C517233   0.417   4.701   0.194 -0.4011 -0.0106  0.4946
   33FTM     C617234   0.395   4.564   0.266  0.7855  0.5263  0.1336
   33FTM     C717235   0.295   4.470   0.191  0.5786  0.6188 -0.0882
   33FTM     C817236   0.139   4.486   0.185  0.3090 -0.2444  0.5360
   33FTM     C917237   0.073   4.501   0.322 -0.4382 -0.2526 -0.3101
   33FTM    C1017238  -0.081   4.482   0.325 -0.2365 -0.1639  0.6527
   33FTM    C1117239   0.524   4.492   0.292  0.4366 -0.5602  0.0914
   33FTM    C1217240   0.622   4.561   0.381 -0.1875 -0.1632  0.4237
   34TPM     C117241   0.415   5.488   0.326  0.0664  0.3545  0.4901
   34TPM     C217242   0.434   5.622   0.307  0.3078  0.3313  0.5648
   34TPM     C317243   0.573   5.662   0.311  0.4208  0.0021  0.0674
   34TPM     C417244   0.659   5.558   0.332  0.2656 -0.2258 -0.3865
   34TPM     S117245   0.572   5.402   0.349 -0.0378 -0.0407 -0.2198
   35BDD     C117246   1.021   5.539   0.172 -0.1351  0.0920 -0.2027
   35BDD     C217247   1.028   5.632   0.271 -0.1217  0.0466 -0.1609
   35BDD     C317248   0.901   5.655   0.338 -0.1102  0.0077 -0.1251
   35BDD     C417249   0.799   5.579   0.288 -0.1149  0.0239 -0.1401
   35BDD     S117250   0.855   5.473   0.154 -0.1342  0.0892 -0.2001
   35BDD     C517251   1.152   5.703   0.309 -0.1190  0.0373 -0.1524
   35BDD     C617252   0.886   5.752   0.448 -0.0948 -0.0443 -0.0773
   35BDD     O117253   0.776   5.772   0.505 -0.0849 -0.0780 -0.0465
   35BDD     O217254   1.261   5.683   0.252 -0.1289  0.0708 -0.1832
   35BDD     C717255   1.009   5.824   0.486 -0.0921 -0.0538 -0.0688
   35BDD     C817256   1.136   5.800   0.419 -0.1036 -0.0148 -0.1046
   35BDD     C917257   1.239   5.876   0.469 -0.0989 -0.0310 -0.0896
   35BDD     S217258   1.183   5.982   0.603 -0.0796 -0.0961 -0.0296
   35BDD    C1017259   1.017   5.917   0.585 -0.0787 -0.0991 -0.0270
   35BDD    C1117260   0.920   5.963   0.688 -0.0146 -0.1974 -0.2083
   35BDD    C1217261   0.812   6.058   0.639  0.1492  0.4996  0.8237
   35BDD    C1317262   0.861   6.201   0.615 -0.0139  0.2603 -0.2164
   35BDD    C1417263   0.763   6.290   0.528 -0.2746 -0.3276 -0.0591
   35BDD    C1517264   0.821   6.427   0.495 -0.5127 -0.4307  0.2234
   35BDD    C1617265   0.730   6.522   0.413 -0.1806 -0.8380 -0.9501
   35BDD    C1717266   0.677   6.025   0.710 -0.4501  0.0900 -0.0137
   35BDD    C1817267   0.662   6.032   0.863 -0.3550  0.5812 -0.0719
   35BDD    C1917268   1.386   5.872   0.439  0.1151  0.1974 -0.1307
   35BDD    C2017269   1.450   5.987   0.360  0.6974 -0.0325  0.1230
   35BDD    C2117270   1.467   6.118   0.429 -0.2593  0.1454 -0.7971
   35BDD    C2217271   1.549   6.121   0.560 -0.3337  0.6271  0.0158
   35BDD    C2317272   1.566   6.246   0.641 -0.3563 -0.2506 -0.3029
   35BDD    C2417273   1.618   6.358   0.551 -0.1635 -0.4548  0.3547
   35BDD    C2517274   1.412   6.019   0.215  0.1766 -0.2755 -0.4987
   35BDD    C2617275   1.409   5.903   0.116 -0.1768 -0.2839  0.3463
   36TPM     C117276   1.111   5.468   0.075 -0.4610 -0.1814 -0.1166
   36TPM     C217277   1.205   5.534   0.003 -0.7377 -0.0070 -0.3236
   36TPM     C317278   1.266   5.454  -0.100 -0.6035  0.0114 -0.2592
   36TPM     C417279   1.218   5.327  -0.107 -0.2246 -0.1489 -0.0031
   36TPM     S117280   1.091   5.298   0.018 -0.0061 -0.3368  0.1781
   37BDTP    C117281   1.371   4.852  -0.498  0.2163  0.0439  0.1614
   37BDTP    C217282   1.469   4.951  -0.529  0.1504  0.0969  0.1230
   37BDTP    C317283   1.474   5.074  -0.465  0.0693  0.1251  0.0758
   37BDTP    C417284   1.379   5.101  -0.365  0.0522  0.0999  0.0660
   37BDTP    C517285   1.281   5.002  -0.334  0.1180  0.0467  0.1049
   37BDTP    C617286   1.276   4.879  -0.398  0.1992  0.0186  0.1520
   37BDTP    C717287   1.364   5.221  -0.285 -0.0269  0.1211  0.0204
   37BDTP    C817288   1.262   5.217  -0.197 -0.0235  0.0873  0.0226
   37BDTP    S117289   1.169   5.060  -0.202  0.0802  0.0231  0.0832
   37BDTP    C917290   1.386   4.732  -0.578  0.2953  0.0224  0.2072
   37BDTP   C1017291   1.488   4.736  -0.667  0.2920  0.0567  0.2050
   37BDTP    S217292   1.581   4.893  -0.661  0.1883  0.1204  0.1445
   38FTM     S117293   1.686   5.268  -0.403  0.1496 -0.0488  0.2006
   38FTM     C117294   1.739   5.369  -0.543  0.1811  0.0395  0.2759
   38FTM     C217295   1.673   5.331  -0.656  0.0834  0.2234  0.2708
   38FTM     C317296   1.579   5.224  -0.640 -0.0194  0.3051  0.2093
   38FTM     C417297   1.573   5.179  -0.512  0.0002  0.1793  0.1664
   38FTM     F117298   1.694   5.391  -0.779  0.0813  0.3288  0.3209
   38FTM     C517299   1.846   5.469  -0.522 -0.0486  0.2041 -0.2322
   38FTM     C617300   1.823   5.614  -0.484 -0.1879 -0.8791 -0.4295
   38FTM     C717301   1.727   5.656  -0.361  0.5917  0.2291 -0.2741
   38FTM     C817302   1.752   5.588  -0.219 -0.4778 -0.1046  0.1638
   38FTM     C917303   1.652   5.632  -0.114 -0.7241  0.1311 -0.4450
   38FTM    C1017304   1.683   5.583   0.030 -0.2740 -0.4706 -0.3377
   38FTM    C1117305   1.938   5.714  -0.475 -0.2377 -0.0099  0.4452
   38FTM    C1217306   2.014   5.730  -0.611  0.4960  0.1775  1.0440
   39FTM     S117307   1.244   4.644  -0.259  0.0657 -0.1880 -0.0112
   39FTM     C117308   1.081   4.566  -0.255  0.0617 -0.1693  0.2235
   39FTM     C217309   0.992   4.641  -0.325  0.0208 -0.2766  0.1609
   39FTM     C317310   1.044   4.760  -0.385 -0.0093 -0.3774 -0.0679
   39FTM     C417311   1.176   4.777  -0.360  0.0092 -0.3462 -0.1847
   39FTM     F117312   0.859   4.606  -0.340  0.0081 -0.2897  0.3068
   39FTM     C517313   1.060   4.446  -0.169  0.6083  0.3598 -0.3748
   39FTM     C617314   1.073   4.446  -0.016 -0.1098  0.3058 -0.3804
   39FTM     C717315   1.043   4.308   0.054 -0.1982 -1.0372  0.3531
   39FTM     C817316   1.152   4.214   0.022 -1.2266  0.4396  0.1770
   39FTM     C917317   1.153   4.096   0.125 -0.1178 -0.1284  0.6539
   39FTM    C1017318   1.270   4.002   0.105  0.2861  0.1868 -0.0938
   39FTM    C1117319   1.004   4.566   0.055  0.2636 -0.2922 -0.6846
   39FTM    C1217320   1.003   4.572   0.209  0.2200  0.0546  0.4984
   40TPM     C117321   1.541   4.637  -0.755 -0.1489  0.0530  0.2412
   40TPM     C217322   1.647   4.645  -0.841 -0.0641  0.1110  0.3510
   40TPM     C317323   1.668   4.525  -0.919 -0.0355  0.1916  0.2339
   40TPM     C417324   1.577   4.426  -0.892 -0.0985  0.1952  0.0355
   40TPM     S117325   1.459   4.477  -0.767 -0.1997  0.0964 -0.0204
   41BDD     C117326   1.617   4.043  -0.956  0.3254 -0.0131  0.1420
   41BDD     C217327   1.654   4.103  -1.073  0.3018  0.0012  0.1419
   41BDD     C317328   1.641   4.247  -1.072  0.1875 -0.0089  0.1214
   41BDD     C417329   1.594   4.296  -0.953  0.1256 -0.0309  0.1060
   41BDD     S117330   1.564   4.164  -0.835  0.2061 -0.0403  0.1163
   41BDD     C517331   1.702   4.029  -1.192  0.3836  0.0248  0.1605
   41BDD     C617332   1.675   4.332  -1.188  0.1439  0.0037  0.1175
   41BDD     O117333   1.663   4.456  -1.187  0.0454 -0.0050  0.0994
   41BDD     O217334   1.714   3.904  -1.193  0.4822  0.0334  0.1783
   41BDD     C717335   1.723   4.258  -1.306  0.2257  0.0271  0.1359
   41BDD     C817336   1.736   4.113  -1.308  0.3400  0.0372  0.1566
   41BDD     C917337   1.783   4.064  -1.427  0.4020  0.0591  0.1719
   41BDD     S217338   1.813   4.196  -1.545  0.3215  0.0687  0.1617
   41BDD    C1017339   1.760   4.317  -1.424  0.2021  0.0415  0.1359
   41BDD    C1117340   1.764   4.464  -1.475  0.0256 -0.4004 -0.2508
   41BDD    C1217341   1.895   4.538  -1.498  0.2396  0.3962 -1.1970
   41BDD    C1317342   1.987   4.524  -1.373 -0.2676  0.0751 -0.3437
   41BDD    C1417343   1.937   4.596  -1.244 -0.5376 -0.2191 -0.5177
   41BDD    C1517344   2.037   4.596  -1.124  0.2571  0.1885 -0.2161
   41BDD    C1617345   2.002   4.695  -1.016  0.7381 -0.8449  0.0511
   41BDD    C1717346   1.865   4.675  -1.554 -0.6079 -0.1052 -0.7478
   41BDD    C1817347   1.975   4.767  -1.593 -0.1327 -0.3208 -0.2837
   41BDD    C1917348   1.820   3.931  -1.488  0.1183 -0.5485 -0.2740
   41BDD    C2017349   1.711   3.866  -1.581 -0.3887 -0.0385 -0.0034
   41BDD    C2117350   1.769   3.776  -1.689  0.8844  0.1582  0.4351
   41BDD    C2217351   1.880   3.830  -1.787  0.7029 -0.0573 -0.1204
   41BDD    C2317352   1.948   3.724  -1.868 -0.1012  0.0569  0.0285
   41BDD    C2417353   1.854   3.691  -1.978 -0.0451  0.0158  0.1784
   41BDD    C2517354   1.591   3.811  -1.503  0.0556 -0.6492 -0.0027
   41BDD    C2617355   1.605   3.695  -1.401 -0.4964 -0.0460  0.9465
   42TPM     C117356   1.611   3.905  -0.906  0.5566 -0.0164 -0.4191
   42TPM     C217357   1.645   3.885  -0.775  0.8212  0.2081 -0.4532
   42TPM     C317358   1.656   3.746  -0.739  0.7271  0.2689 -0.1910
   42TPM     C417359   1.629   3.661  -0.841  0.3907  0.0907  0.0429
   42TPM     S117360   1.588   3.749  -0.993  0.1650 -0.1697 -0.0503
   43BDTP    C117361   1.730   3.045  -0.765 -0.0767 -0.0163 -0.1233
   43BDTP    C217362   1.673   3.049  -0.895  0.0073 -0.0225 -0.1602
   43BDTP    C317363   1.633   3.167  -0.956 -0.0341 -0.0347 -0.1566
   43BDTP    C417364   1.650   3.287  -0.885 -0.1644 -0.0409 -0.1144
   43BDTP    C517365   1.707   3.284  -0.755 -0.2484 -0.0347 -0.0775
   43BDTP    C617366   1.747   3.165  -0.694 -0.2070 -0.0226 -0.0811
   43BDTP    C717367   1.616   3.422  -0.928 -0.2292 -0.0535 -0.1029
   43BDTP    C817368   1.644   3.518  -0.836 -0.3562 -0.0570 -0.0591
   43BDTP    S117369   1.718   3.452  -0.684 -0.4115 -0.0448 -0.0272
   43BDTP    C917370   1.764   2.911  -0.723 -0.0119 -0.0038 -0.1352
   43BDTP   C1017371   1.736   2.815  -0.814  0.1151 -0.0002 -0.1788
   43BDTP    S217372   1.662   2.881  -0.966  0.1704 -0.0125 -0.2108
   44FTM     S117373   1.423   3.064  -1.120  0.3050  0.0027 -0.0954
   44FTM     C117374   1.427   3.110  -1.294  0.4233 -0.2731 -0.1677
   44FTM     C217375   1.535   3.189  -1.319  0.3785 -0.2212 -0.1965
   44FTM     C317376   1.619   3.218  -1.206  0.2525  0.0304 -0.1652
   44FTM     C417377   1.574   3.159  -1.092  0.1991  0.1757 -0.1103
   44FTM     F117378   1.564   3.241  -1.444  0.4489 -0.3983 -0.2539
   44FTM     C517379   1.321   3.078  -1.386  0.0243  0.1986 -0.8115
   44FTM     C617380   1.172   3.119  -1.389  0.2428 -1.0785 -0.5066
   44FTM     C717381   1.139   3.268  -1.379 -0.2839 -0.0726 -0.2609
   44FTM     C817382   1.224   3.377  -1.450 -0.4912  0.0185 -0.0436
   44FTM     C917383   1.262   3.363  -1.601  0.5851 -0.3381 -0.2243
   44FTM    C1017384   1.373   3.460  -1.641 -0.6981 -0.3757  0.2684
   44FTM    C1117385   1.080   3.036  -1.302  0.3290  0.0147 -0.3047
   44FTM    C1217386   1.071   2.881  -1.329 -0.8574 -0.4884 -0.7168
   45FTM     S117387   1.927   3.313  -0.524  0.0610  0.0776 -0.0065
   45FTM     C117388   1.950   3.250  -0.357  0.0460  0.4875  0.1526
   45FTM     C217389   1.881   3.133  -0.342  0.1572  0.4517  0.3896
   45FTM     C317390   1.809   3.087  -0.457  0.2584  0.1116  0.4606
   45FTM     C417391   1.823   3.171  -0.563  0.2235 -0.1207  0.2715
   45FTM     F117392   1.880   3.062  -0.223  0.1740  0.7249  0.5569
   45FTM     C517393   2.039   3.323  -0.263 -0.4631 -0.1573 -0.0426
   45FTM     C617394   2.170   3.392  -0.318 -0.7810 -0.8038  0.0151
   45FTM     C717395   2.163   3.510  -0.413 -0.1727  0.0859  0.9094
   45FTM     C817396   2.102   3.630  -0.348  0.3003 -0.1907  0.0583
   45FTM     C917397   2.089   3.752  -0.430  0.5002 -0.8846  0.2538
   45FTM    C1017398   2.028   3.886  -0.371  0.3452  0.6433  0.0221
   45FTM    C1117399   2.275   3.294  -0.370  0.3776  0.2518 -0.0519
   45FTM    C1217400   2.329   3.185  -0.276  0.0451 -0.4976  0.5213
   46TPM     C117401   1.742   2.672  -0.810  0.0408 -0.1159 -0.0338
   46TPM     C217402   1.741   2.588  -0.703 -0.4088 -0.1358 -0.0508
   46TPM     C317403   1.725   2.449  -0.738 -0.5462 -0.1027 -0.1211
   46TPM     C417404   1.714   2.428  -0.872 -0.2015 -0.0574 -0.1580
   46TPM     S117405   1.723   2.582  -0.965  0.3277 -0.0532 -0.1063
   47BDD     C117406   1.477   2.182  -1.064  0.0718 -0.0355  0.1076
   47BDD     C217407   1.558   2.100  -0.992  0.0831 -0.0408  0.0889
   47BDD     C317408   1.652   2.172  -0.907  0.0385 -0.0474  0.1440
   47BDD     C417409   1.641   2.308  -0.917 -0.0061 -0.0469  0.2041
   47BDD     S117410   1.512   2.355  -1.032  0.0045 -0.0382  0.1960
   47BDD     C517411   1.553   1.953  -0.997  0.1353 -0.0401  0.0196
   47BDD     C617412   1.750   2.103  -0.820  0.0418 -0.0540  0.1349
   47BDD     O117413   1.830   2.165  -0.747  0.0034 -0.0597  0.1824
   47BDD     O217414   1.472   1.891  -1.070  0.1738 -0.0345 -0.0281
   47BDD     C717415   1.744   1.956  -0.826  0.0940 -0.0533  0.0658
   47BDD     C817416   1.651   1.884  -0.910  0.1386 -0.0467  0.0107
   47BDD     C917417   1.662   1.748  -0.901  0.1833 -0.0472 -0.0494
   47BDD     S217418   1.791   1.700  -0.785  0.1726 -0.0560 -0.0411
   47BDD    C1017419   1.826   1.873  -0.753  0.1053 -0.0587  0.0470
   47BDD    C1117420   1.924   1.905  -0.646 -0.4843 -0.4565  0.0690
   47BDD    C1217421   1.875   1.939  -0.503 -0.0167 -0.2630  0.3470
   47BDD    C1317422   1.986   1.995  -0.408  0.6474  0.3758 -0.5192
   47BDD    C1417423   2.038   2.133  -0.430 -0.0932  0.1577 -0.7558
   47BDD    C1517424   1.935   2.245  -0.439  0.5325  0.2542  0.4732
   47BDD    C1617425   1.989   2.384  -0.458  0.1157  0.1283  0.4095
   47BDD    C1717426   1.774   1.843  -0.433 -0.1747 -0.2016  0.0640
   47BDD    C1817427   1.685   1.893  -0.320  0.2139  0.0315  0.1856
   47BDD    C1917428   1.600   1.633  -0.975 -0.5866 -0.5714  0.4285
   47BDD    C2017429   1.509   1.537  -0.901 -0.3308  0.0045 -0.3029
   47BDD    C2117430   1.399   1.604  -0.812  0.4397 -0.2941  0.2434
   47BDD    C2217431   1.318   1.513  -0.719  0.3499 -0.2850 -0.7135
   47BDD    C2317432   1.390   1.438  -0.604  0.3020  0.1738  0.3891
   47BDD    C2417433   1.455   1.526  -0.504 -0.3766  0.0385 -0.4128
   47BDD    C2517434   1.474   1.402  -0.975 -0.1826  0.2771 -0.5583
   47BDD    C2617435   1.369   1.404  -1.084 -0.5464 -0.1879  0.0664
   48TPM     C117436   1.373   2.162  -1.164  0.4258 -0.0963 -0.2724
   48TPM     C217437   1.384   2.213  -1.290  0.4602 -0.4728 -0.4218
   48TPM     C317438   1.268   2.190  -1.372  0.4393 -0.6229 -0.3512
   48TPM     C417439   1.168   2.122  -1.309  0.3891 -0.3609 -0.1484
   48TPM     S117440   1.213   2.082  -1.139  0.3639  0.0995 -0.0297
   49BDTP    C117441   0.586   2.090  -1.560 -0.1650 -0.0186  0.1404
   49BDTP    C217442   0.579   1.994  -1.455 -0.0500 -0.0041  0.1626
   49BDTP    C317443   0.685   1.967  -1.370  0.0200  0.0597  0.0958
   49BDTP    C417444   0.805   2.038  -1.389 -0.0255  0.1118  0.0026
   49BDTP    C517445   0.813   2.134  -1.494 -0.1405  0.0973 -0.0196
   49BDTP    C617446   0.706   2.161  -1.579 -0.2104  0.0335  0.0474
   49BDTP    C717447   0.928   2.026  -1.314  0.0306  0.1819 -0.0786
   49BDTP    C817448   1.027   2.109  -1.357 -0.0360  0.2201 -0.1595
   49BDTP    S117449   0.978   2.212  -1.498 -0.1790  0.1729 -0.1445
   49BDTP    C917450   0.463   2.102  -1.635 -0.2210 -0.0886  0.2215
   49BDTP   C1017451   0.364   2.019  -1.592 -0.1545 -0.1268  0.3026
   49BDTP    S217452   0.414   1.916  -1.451 -0.0115 -0.0796  0.2874
   50FTM     S117453   0.702   1.914  -1.088 -0.2162 -0.1068 -0.1875
   50FTM     C117454   0.664   1.747  -1.035  0.0953 -0.0863  0.1049
   50FTM     C217455   0.633   1.669  -1.142  0.2006 -0.3217  0.2427
   50FTM     C317456   0.638   1.734  -1.270  0.0492 -0.5274  0.1321
   50FTM     C417457   0.673   1.866  -1.260 -0.1796 -0.4468 -0.0981
   50FTM     F117458   0.599   1.535  -1.132  0.4404 -0.3648  0.4773
   50FTM     C517459   0.700   1.706  -0.892  0.2492 -0.0994 -0.5552
   50FTM     C617460   0.841   1.660  -0.858  0.2944  0.4253 -0.4234
   50FTM     C717461   0.956   1.766  -0.862 -0.1203 -0.1479  0.6236
   50FTM     C817462   1.022   1.777  -1.003  0.2999 -0.6539  0.8917
   50FTM     C917463   1.090   1.660  -1.061  0.5878 -0.5236  0.2083
   50FTM    C1017464   1.154   1.688  -1.187 -0.0580 -0.5370  0.2946
   50FTM    C1117465   0.822   1.586  -0.722 -0.0059  0.2871 -0.5090
   50FTM    C1217466   0.939   1.508  -0.669 -0.0433 -0.7520 -0.7100
   51FTM     S117467   0.809   2.415  -1.664 -0.2415 -0.2827  0.0939
   51FTM     C117468   0.749   2.476  -1.823  0.0313 -0.0820  0.0672
   51FTM     C217469   0.662   2.387  -1.877 -0.1431  0.1469 -0.0323
   51FTM     C317470   0.637   2.268  -1.801 -0.4909  0.1792 -0.0925
   51FTM     C417471   0.707   2.267  -1.684 -0.5861 -0.0318 -0.0372
   51FTM     F117472   0.600   2.407  -1.999  0.0020  0.3406 -0.0750
   51FTM     C517473   0.789   2.614  -1.879  0.9987 -0.4204 -0.3015
   51FTM     C617474   0.937   2.648  -1.909 -0.2880  1.0100  0.0784
   51FTM     C717475   1.003   2.554  -2.010  0.0770  0.2470 -0.4637
   51FTM     C817476   0.974   2.592  -2.156 -0.5650  0.6943 -0.3317
   51FTM     C917477   1.098   2.562  -2.244 -0.7287  0.4232  0.1712
   51FTM    C1017478   1.084   2.616  -2.385  0.2376 -0.3528 -0.1442
   51FTM    C1117479   1.030   2.672  -1.790  0.0209  0.4758  0.0534
   51FTM    C1217480   0.999   2.782  -1.691  0.1529  0.6143 -0.2311
   52TPM     C117481   0.234   2.005  -1.647 -0.0125 -0.1425  0.3450
   52TPM     C217482   0.197   2.038  -1.774 -0.0045  0.1700  0.4234
   52TPM     C317483   0.054   2.041  -1.794 -0.0028  0.1876  0.4123
   52TPM     C417484  -0.018   2.009  -1.683 -0.0092 -0.1115  0.3254
   52TPM     S117485   0.090   1.974  -1.543 -0.0184 -0.4410  0.2502
   53BDD     C117486  -0.371   1.834  -1.674 -0.0519  0.0569  0.2050
   53BDD     C217487  -0.391   1.951  -1.740 -0.0131  0.0197  0.1267
   53BDD     C317488  -0.270   2.031  -1.753  0.0129 -0.0282  0.0743
   53BDD     C417489  -0.160   1.973  -1.697 -0.0065 -0.0268  0.1135
   53BDD     S117490  -0.200   1.814  -1.624 -0.0584  0.0345  0.2184
   53BDD     C517491  -0.522   1.995  -1.793  0.0014  0.0268  0.0972
   53BDD     C617492  -0.269   2.162  -1.821  0.0560 -0.0737 -0.0128
   53BDD     O117493  -0.165   2.231  -1.833  0.0784 -0.1150 -0.0581
   53BDD     O217494  -0.626   1.926  -1.782 -0.0210  0.0682  0.1423
   53BDD     C717495  -0.400   2.206  -1.875  0.0701 -0.0666 -0.0422
   53BDD     C817496  -0.520   2.126  -1.861  0.0439 -0.0186  0.0103
   53BDD     C917497  -0.630   2.185  -1.917  0.0629 -0.0200 -0.0291
   53BDD     S217498  -0.591   2.343  -1.991  0.1153 -0.0814 -0.1340
   53BDD    C1017499  -0.420   2.324  -1.941  0.1085 -0.1038 -0.1208
   53BDD    C1117500  -0.328   2.445  -1.966 -0.1748  0.5892  0.3100
   53BDD    C1217501  -0.295   2.542  -1.851  0.8311 -0.1867 -0.2156
   53BDD    C1317502  -0.195   2.641  -1.918  0.3856  0.0392 -0.0538
   53BDD    C1417503  -0.105   2.736  -1.834  0.0175 -0.2023  0.0852
   53BDD    C1517504  -0.045   2.846  -1.920 -0.0779  1.0158  0.5763
   53BDD    C1617505   0.043   2.933  -1.841  0.4449 -0.7300 -0.2595
   53BDD    C1717506  -0.407   2.612  -1.766 -0.0445 -0.0865  0.3035
   53BDD    C1817507  -0.515   2.694  -1.839  0.2824  0.3990 -0.6502
   53BDD    C1917508  -0.774   2.138  -1.916 -0.2250 -0.3634  0.2861
   53BDD    C2017509  -0.820   2.052  -2.039 -0.2644 -0.2667  0.1755
   53BDD    C2117510  -0.954   1.974  -2.029  0.1046  0.0676  0.4575
   53BDD    C2217511  -0.974   1.903  -1.892  0.1754 -0.6882  0.0359
   53BDD    C2317512  -1.128   1.881  -1.876  0.0349 -0.5117  0.0640
   53BDD    C2417513  -1.146   1.795  -1.754  1.1044 -0.1236 -0.6138
   53BDD    C2517514  -0.802   2.137  -2.177  0.1552  0.0653  0.0262
   53BDD    C2617515  -0.850   2.093  -2.316  0.3127  0.1006 -0.0687
   54TPM     C117516  -0.452   1.717  -1.634  0.2690 -0.3696  0.3095
   54TPM     C217517  -0.556   1.671  -1.710  0.4807 -0.2524 -0.0556
   54TPM     C317518  -0.612   1.547  -1.663  0.2201 -0.2276 -0.2930
   54TPM     C417519  -0.551   1.499  -1.550 -0.1902 -0.3258 -0.1095
   54TPM     S117520  -0.417   1.607  -1.496 -0.2799 -0.4583  0.3816
   55BDTP    C117521  -0.757   1.006  -1.217 -0.0157 -0.3013 -0.0544
   55BDTP    C217522  -0.623   1.022  -1.170 -0.0308 -0.2646 -0.0241
   55BDTP    C317523  -0.537   1.120  -1.218 -0.0443 -0.2449 -0.0088
   55BDTP    C417524  -0.585   1.206  -1.319 -0.0429 -0.2622 -0.0243
   55BDTP    C517525  -0.718   1.190  -1.366 -0.0279 -0.2990 -0.0546
   55BDTP    C617526  -0.804   1.092  -1.318 -0.0142 -0.3186 -0.0698
   55BDTP    C717527  -0.515   1.314  -1.384 -0.0554 -0.2474 -0.0134
   55BDTP    C817528  -0.588   1.379  -1.478 -0.0505 -0.2709 -0.0336
   55BDTP    S117529  -0.756   1.313  -1.496 -0.0298 -0.3152 -0.0696
   55BDTP    C917530  -0.827   0.898  -1.151 -0.0031 -0.3162 -0.0653
   55BDTP   C1017531  -0.754   0.833  -1.058 -0.0076 -0.2926 -0.0448
   55BDTP    S217532  -0.586   0.899  -1.040 -0.0290 -0.2483 -0.0091
   56FTM     S117533  -0.348   1.297  -1.103  0.0328 -0.2671 -0.2552
   56FTM     C117534  -0.183   1.232  -1.076  0.0536 -0.0932  0.0357
   56FTM     C217535  -0.177   1.102  -1.115  0.1800 -0.1751  0.3221
   56FTM     C317536  -0.298   1.046  -1.167  0.2658 -0.3732  0.3331
   56FTM     C417537  -0.400   1.137  -1.168  0.2035 -0.4453  0.0454
   56FTM     F117538  -0.061   1.026  -1.105  0.2248 -0.0756  0.5913
   56FTM     C517539  -0.078   1.321  -1.021  0.1443 -0.4057 -0.3687
   56FTM     C617540   0.006   1.407  -1.123 -0.2016  0.0144 -0.2533
   56FTM     C717541  -0.071   1.508  -1.210 -0.1100  0.1879 -0.3118
   56FTM     C817542  -0.090   1.642  -1.144 -0.2685 -0.5882 -0.4206
   56FTM     C917543  -0.173   1.727  -1.239  0.1244 -0.7398 -0.5597
   56FTM    C1017544  -0.181   1.871  -1.193 -0.1963 -0.4599 -0.7868
   56FTM    C1117545   0.125   1.335  -1.187  0.6592  0.0020 -0.1134
   56FTM    C1217546   0.220   1.418  -1.274 -0.1601 -0.4484  0.0788
   57FTM     S117547  -0.953   1.010  -1.548  0.0791 -0.5060 -0.0242
   57FTM     C117548  -1.129   0.984  -1.522  0.0343 -0.4269 -0.2471
   57FTM     C217549  -1.163   1.017  -1.395 -0.1464 -0.2368 -0.3431
   57FTM     C317550  -1.056   1.063  -1.311 -0.2584 -0.1435 -0.2511
   57FTM     C417551  -0.937   1.066  -1.377 -0.1601 -0.2660 -0.0796
   57FTM     F117552  -1.292   1.007  -1.346 -0.2213 -0.1362 -0.5195
   57FTM     C517553  -1.214   0.924  -1.623 -0.4802  0.0497  0.2767
   57FTM     C617554  -1.242   0.776  -1.611 -0.9094  0.4160 -0.1359
   57FTM     C717555  -1.368   0.743  -1.690 -0.0650  0.7199  0.4055
   57FTM     C817556  -1.422   0.594  -1.686  0.2871  0.1503 -0.1843
   57FTM     C917557  -1.559   0.574  -1.750 -0.7652  0.1308  0.0268
   57FTM    C1017558  -1.618   0.436  -1.754  0.6677 -0.2169  0.1542
   57FTM    C1117559  -1.111   0.690  -1.634 -0.7622 -0.1693  0.2414
   57FTM    C1217560  -1.046   0.703  -1.775 -0.6898  0.1559  0.0000
   58TPM     C117561  -0.794   0.726  -0.972  0.1343 -0.4538 -0.3955
   58TPM     C217562  -0.720   0.653  -0.884  0.2210 -0.7607 -0.7176
   58TPM     C317563  -0.798   0.560  -0.805  0.2081 -0.5955 -0.5343
   58TPM     C417564  -0.931   0.563  -0.834  0.1113 -0.1625 -0.0721
   58TPM     S117565  -0.969   0.683  -0.963  0.0281  0.0719  0.1690
   59BDD     C117566  -1.247   0.331  -0.778  0.1130  0.0728 -0.0989
   59BDD     C217567  -1.174   0.319  -0.663  0.0954  0.1268 -0.0818
   59BDD     C317568  -1.053   0.399  -0.662  0.1173  0.0939 -0.1180
   59BDD     C417569  -1.035   0.471  -0.777  0.1514  0.0153 -0.1623
   59BDD     S117570  -1.169   0.444  -0.894  0.1581 -0.0229 -0.1614
   59BDD     C517571  -1.213   0.233  -0.549  0.0577  0.2105 -0.0312
   59BDD     C617572  -0.959   0.401  -0.548  0.1040  0.1415 -0.1075
   59BDD     O117573  -0.855   0.470  -0.548  0.1228  0.1132 -0.1390
   59BDD     O217574  -1.318   0.164  -0.550  0.0389  0.2389  0.0002
   59BDD     C717575  -0.998   0.315  -0.434  0.0663  0.2253 -0.0575
   59BDD     C817576  -1.120   0.235  -0.435  0.0441  0.2582 -0.0212
   59BDD     C917577  -1.138   0.163  -0.320  0.0100  0.3367  0.0234
   59BDD     S217578  -1.004   0.190  -0.204  0.0032  0.3749  0.0222
   59BDD    C1017579  -0.926   0.303  -0.319  0.0484  0.2792 -0.0403
   59BDD    C1117580  -0.810   0.382  -0.264  0.2169  0.6168  0.4356
   59BDD    C1217581  -0.825   0.455  -0.127  0.3913  0.0207  0.6596
   59BDD    C1317582  -0.701   0.501  -0.048 -0.0932  0.1134 -0.4329
   59BDD    C1417583  -0.586   0.405  -0.009 -0.2980  0.0796 -0.1160
   59BDD    C1517584  -0.619   0.272   0.060 -0.5156 -0.3092 -0.1077
   59BDD    C1617585  -0.505   0.173   0.045  1.1339 -0.2349 -0.4734
   59BDD    C1717586  -0.930   0.571  -0.139 -0.2128  0.2468  0.0701
   59BDD    C1817587  -0.896   0.693  -0.219 -0.4530 -0.4004 -0.2372
   59BDD    C1917588  -1.237   0.069  -0.271  0.2073 -0.4446 -0.0414
   59BDD    C2017589  -1.325   0.108  -0.146 -0.1888  0.0945  0.6706
   59BDD    C2117590  -1.410  -0.004  -0.088  0.2606  0.3471  0.0976
   59BDD    C2217591  -1.335  -0.128  -0.026 -0.7088 -0.6934  0.1492
   59BDD    C2317592  -1.252  -0.080   0.095 -0.1994  0.6134 -0.6438
   59BDD    C2417593  -1.327  -0.047   0.216  0.4391  0.6647 -0.0691
   59BDD    C2517594  -1.405   0.238  -0.170  0.0396 -0.4873 -0.4179
   59BDD    C2617595  -1.514   0.280  -0.069  0.1089  0.2314 -0.4220
   60TPM     C117596  -1.368   0.278  -0.837  0.3522 -0.1805  0.3374
   60TPM     C217597  -1.396   0.301  -0.968  0.6080  0.1531  0.3402
   60TPM     C317598  -1.506   0.224  -1.019  0.5598  0.4458 -0.0122
   60TPM     C417599  -1.562   0.141  -0.926  0.2672  0.3355 -0.2834
   60TPM     S117600  -1.479   0.155  -0.766  0.0280 -0.1505 -0.1139
    1BDTP    C117601   4.780   3.896   0.643  0.0088  0.0678 -0.0515
    1BDTP    C217602   4.819   3.800   0.741 -0.0772  0.1568  0.0706
    1BDTP    C317603   4.951   3.761   0.759 -0.0969  0.1506  0.2019
    1BDTP    C417604   5.049   3.820   0.677 -0.0287  0.0525  0.2137
    1BDTP    C517605   5.010   3.916   0.580  0.0573 -0.0363  0.0915
    1BDTP    C617606   4.878   3.955   0.561  0.0771 -0.0303 -0.0398
    1BDTP    C717607   5.192   3.795   0.678 -0.0334  0.0271  0.3384
    1BDTP    C817608   5.261   3.867   0.587  0.0441 -0.0752  0.3161
    1BDTP    S117609   5.155   3.976   0.487  0.1339 -0.1538  0.1340
    1BDTP    C917610   4.637   3.921   0.642  0.0136  0.0933 -0.1762
    1BDTP   C1017611   4.568   3.849   0.734 -0.0638  0.1956 -0.1539
    1BDTP    S217612   4.674   3.740   0.834 -0.1537  0.2741  0.0282
    2FTM     S117613   5.069   3.506   0.822 -0.1778 -0.2480 -0.1378
    2FTM     C117614   5.038   3.446   0.989 -0.1817 -0.4031 -0.1929
    2FTM     C217615   4.969   3.540   1.059 -0.1937 -0.4728 -0.1113
    2FTM     C317616   4.936   3.661   0.989 -0.2003 -0.4114 -0.0034
    2FTM     C417617   4.982   3.659   0.861 -0.1934 -0.2907 -0.0025
    2FTM     F117618   4.930   3.522   1.192 -0.1992 -0.5963 -0.1293
    2FTM     C517619   5.083   3.314   1.041 -0.1212 -0.0199  0.0217
    2FTM     C617620   5.203   3.297   1.134  0.5735  0.2653  0.3875
    2FTM     C717621   5.208   3.144   1.159 -0.1786 -0.4585  0.4751
    2FTM     C817622   5.314   3.092   1.260 -0.1789 -0.4109  0.1301
    2FTM     C917623   5.299   2.947   1.292  0.6396  0.0706 -0.5813
    2FTM    C1017624   5.398   2.891   1.390  0.3984 -0.1465 -0.4792
    2FTM    C1117625   5.333   3.368   1.090 -0.6192 -0.6341  0.1502
    2FTM    C1217626   5.415   3.314   0.974  0.5372  0.2644 -0.3136
    3FTM     S117627   4.863   4.019   0.285  0.0338 -0.1399 -0.1613
    3FTM     C117628   4.799   4.181   0.239  0.1935 -0.1287 -0.3438
    3FTM     C217629   4.767   4.252   0.350  0.4239  0.0943 -0.4179
    3FTM     C317630   4.790   4.186   0.476  0.4889  0.2658 -0.3392
    3FTM     C417631   4.841   4.061   0.460  0.3017  0.1710 -0.2004
    3FTM     F117632   4.715   4.380   0.345  0.5901  0.1563 -0.5613
    3FTM     C517633   4.786   4.218   0.095 -0.3785 -0.2245 -1.0677
    3FTM     C617634   4.713   4.128  -0.004 -0.2716  0.2523  0.5612
    3FTM     C717635   4.760   4.157  -0.151  0.4104  0.8050  0.3076
    3FTM     C817636   4.908   4.127  -0.194 -0.1572  0.5386  0.2778
    3FTM     C917637   4.968   4.190  -0.323 -0.1053  0.3014 -0.6596
    3FTM    C1017638   4.962   4.338  -0.338  0.1442 -0.0818  0.5066
    3FTM    C1117639   4.566   4.131   0.008  0.2379 -0.0150 -0.1335
    3FTM    C1217640   4.465   4.058  -0.089 -0.1789  0.1117 -0.1661
    4TPM     C117641   4.424   3.855   0.764 -0.3652 -0.0605 -0.3101
    4TPM     C217642   4.323   3.926   0.707 -0.5660 -0.0051  0.1077
    4TPM     C317643   4.194   3.898   0.764 -0.3422  0.1350  0.7091
    4TPM     C417644   4.196   3.805   0.864  0.0295  0.1865  0.7499
    4TPM     S117645   4.364   3.746   0.895  0.1263  0.0610  0.0263
    5BDD     C117646   3.827   3.794   1.001  0.0959  0.0466  0.0086
    5BDD     C217647   3.902   3.738   1.100  0.0890  0.0507  0.0160
    5BDD     C317648   4.043   3.728   1.068  0.0826 -0.0017  0.0041
    5BDD     C417649   4.074   3.777   0.944  0.0847 -0.0450 -0.0123
    5BDD     S117650   3.928   3.838   0.859  0.0948 -0.0232 -0.0139
    5BDD     C517651   3.847   3.692   1.229  0.0880  0.1031  0.0344
    5BDD     C617652   4.143   3.671   1.161  0.0747 -0.0068  0.0094
    5BDD     O117653   4.264   3.663   1.133  0.0693 -0.0519 -0.0009
    5BDD     O217654   3.725   3.700   1.258  0.0935  0.1482  0.0447
    5BDD     C717655   4.087   3.625   1.290  0.0739  0.0455  0.0278
    5BDD     C817656   3.946   3.635   1.323  0.0801  0.0980  0.0397
    5BDD     C917657   3.916   3.586   1.447  0.0780  0.1414  0.0561
    5BDD     S217658   4.062   3.525   1.532  0.0680  0.1195  0.0577
    5BDD    C1017659   4.162   3.569   1.390  0.0669  0.0498  0.0353
    5BDD    C1117660   4.309   3.533   1.409  0.4029 -0.1592  0.3785
    5BDD    C1217661   4.399   3.631   1.487  0.3910  0.2885  0.3722
    5BDD    C1317662   4.525   3.567   1.558 -0.3012 -0.2440 -0.0799
    5BDD    C1417663   4.489   3.455   1.660 -0.0489  0.4640 -0.3664
    5BDD    C1517664   4.407   3.493   1.780 -0.3980  0.0219 -0.4191
    5BDD    C1617665   4.408   3.369   1.873 -0.7041  0.1688 -0.4331
    5BDD    C1717666   4.407   3.769   1.428 -0.4552  0.0355  0.6486
    5BDD    C1817667   4.490   3.883   1.494  0.1592 -0.3219 -0.4526
    5BDD    C1917668   3.790   3.565   1.527  0.2641 -0.5504 -0.5739
    5BDD    C2017669   3.710   3.442   1.491 -0.1391  0.4097  0.6160
    5BDD    C2117670   3.792   3.314   1.505  0.6626  0.2900  0.2295
    5BDD    C2217671   3.722   3.180   1.463  0.1520 -1.4219  0.4183
    5BDD    C2317672   3.819   3.064   1.447 -0.2186 -0.4444  0.4581
    5BDD    C2417673   3.740   2.946   1.401  0.5538 -0.3415 -0.2863
    5BDD    C2517674   3.575   3.432   1.563 -0.5770 -0.0260  0.1014
    5BDD    C2617675   3.476   3.544   1.531 -0.0967 -0.5445  0.2634
    6TPM     C117676   3.690   3.837   0.990  0.1512 -0.1292 -0.4386
    6TPM     C217677   3.656   3.963   0.949  0.3618 -0.1628 -0.7167
    6TPM     C317678   3.514   3.984   0.936  0.3913  0.0824 -0.6495
    6TPM     C417679   3.440   3.874   0.968  0.2031  0.3032 -0.3202
    6TPM     S117680   3.543   3.735   1.017 -0.0276  0.2176 -0.0674
    7BDTP    C117681   2.814   3.879   1.054 -0.1057  0.1665  0.3062
    7BDTP    C217682   2.852   3.751   1.104 -0.0358  0.1323  0.1663
    7BDTP    C317683   2.983   3.706   1.102 -0.0154  0.1944  0.0887
    7BDTP    C417684   3.082   3.790   1.047 -0.0663  0.2949  0.1518
    7BDTP    C517685   3.044   3.918   0.998 -0.1364  0.3293  0.2917
    7BDTP    C617686   2.913   3.964   1.000 -0.1567  0.2672  0.3693
    7BDTP    C717687   3.224   3.764   1.034 -0.0578  0.3731  0.0922
    7BDTP    C817688   3.294   3.866   0.977 -0.1170  0.4632  0.1795
    7BDTP    S117689   3.189   4.008   0.933 -0.1922  0.4618  0.3494
    7BDTP    C917690   2.672   3.905   1.068 -0.1143  0.0884  0.3657
    7BDTP   C1017691   2.603   3.804   1.124 -0.0550 -0.0017  0.2784
    7BDTP    S217692   2.707   3.661   1.169  0.0202 -0.0002  0.1085
    8FTM     S117693   3.048   3.439   1.055  0.0419 -0.1447  0.3045
    8FTM     C117694   3.068   3.332   1.199 -0.2450 -0.0668  0.4036
    8FTM     C217695   3.040   3.402   1.312 -0.7325 -0.0796  0.2934
    8FTM     C317696   3.002   3.539   1.294 -0.9087 -0.1491  0.1292
    8FTM     C417697   3.001   3.575   1.163 -0.5440 -0.1910  0.1130
    8FTM     F117698   3.047   3.346   1.439 -1.0484 -0.0291  0.3347
    8FTM     C517699   3.115   3.197   1.179  0.6044  0.8879  0.3260
    8FTM     C617700   3.253   3.134   1.210  0.3548  0.6602 -0.0047
    8FTM     C717701   3.292   3.096   1.357  0.3117 -0.2483 -0.0776
    8FTM     C817702   3.214   2.992   1.428  0.1851  0.4610  0.2697
    8FTM     C917703   3.224   2.980   1.581 -0.6447 -0.2083  0.0649
    8FTM    C1017704   3.323   2.883   1.650  0.1563  0.1260  0.0324
    8FTM    C1117705   3.362   3.187   1.118 -0.2056 -0.2000 -0.2490
    8FTM    C1217706   3.440   3.304   1.157 -0.7288 -0.8836  0.1754
    9FTM     S117707   2.789   4.140   0.809 -0.2097 -0.1990  0.1099
    9FTM     C117708   2.766   4.310   0.863  0.3223 -0.0575 -0.1027
    9FTM     C217709   2.829   4.330   0.983  0.5721 -0.0409 -0.2347
    9FTM     C317710   2.896   4.216   1.038  0.3700 -0.1349 -0.1799
    9FTM     C417711   2.885   4.106   0.958 -0.0483 -0.2266  0.0000
    9FTM     F117712   2.828   4.451   1.049  0.9987  0.0604 -0.4130
    9FTM     C517713   2.686   4.405   0.771 -0.1831  0.3236 -0.0188
    9FTM     C617714   2.653   4.550   0.796 -0.0878 -0.5930 -0.1547
    9FTM     C717715   2.619   4.629   0.669 -0.3278  0.9288 -0.0680
    9FTM     C817716   2.732   4.657   0.566  0.0351 -0.7234 -0.1468
    9FTM     C917717   2.855   4.740   0.628  1.1658 -0.7579  0.4407
    9FTM    C1017718   2.960   4.791   0.530 -0.3419  0.4110 -0.5707
    9FTM    C1117719   2.570   4.588   0.921  0.6874 -0.2535  0.4277
    9FTM    C1217720   2.426   4.537   0.919 -0.0018  0.5171  0.0143
   10TPM     C117721   2.462   3.797   1.136  0.1100 -0.2825 -0.2073
   10TPM     C217722   2.366   3.856   1.058  0.0021 -0.6725 -0.3762
   10TPM     C317723   2.232   3.826   1.100  0.0586 -0.5718 -0.1185
   10TPM     C417724   2.225   3.744   1.209  0.2096 -0.1052  0.2469
   10TPM     S117725   2.389   3.698   1.268  0.2927  0.2463  0.2943
   11BDD     C117726   1.947   3.469   1.280  0.1360 -0.0180 -0.0637
   11BDD     C217727   1.878   3.587   1.274  0.1057 -0.0318  0.0013
   11BDD     C317728   1.963   3.702   1.248  0.0821  0.0105  0.1093
   11BDD     C417729   2.095   3.670   1.235  0.0947  0.0560  0.1252
   11BDD     S117730   2.123   3.494   1.254  0.1370  0.0491  0.0060
   11BDD     C517731   1.732   3.599   1.291  0.0974 -0.0846 -0.0337
   11BDD     C617732   1.910   3.839   1.236  0.0478  0.0041  0.1929
   11BDD     O117733   1.983   3.939   1.214  0.0274  0.0406  0.2860
   11BDD     O217734   1.658   3.500   1.314  0.1178 -0.1211 -0.1269
   11BDD     C717735   1.763   3.851   1.254  0.0395 -0.0485  0.1580
   11BDD     C817736   1.678   3.736   1.280  0.0632 -0.0908  0.0499
   11BDD     C917737   1.546   3.768   1.293  0.0505 -0.1365  0.0340
   11BDD     S217738   1.519   3.944   1.273  0.0082 -0.1295  0.1532
   11BDD    C1017739   1.694   3.969   1.247  0.0091 -0.0625  0.2229
   11BDD    C1117740   1.729   4.113   1.213 -0.0931  0.8803  0.3125
   11BDD    C1217741   1.692   4.178   1.077 -0.3509  0.4684  0.1946
   11BDD    C1317742   1.728   4.329   1.077  0.4688 -0.2076 -1.1799
   11BDD    C1417743   1.669   4.422   0.970  0.5662 -0.5138 -0.0041
   11BDD    C1517744   1.519   4.445   0.976  0.2876  0.1468 -0.3175
   11BDD    C1617745   1.471   4.546   0.872  0.0103 -0.0594  0.3031
   11BDD    C1717746   1.731   4.099   0.953  0.8926  0.1038  0.1264
   11BDD    C1817747   1.872   4.086   0.906 -0.5929 -0.4179 -0.4811
   11BDD    C1917748   1.426   3.680   1.321 -0.5513  0.0846 -0.1635
   11BDD    C2017749   1.395   3.669   1.470  0.2011 -0.3668 -0.2692
   11BDD    C2117750   1.335   3.794   1.538 -0.1659 -0.4566 -0.5548
   11BDD    C2217751   1.338   3.791   1.690  0.3372  0.3196 -0.2078
   11BDD    C2317752   1.313   3.923   1.765  0.3822  1.1940 -0.2767
   11BDD    C2417753   1.296   3.909   1.920  0.1635  0.0953  0.1650
   11BDD    C2517754   1.312   3.536   1.505  0.4503 -0.7094 -0.0317
   11BDD    C2617755   1.360   3.403   1.454  0.5101  0.1159  0.7061
   12TPM     C117756   1.916   3.326   1.324 -0.1153 -0.0404  0.5789
   12TPM     C217757   1.815   3.273   1.251 -0.3703  0.1459  0.7910
   12TPM     C317758   1.819   3.129   1.242 -0.6326  0.1401  0.7526
   12TPM     C417759   1.923   3.073   1.310 -0.5776 -0.0507  0.5112
   12TPM     S117760   2.026   3.198   1.389 -0.1872 -0.2391  0.3121
   13BDTP    C117761   2.071   2.462   1.390 -0.0158  0.0531 -0.3983
   13BDTP    C217762   1.930   2.464   1.414  0.0421  0.0849 -0.0460
   13BDTP    C317763   1.854   2.579   1.403  0.0518  0.1179  0.2197
   13BDTP    C417764   1.919   2.698   1.367  0.0019  0.1196  0.1349
   13BDTP    C517765   2.060   2.697   1.343 -0.0560  0.0877 -0.2173
   13BDTP    C617766   2.136   2.581   1.354 -0.0656  0.0548 -0.4831
   13BDTP    C717767   1.861   2.830   1.349  0.0008  0.1506  0.3654
   13BDTP    C817768   1.950   2.926   1.314 -0.0544  0.1437  0.2054
   13BDTP    S117769   2.120   2.863   1.298 -0.1130  0.0970 -0.2598
   13BDTP    C917770   2.129   2.330   1.407 -0.0148  0.0221 -0.6288
   13BDTP   C1017771   2.040   2.234   1.443  0.0405  0.0290 -0.4688
   13BDTP    S217772   1.870   2.297   1.459  0.0990  0.0757 -0.0036
   14FTM     S117773   1.594   2.680   1.344  0.0224  0.4207 -0.0585
   14FTM     C117774   1.465   2.644   1.464  0.0276  0.1544 -0.1300
   14FTM     C217775   1.515   2.565   1.563  0.0032 -0.1538 -0.3622
   14FTM     C317776   1.653   2.528   1.551 -0.0203 -0.2005 -0.4956
   14FTM     C417777   1.711   2.580   1.440 -0.0138  0.0812 -0.3610
   14FTM     F117778   1.438   2.521   1.670  0.0009 -0.4120 -0.4679
   14FTM     C517779   1.321   2.700   1.444  0.4696 -0.7063  0.3942
   14FTM     C617780   1.273   2.828   1.522  0.2449  0.2194  0.9134
   14FTM     C717781   1.212   2.780   1.655  0.1655 -0.0035  0.1405
   14FTM     C817782   1.082   2.702   1.641 -0.5463  0.1242  0.2597
   14FTM     C917783   0.954   2.774   1.601 -0.2972 -0.1265  0.2553
   14FTM    C1017784   0.830   2.684   1.601  0.1476  0.2095 -0.1735
   14FTM    C1117785   1.355   2.957   1.528 -0.1931  0.1426  0.2088
   14FTM    C1217786   1.389   3.018   1.391 -0.3536 -0.4529 -0.1762
   15FTM     S117787   2.358   2.647   1.183  0.1533 -0.0242  0.0798
   15FTM     C117788   2.519   2.642   1.263  0.0767 -0.0157  0.2349
   15FTM     C217789   2.506   2.598   1.391 -0.0526  0.0467  0.2432
   15FTM     C317790   2.372   2.566   1.433 -0.0988  0.0904  0.1322
   15FTM     C417791   2.281   2.586   1.335 -0.0017  0.0607  0.0357
   15FTM     F117792   2.613   2.584   1.477 -0.1368  0.0677  0.3519
   15FTM     C517793   2.640   2.680   1.170  0.7655  0.3180  0.0568
   15FTM     C617794   2.736   2.578   1.129 -0.8517 -0.7173  0.0424
   15FTM     C717795   2.840   2.557   1.239 -0.4721 -0.1094  0.2031
   15FTM     C817796   2.947   2.654   1.270 -1.1082  0.3854 -0.6674
   15FTM     C917797   3.043   2.588   1.372  0.1679  0.0597  0.5702
   15FTM    C1017798   3.126   2.463   1.339 -0.4491  0.2714 -0.4356
   15FTM    C1117799   2.682   2.459   1.061 -0.1645  0.4956  0.6257
   15FTM    C1217800   2.777   2.387   0.969  0.2788 -0.6215  0.7993
   16TPM     C117801   2.063   2.097   1.491 -0.7091 -0.3489 -0.2698
   16TPM     C217802   2.115   1.995   1.416 -0.5498 -0.4455 -0.0289
   16TPM     C317803   2.115   1.868   1.485 -0.0852 -0.2322  0.3792
   16TPM     C417804   2.064   1.873   1.611  0.1097  0.0268  0.4495
   16TPM     S117805   2.010   2.040   1.654 -0.2813  0.0216  0.0023
   17BDD     C117806   2.026   1.563   1.856  0.0600 -0.2387 -0.1188
   17BDD     C217807   2.154   1.608   1.873  0.0368 -0.1973 -0.0489
   17BDD     C317808   2.187   1.721   1.788 -0.0159 -0.0592  0.1141
   17BDD     C417809   2.083   1.761   1.709 -0.0321  0.0027  0.1663
   17BDD     S117810   1.938   1.660   1.734  0.0175 -0.1076  0.0148
   17BDD     C517811   2.251   1.548   1.967  0.0622 -0.2833 -0.1295
   17BDD     C617812   2.320   1.786   1.790 -0.0483  0.0063  0.2123
   17BDD     O117813   2.349   1.883   1.717 -0.0937  0.1253  0.3529
   17BDD     O217814   2.222   1.450   2.040  0.1078 -0.4024 -0.2701
   17BDD     C717815   2.417   1.726   1.884 -0.0228 -0.0797  0.1317
   17BDD     C817816   2.384   1.612   1.968  0.0300 -0.2178 -0.0314
   17BDD     C917817   2.488   1.572   2.048  0.0462 -0.2798 -0.0835
   17BDD     S217818   2.633   1.673   2.023 -0.0034 -0.1695  0.0680
   17BDD    C1017819   2.545   1.770   1.900 -0.0460 -0.0384  0.2015
   17BDD    C1117820   2.636   1.875   1.826  0.6198  0.4172  0.0376
   17BDD    C1217821   2.616   2.028   1.859  0.4511  0.4963  1.0534
   17BDD    C1317822   2.670   2.128   1.752  0.2575 -0.0173 -0.9734
   17BDD    C1417823   2.619   2.111   1.611  0.5946  0.1968 -0.1608
   17BDD    C1517824   2.646   2.230   1.523  0.1139  0.1481  0.9067
   17BDD    C1617825   2.593   2.223   1.381  0.0195  0.7846 -0.0694
   17BDD    C1717826   2.657   2.068   2.001  0.1440 -0.1518  0.9207
   17BDD    C1817827   2.797   2.108   2.041  0.1604  0.1279 -0.2680
   17BDD    C1917828   2.495   1.470   2.157  0.2867 -0.0985  0.0959
   17BDD    C2017829   2.516   1.513   2.303  0.7346 -0.1632 -0.1205
   17BDD    C2117830   2.443   1.648   2.345 -0.2610  0.4075  0.3576
   17BDD    C2217831   2.454   1.701   2.485 -0.7063  0.2503 -0.0834
   17BDD    C2317832   2.604   1.705   2.536  0.2900 -0.7237  0.0572
   17BDD    C2417833   2.595   1.770   2.680 -0.3271 -0.3842 -0.0356
   17BDD    C2517834   2.483   1.391   2.391  0.2109 -0.2788 -0.5977
   17BDD    C2617835   2.564   1.265   2.380 -0.0441  0.0257 -0.1253
   18TPM     C117836   1.937   1.472   1.924  0.0864  0.2386  0.1629
   18TPM     C217837   1.974   1.354   1.982  0.3334  0.5605  0.6691
   18TPM     C317838   1.863   1.275   2.029  0.4800  0.3782  0.7120
   18TPM     C417839   1.741   1.333   2.006  0.3447 -0.0827  0.2384
   18TPM     S117840   1.758   1.492   1.923  0.0191 -0.3240 -0.3025
   19BDTP    C117841   1.171   1.187   2.227 -0.0311 -0.1095  0.1307
   19BDTP    C217842   1.231   1.059   2.218 -0.0291 -0.1006  0.0209
   19BDTP    C317843   1.360   1.039   2.169 -0.0449 -0.0618 -0.0362
   19BDTP    C417844   1.433   1.152   2.128 -0.0634 -0.0302  0.0175
   19BDTP    C517845   1.372   1.281   2.137 -0.0653 -0.0391  0.1273
   19BDTP    C617846   1.244   1.300   2.186 -0.0496 -0.0779  0.1843
   19BDTP    C717847   1.567   1.157   2.074 -0.0818  0.0124 -0.0247
   19BDTP    C817848   1.610   1.282   2.043 -0.0973  0.0356  0.0471
   19BDTP    S117849   1.487   1.411   2.078 -0.0907  0.0067  0.1784
   19BDTP    C917850   1.037   1.182   2.281 -0.0127 -0.1521  0.1729
   19BDTP   C1017851   0.994   1.058   2.312  0.0027 -0.1753  0.1011
   19BDTP    S217852   1.117   0.929   2.277 -0.0038 -0.1464 -0.0302
   20FTM     S117853   1.409   0.788   2.291  0.0243 -0.0621 -0.1583
   20FTM     C117854   1.463   0.654   2.183  0.0383 -0.0573 -0.1573
   20FTM     C217855   1.480   0.700   2.057 -0.0789 -0.0817 -0.1822
   20FTM     C317856   1.453   0.840   2.036 -0.1842 -0.1051 -0.2030
   20FTM     C417857   1.414   0.902   2.150 -0.1464 -0.0983 -0.1938
   20FTM     F117858   1.521   0.619   1.952 -0.0978 -0.0843 -0.1875
   20FTM     C517859   1.473   0.517   2.232  0.3078  0.7070 -0.2918
   20FTM     C617860   1.571   0.466   2.337  1.1341  0.0833 -0.6699
   20FTM     C717861   1.561   0.543   2.472 -0.6483  0.4242  0.2322
   20FTM     C817862   1.432   0.527   2.560  1.0761 -0.0703  0.7149
   20FTM     C917863   1.449   0.607   2.684 -0.0923 -0.5749  0.6445
   20FTM    C1017864   1.341   0.596   2.784  1.1671 -0.1503  0.7098
   20FTM    C1117865   1.717   0.453   2.299 -0.1974 -0.3313 -0.6502
   20FTM    C1217866   1.802   0.572   2.245  0.1649  0.1459 -0.3840
   21FTM     S117867   1.096   1.498   2.045 -0.0909 -0.0639 -0.2048
   21FTM     C117868   1.060   1.648   2.139 -0.0709  0.0064 -0.3092
   21FTM     C217869   1.112   1.638   2.264 -0.0973  0.0749 -0.2928
   21FTM     C317870   1.181   1.516   2.294 -0.1339  0.0769 -0.2003
   21FTM     C417871   1.183   1.430   2.189 -0.1355  0.0075 -0.1441
   21FTM     F117872   1.099   1.738   2.359 -0.0900  0.1400 -0.3606
   21FTM     C517873   0.994   1.770   2.087  0.1124  0.2202 -0.2400
   21FTM     C617874   1.078   1.878   2.012 -0.6324  0.6880 -0.5445
   21FTM     C717875   1.158   1.976   2.098 -0.0451 -0.4384 -0.4773
   21FTM     C817876   1.076   2.086   2.173  0.4118  0.6279  0.0291
   21FTM     C917877   1.179   2.175   2.240 -0.1487 -0.0271 -0.0155
   21FTM    C1017878   1.109   2.307   2.294 -0.3951  0.1033  0.1642
   21FTM    C1117879   1.166   1.832   1.899 -0.0139  0.1373  0.9360
   21FTM    C1217880   1.106   1.752   1.780  0.2421  0.2317 -0.5915
   22TPM     C117881   0.860   1.029   2.360 -0.1126 -0.3756 -0.0229
   22TPM     C217882   0.804   0.908   2.385 -0.0856 -0.2932  0.4583
   22TPM     C317883   0.668   0.916   2.432  0.0065 -0.1277  0.6965
   22TPM     C417884   0.621   1.043   2.444  0.0497 -0.0839  0.3970
   22TPM     S117885   0.746   1.164   2.395 -0.0230 -0.2496 -0.2140
   23BDD     C117886   0.267   1.187   2.350  0.1895 -0.0903  0.1080
   23BDD     C217887   0.244   1.102   2.455  0.1743 -0.0455  0.1409
   23BDD     C317888   0.364   1.036   2.504  0.1777  0.0239  0.2281
   23BDD     C417889   0.477   1.071   2.434  0.1955  0.0308  0.2606
   23BDD     S117890   0.441   1.189   2.304  0.2092 -0.0489  0.1842
   23BDD     C517891   0.111   1.079   2.516  0.1560 -0.0647  0.0931
   23BDD     C617892   0.363   0.941   2.616  0.1632  0.0807  0.2761
   23BDD     O117893   0.466   0.884   2.658  0.1662  0.1405  0.3513
   23BDD     O217894   0.008   1.136   2.474  0.1531 -0.1245  0.0179
   23BDD     C717895   0.230   0.918   2.676  0.1450  0.0615  0.2285
   23BDD     C817896   0.110   0.984   2.628  0.1415 -0.0079  0.1412
   23BDD     C917897  -0.003   0.949   2.697  0.1237 -0.0148  0.1087
   23BDD     S217898   0.034   0.831   2.827  0.1101  0.0649  0.1852
   23BDD    C1017899   0.207   0.833   2.781  0.1298  0.1064  0.2612
   23BDD    C1117900   0.304   0.757   2.869  0.0819  0.1357 -0.9485
   23BDD    C1217901   0.401   0.828   2.964  0.3618  0.5331 -0.4384
   23BDD    C1317902   0.501   0.728   3.031 -0.0724  0.5154 -0.3372
   23BDD    C1417903   0.586   0.640   2.935  0.2004 -0.5031  0.2147
   23BDD    C1517904   0.701   0.568   3.004  0.2095 -0.1779  0.4218
   23BDD    C1617905   0.795   0.497   2.906 -0.0195  0.7280  0.2636
   23BDD    C1717906   0.331   0.928   3.060 -0.0583  0.0162  0.2839
   23BDD    C1817907   0.426   1.007   3.145  0.9187  0.2213 -0.3053
   23BDD    C1917908  -0.152   0.969   2.679 -0.1358  0.4569  0.4988
   23BDD    C2017909  -0.240   0.850   2.653  0.9934 -0.4205 -0.0069
   23BDD    C2117910  -0.220   0.796   2.507 -0.2614 -0.3993 -0.9184
   23BDD    C2217911  -0.285   0.661   2.496 -0.0005 -0.7986  0.0130
   23BDD    C2317912  -0.246   0.577   2.372 -0.0194  0.3278  0.0292
   23BDD    C2417913  -0.310   0.447   2.384  0.3496  0.3978 -0.3458
   23BDD    C2517914  -0.395   0.863   2.694  0.2868  0.6619 -0.3743
   23BDD    C2617915  -0.478   0.976   2.632 -0.0242 -0.1898 -0.0343
   24TPM     C117916   0.188   1.288   2.275  0.0100 -0.0362  0.1368
   24TPM     C217917   0.066   1.260   2.222 -0.1664  0.1341  0.4451
   24TPM     C317918   0.016   1.362   2.133 -0.2003  0.1559  0.4892
   24TPM     C417919   0.101   1.469   2.120 -0.0496  0.0023  0.2146
   24TPM     S117920   0.251   1.447   2.218  0.1482 -0.1834 -0.1237
   25BDTP    C117921   0.027   2.045   1.871  0.0591 -0.0488 -0.1521
   25BDTP    C217922  -0.097   1.982   1.840  0.0408  0.0173 -0.2123
   25BDTP    C317923  -0.125   1.850   1.873 -0.0627  0.0455 -0.1859
   25BDTP    C417924  -0.026   1.776   1.940 -0.1519  0.0069 -0.0960
   25BDTP    C517925   0.098   1.839   1.972 -0.1336 -0.0591 -0.0358
   25BDTP    C617926   0.126   1.971   1.938 -0.0303 -0.0873 -0.0621
   25BDTP    C717927  -0.032   1.639   1.985 -0.2662  0.0254 -0.0533
   25BDTP    C817928   0.081   1.595   2.047 -0.3337 -0.0229  0.0349
   25BDTP    S117929   0.209   1.723   2.059 -0.2619 -0.0986  0.0763
   25BDTP    C917930   0.033   2.182   1.826  0.1734 -0.0673 -0.1948
   25BDTP   C1017931  -0.079   2.225   1.764  0.2408 -0.0190 -0.2830
   25BDTP    S217932  -0.208   2.097   1.753  0.1692  0.0567 -0.3244
   26FTM     S117933  -0.371   1.718   1.945 -0.0366 -0.1697 -0.1026
   26FTM     C117934  -0.475   1.666   1.807 -0.3804  0.2661 -0.0109
   26FTM     C217935  -0.419   1.706   1.690 -0.4537  0.2641 -0.0464
   26FTM     C317936  -0.296   1.778   1.700 -0.2515 -0.0683 -0.1447
   26FTM     C417937  -0.255   1.793   1.829 -0.0161 -0.3294 -0.1858
   26FTM     F117938  -0.477   1.680   1.566 -0.7079  0.5632  0.0080
   26FTM     C517939  -0.602   1.586   1.847 -0.0655 -0.5408  0.4617
   26FTM     C617940  -0.738   1.662   1.860 -0.5390 -0.5305  0.4254
   26FTM     C717941  -0.760   1.761   1.743  0.1537 -0.6245 -0.7452
   26FTM     C817942  -0.881   1.867   1.761 -0.1596  0.1333  0.1464
   26FTM     C917943  -0.895   1.936   1.898 -0.4931 -0.4949  0.4739
   26FTM    C1017944  -1.033   1.978   1.922 -0.7073  0.4327 -0.5243
   26FTM    C1117945  -0.852   1.577   1.900  0.2585  0.1286 -0.0924
   26FTM    C1217946  -0.836   1.512   2.038  0.1506  0.0036 -0.3517
   27FTM     S117947   0.416   1.938   1.926  0.3981 -0.0460  0.0378
   27FTM     C117948   0.512   2.081   1.977  0.3133  0.1889 -0.4504
   27FTM     C217949   0.429   2.183   2.011  0.2566  0.3752 -1.1212
   27FTM     C317950   0.289   2.157   2.000  0.2752  0.3476 -1.2923
   27FTM     C417951   0.263   2.031   1.956  0.3485  0.1329 -0.7343
   27FTM     F117952   0.475   2.307   2.055  0.1846  0.5821 -1.6201
   27FTM     C517953   0.659   2.067   1.994  0.3407  0.0083  0.3101
   27FTM     C617954   0.746   2.116   1.875 -0.0261 -0.9660  0.2190
   27FTM     C717955   0.771   2.263   1.855 -0.0059  0.3503 -0.0857
   27FTM     C817956   0.844   2.327   1.968 -0.0018  0.2103  0.5181
   27FTM     C917957   0.852   2.472   1.939  0.4133 -0.0472  0.4808
   27FTM    C1017958   0.925   2.570   2.018  0.1249  0.4126 -0.4845
   27FTM    C1117959   0.736   2.050   1.738 -0.6334  0.2897 -0.0001
   27FTM    C1217960   0.754   1.898   1.739 -0.2630  0.5547 -0.2695
   28TPM     C117961  -0.103   2.352   1.699 -0.2233  0.3358  0.2943
   28TPM     C217962  -0.024   2.461   1.681 -0.4654  0.5444  0.4802
   28TPM     C317963  -0.084   2.563   1.598 -0.5214  0.3692  0.3052
   28TPM     C417964  -0.209   2.530   1.553 -0.3227  0.0271 -0.0141
   28TPM     S117965  -0.261   2.368   1.613 -0.0468 -0.1015 -0.1194
   29BDD     C117966  -0.505   2.719   1.383  0.0548 -0.3098 -0.1412
   29BDD     C217967  -0.394   2.755   1.312  0.0534 -0.2092 -0.0920
   29BDD     C317968  -0.271   2.698   1.364  0.0894 -0.0582 -0.0078
   29BDD     C417969  -0.290   2.618   1.473  0.1177 -0.0459  0.0061
   29BDD     S117970  -0.463   2.610   1.520  0.1011 -0.2225 -0.0854
   29BDD     C517971  -0.397   2.845   1.194  0.0191 -0.2481 -0.1208
   29BDD     C617972  -0.139   2.724   1.302  0.0947  0.0684  0.0559
   29BDD     O117973  -0.033   2.674   1.347  0.1256  0.1987  0.1286
   29BDD     O217974  -0.503   2.894   1.150 -0.0122 -0.3783 -0.1934
   29BDD     C717975  -0.142   2.813   1.185  0.0598  0.0295  0.0273
   29BDD     C817976  -0.265   2.870   1.133  0.0241 -0.1215 -0.0570
   29BDD     C917977  -0.246   2.950   1.024 -0.0043 -0.1337 -0.0709
   29BDD     S217978  -0.073   2.958   0.977  0.0126  0.0429  0.0206
   29BDD    C1017979  -0.031   2.849   1.114  0.0587  0.1302  0.0764
   29BDD    C1117980   0.111   2.809   1.121 -0.6806 -0.0435  0.3447
   29BDD    C1217981   0.216   2.906   1.194 -0.0660  0.1881  0.1890
   29BDD    C1317982   0.233   3.039   1.126 -0.0547 -0.4147  0.0386
   29BDD    C1417983   0.298   3.041   0.990  0.4381  0.0741  0.4864
   29BDD    C1517984   0.356   3.176   0.942 -0.3406 -0.0404 -0.4189
   29BDD    C1617985   0.342   3.215   0.797  0.2691 -0.3457  0.6512
   29BDD    C1717986   0.354   2.832   1.221 -0.5122  0.0799  0.4335
   29BDD    C1817987   0.359   2.703   1.304  0.3677 -0.2493 -0.4810
   29BDD    C1917988  -0.335   3.026   0.934  0.2919 -0.3818  0.7608
   29BDD    C2017989  -0.432   2.946   0.847  0.7596  0.0467 -0.2063
   29BDD    C2117990  -0.367   2.822   0.788  0.7151  0.0438 -0.0071
   29BDD    C2217991  -0.460   2.717   0.729 -0.0348  0.1745 -0.1189
   29BDD    C2317992  -0.548   2.635   0.824 -0.0491  0.0723 -1.1125
   29BDD    C2417993  -0.599   2.505   0.758  0.2360 -0.2771 -0.0756
   29BDD    C2517994  -0.539   3.022   0.763 -0.0931 -0.2151 -0.0539
   29BDD    C2617995  -0.663   3.079   0.831 -0.2372 -0.8400 -0.2966
   30TPM     C117996  -0.655   2.747   1.373 -0.2921  0.2613  0.1394
   30TPM     C217997  -0.716   2.732   1.252 -0.4566  0.8767  0.1436
   30TPM     C317998  -0.858   2.710   1.261 -0.4785  1.0379  0.2123
   30TPM     C417999  -0.905   2.707   1.389 -0.3297  0.5455  0.2605
   30TPM     S118000  -0.773   2.733   1.509 -0.1498 -0.1655  0.2225
   31BDTP    C118001  -1.470   2.597   1.636  0.3042  0.1236 -0.0639
   31BDTP    C218002  -1.495   2.578   1.497  0.2215  0.1674 -0.0551
   31BDTP    C318003  -1.397   2.594   1.401  0.1764  0.1463 -0.1044
   31BDTP    C418004  -1.268   2.630   1.443  0.2153  0.0788 -0.1654
   31BDTP    C518005  -1.243   2.649   1.582  0.2983  0.0351 -0.1742
   31BDTP    C618006  -1.341   2.633   1.679  0.3435  0.0563 -0.1249
   31BDTP    C718007  -1.150   2.652   1.362  0.1812  0.0455 -0.2236
   31BDTP    C818008  -1.039   2.686   1.432  0.2344 -0.0203 -0.2751
   31BDTP    S118009  -1.069   2.695   1.611  0.3350 -0.0493 -0.2570
   31BDTP    C918010  -1.588   2.575   1.718  0.3383  0.1569 -0.0056
   31BDTP   C1018011  -1.699   2.541   1.647  0.2851  0.2227  0.0458
   31BDTP    S218012  -1.669   2.532   1.468  0.1849  0.2517  0.0277
   32FTM     S118013  -1.457   2.429   1.162 -0.0035  0.1066 -0.1062
   32FTM     C118014  -1.517   2.526   1.022 -0.3756 -0.0089 -0.0294
   32FTM     C218015  -1.512   2.658   1.052 -0.3920  0.0111 -0.1148
   32FTM     C318016  -1.463   2.692   1.182 -0.1221  0.1149 -0.2421
   32FTM     C418017  -1.429   2.581   1.254  0.1081  0.1765 -0.2545
   32FTM     F118018  -1.552   2.757   0.963 -0.6518 -0.0634 -0.0828
   32FTM     C518019  -1.564   2.471   0.891  0.2132  0.1681  0.7473
   32FTM     C618020  -1.613   2.319   0.882 -0.4656 -0.3174 -0.2352
   32FTM     C718021  -1.745   2.289   0.959 -0.3554 -0.1434  0.2087
   32FTM     C818022  -1.877   2.337   0.895 -0.0077 -0.0160  0.3983
   32FTM     C918023  -1.998   2.298   0.983  0.5050 -1.1839 -0.2480
   32FTM    C1018024  -2.134   2.343   0.928 -0.7168  0.2169  0.1289
   32FTM    C1118025  -1.509   2.206   0.881 -0.2646  0.0968 -0.4772
   32FTM    C1218026  -1.382   2.211   0.801 -0.3698  0.3385 -0.0100
   33FTM     S118027  -1.175   2.526   1.882 -0.0341  0.2253 -0.2081
   33FTM     C118028  -1.183   2.610   2.041 -0.2721 -0.1565 -0.0168
   33FTM     C218029  -1.272   2.713   2.036 -0.4053 -0.2603  0.1544
   33FTM     C318030  -1.337   2.732   1.910 -0.3314 -0.0541  0.1473
   33FTM     C418031  -1.298   2.641   1.816 -0.1361  0.2162 -0.0352
   33FTM     F118032  -1.299   2.795   2.144 -0.6015 -0.5480  0.3275
   33FTM     C518033  -1.095   2.573   2.160 -0.4867 -0.4914  0.0389
   33FTM     C618034  -1.141   2.527   2.303  0.2616 -0.7161  0.0735
   33FTM     C718035  -1.262   2.435   2.312  0.0095 -0.3606  0.4396
   33FTM     C818036  -1.252   2.300   2.235 -0.2202  0.2914 -0.5452
   33FTM     C918037  -1.376   2.204   2.265 -0.1167  0.2833 -0.6080
   33FTM    C1018038  -1.378   2.069   2.193 -0.0602 -0.4315  0.4481
   33FTM    C1118039  -1.029   2.506   2.410 -0.1133 -0.0557  0.4323
   33FTM    C1218040  -0.904   2.595   2.407 -0.1117 -0.2646 -0.4401
   34TPM     C118041  -1.829   2.515   1.701  0.0848  0.5153 -0.0480
   34TPM     C218042  -1.919   2.415   1.675 -0.0070  0.7327 -0.5892
   34TPM     C318043  -2.023   2.404   1.773 -0.0345  0.3160 -0.6620
   34TPM     C418044  -2.014   2.495   1.875  0.0364 -0.2193 -0.1763
   34TPM     S118045  -1.870   2.603   1.853  0.1440 -0.2386  0.4153
   35BDD     C118046  -2.151   2.578   2.237 -0.0840  0.2597 -0.1244
   35BDD     C218047  -2.254   2.515   2.174 -0.0553  0.2258 -0.1378
   35BDD     C318048  -2.224   2.476   2.037 -0.0335  0.2578 -0.1420
   35BDD     C418049  -2.097   2.510   1.998 -0.0460  0.3157 -0.1319
   35BDD     S118050  -2.008   2.593   2.130 -0.0857  0.3341 -0.1162
   35BDD     C518051  -2.385   2.488   2.237 -0.0468  0.1627 -0.1472
   35BDD     C618052  -2.321   2.407   1.951 -0.0012  0.2298 -0.1561
   35BDD     O118053  -2.295   2.374   1.833  0.0175  0.2574 -0.1597
   35BDD     O218054  -2.412   2.521   2.355 -0.0656  0.1351 -0.1435
   35BDD     C718055  -2.452   2.380   2.014  0.0072  0.1667 -0.1655
   35BDD     C818056  -2.483   2.418   2.150 -0.0145  0.1346 -0.1612
   35BDD     C918057  -2.609   2.384   2.189 -0.0021  0.0768 -0.1715
   35BDD     S218058  -2.699   2.301   2.058  0.0378  0.0584 -0.1870
   35BDD    C1018059  -2.556   2.317   1.950  0.0359  0.1328 -0.1788
   35BDD    C1118060  -2.578   2.254   1.816  0.4548  0.2564  0.2488
   35BDD    C1218061  -2.540   2.109   1.787 -0.2258 -0.2420  0.2999
   35BDD    C1318062  -2.509   2.054   1.645  0.5295 -0.6481 -0.4186
   35BDD    C1418063  -2.441   2.145   1.545 -0.3597 -0.0347  0.5885
   35BDD    C1518064  -2.301   2.196   1.580 -0.0534  0.3584  0.3111
   35BDD    C1618065  -2.227   2.268   1.460  0.6666 -0.3561 -0.5301
   35BDD    C1718066  -2.622   2.015   1.880 -0.0909 -0.3405 -0.7708
   35BDD    C1818067  -2.570   1.871   1.891 -0.6388 -0.2356 -0.8216
   35BDD    C1918068  -2.684   2.405   2.318 -0.3315 -0.0356  0.3473
   35BDD    C2018069  -2.771   2.288   2.370 -0.0159  0.4103  0.5246
   35BDD    C2118070  -2.694   2.159   2.405  0.1305 -0.7073 -0.4640
   35BDD    C2218071  -2.776   2.029   2.425  0.0218  0.1818 -0.0818
   35BDD    C2318072  -2.881   1.981   2.321 -0.0691 -0.1214  0.1973
   35BDD    C2418073  -2.822   1.940   2.183  0.6533  0.3958 -0.3382
   35BDD    C2518074  -2.878   2.333   2.467  0.5351 -0.1004 -0.5125
   35BDD    C2618075  -2.972   2.451   2.413  0.3243 -0.1157 -0.2225
   36TPM     C118076  -2.127   2.634   2.372  0.0236 -0.2333  0.3423
   36TPM     C218077  -2.134   2.558   2.485 -0.0281  0.2046  0.6421
   36TPM     C318078  -2.077   2.620   2.601  0.2007  0.5354  0.3567
   36TPM     C418079  -2.026   2.744   2.578  0.4266  0.3498 -0.1607
   36TPM     S118080  -2.046   2.792   2.405  0.3675 -0.2620 -0.3289
   37BDTP    C118081  -1.688   3.139   2.932 -0.1072 -0.0991  0.1092
   37BDTP    C218082  -1.771   3.227   2.857 -0.0018 -0.0730  0.0226
   37BDTP    C318083  -1.865   3.182   2.765  0.0985 -0.0425 -0.0960
   37BDTP    C418084  -1.878   3.043   2.747  0.0951 -0.0375 -0.1313
   37BDTP    C518085  -1.795   2.955   2.822 -0.0103 -0.0636 -0.0448
   37BDTP    C618086  -1.701   3.000   2.913 -0.1106 -0.0941  0.0739
   37BDTP    C718087  -1.968   2.973   2.658  0.1879 -0.0080 -0.2490
   37BDTP    C818088  -1.957   2.838   2.662  0.1577 -0.0107 -0.2550
   37BDTP    S118089  -1.830   2.781   2.780  0.0074 -0.0510 -0.1122
   37BDTP    C918090  -1.598   3.210   3.021 -0.2000 -0.1285  0.2270
   37BDTP   C1018091  -1.609   3.344   3.016 -0.1698 -0.1258  0.2329
   37BDTP    S218092  -1.735   3.401   2.899 -0.0197 -0.0855  0.0902
   38FTM     S118093  -2.038   3.402   2.814 -0.0612  0.0583  0.0554
   38FTM     C118094  -2.072   3.507   2.672 -0.3759 -0.0261  0.0661
   38FTM     C218095  -2.020   3.452   2.559 -0.5389 -0.0444 -0.0014
   38FTM     C318096  -1.952   3.327   2.576 -0.4318  0.0049 -0.0639
   38FTM     C418097  -1.952   3.285   2.706 -0.1783  0.0629 -0.0437
   38FTM     F118098  -2.030   3.511   2.434 -0.7948 -0.1070 -0.0106
   38FTM     C518099  -2.148   3.634   2.700  0.2554 -0.2066  0.3321
   38FTM     C618100  -2.085   3.733   2.798 -0.3307 -0.0190 -0.4355
   38FTM     C718101  -2.184   3.834   2.857 -0.0180  0.1075 -0.1077
   38FTM     C818102  -2.314   3.784   2.931  0.0020  0.6446 -0.1575
   38FTM     C918103  -2.296   3.685   3.047  0.0722  0.5777  0.5548
   38FTM    C1018104  -2.426   3.622   3.108  0.4313  0.3283  0.8388
   38FTM    C1118105  -1.949   3.795   2.775 -0.1852 -0.1657  0.5614
   38FTM    C1218106  -1.939   3.901   2.661  0.4290 -0.1835 -0.5585
   39FTM     S118107  -1.730   2.849   3.154 -0.0737 -0.0681 -0.0635
   39FTM     C118108  -1.587   2.754   3.208 -0.0666  0.2669  0.5313
   39FTM     C218109  -1.483   2.774   3.123  0.2010  0.4016  0.8833
   39FTM     C318110  -1.508   2.863   3.013  0.4122  0.2560  0.7159
   39FTM     C418111  -1.635   2.912   3.014  0.3024  0.0015  0.2196
   39FTM     F118112  -1.359   2.714   3.139  0.2711  0.6647  1.3779
   39FTM     C518113  -1.580   2.684   3.342  0.0606 -0.4964 -0.5685
   39FTM     C618114  -1.622   2.543   3.374  0.2434 -0.4246 -0.2380
   39FTM     C718115  -1.519   2.423   3.361 -0.4014 -0.4184 -0.1719
   39FTM     C818116  -1.404   2.414   3.461  0.4456 -0.4116 -0.2448
   39FTM     C918117  -1.301   2.299   3.443 -0.0397  0.3142  0.2190
   39FTM    C1018118  -1.223   2.265   3.569 -0.1650  0.0531  0.3610
   39FTM    C1118119  -1.753   2.495   3.307  0.0098  0.7269 -0.3523
   39FTM    C1218120  -1.886   2.577   3.323  0.0488  0.2471 -0.7827
   40TPM     C118121  -1.527   3.436   3.090  0.2985 -0.0375 -0.3451
   40TPM     C218122  -1.558   3.566   3.114  0.2961 -0.0177 -0.4565
   40TPM     C318123  -1.454   3.640   3.179  0.2072 -0.0206 -0.3086
   40TPM     C418124  -1.342   3.566   3.205  0.1415 -0.0425 -0.0844
   40TPM     S118125  -1.361   3.396   3.149  0.1872 -0.0615 -0.0424
   41BDD     C118126  -1.120   3.630   3.522  0.0250  0.1324  0.0156
   41BDD     C218127  -1.105   3.740   3.442 -0.0212  0.1447  0.0237
   41BDD     C318128  -1.179   3.730   3.317 -0.0212  0.1253  0.0254
   41BDD     C418129  -1.249   3.613   3.304  0.0242  0.0987  0.0185
   41BDD     S118130  -1.227   3.507   3.447  0.0708  0.0958  0.0096
   41BDD     C518131  -1.022   3.857   3.477 -0.0660  0.1746  0.0302
   41BDD     C618132  -1.177   3.837   3.215 -0.0665  0.1340  0.0337
   41BDD     O118133  -1.240   3.829   3.107 -0.0670  0.1173  0.0351
   41BDD     O218134  -0.959   3.865   3.584 -0.0658  0.1912  0.0287
   41BDD     C718135  -1.094   3.954   3.250 -0.1121  0.1640  0.0401
   41BDD     C818136  -1.020   3.964   3.375 -0.1116  0.1833  0.0384
   41BDD     C918137  -0.950   4.081   3.387 -0.1574  0.2099  0.0454
   41BDD     S218138  -0.972   4.187   3.244 -0.2040  0.2128  0.0543
   41BDD    C1018139  -1.079   4.064   3.169 -0.1578  0.1762  0.0483
   41BDD    C1118140  -1.133   4.101   3.033 -0.2632 -0.2588  0.5530
   41BDD    C1218141  -1.279   4.145   3.036  0.1304  0.5118  0.4248
   41BDD    C1318142  -1.304   4.275   3.109 -0.0674  0.3766 -1.2249
   41BDD    C1418143  -1.445   4.323   3.125  0.2718  0.0421 -0.6058
   41BDD    C1518144  -1.480   4.446   3.208 -0.6766  0.6983 -0.7997
   41BDD    C1618145  -1.455   4.583   3.142 -0.3802 -0.1597 -0.1819
   41BDD    C1718146  -1.343   4.145   2.894  0.0470 -0.2549 -1.1678
   41BDD    C1818147  -1.312   4.026   2.805 -0.5987 -0.3791  0.1181
   41BDD    C1918148  -0.849   4.115   3.491  0.4982 -0.1807  0.0971
   41BDD    C2018149  -0.701   4.111   3.462 -0.2168  0.5865  0.3266
   41BDD    C2118150  -0.610   4.130   3.587  0.2481  0.5505 -0.0461
   41BDD    C2218151  -0.580   4.023   3.688 -0.8163  0.4202 -0.6214
   41BDD    C2318152  -0.699   3.968   3.772  0.0872 -0.4125 -0.1527
   41BDD    C2418153  -0.768   4.055   3.879 -0.4788  0.2205 -0.2041
   41BDD    C2518154  -0.643   4.177   3.338  0.7821  0.2341 -0.2543
   41BDD    C2618155  -0.499   4.166   3.296  0.3036 -0.0546 -0.0490
   42TPM     C118156  -1.084   3.588   3.660  0.1575 -0.5125  0.3506
   42TPM     C218157  -1.115   3.466   3.711 -0.1886 -0.1860  0.9376
   42TPM     C318158  -1.080   3.451   3.850 -0.3161  0.4051  1.0416
   42TPM     C418159  -1.021   3.561   3.904 -0.0669  0.5291  0.5340
   42TPM     S118160  -1.006   3.694   3.783  0.3512 -0.0958 -0.1199
   43BDTP    C118161  -0.819   3.743   4.473  0.1132 -0.2290  0.0722
   43BDTP    C218162  -0.943   3.680   4.504  0.0367 -0.1134  0.0050
   43BDTP    C318163  -1.022   3.619   4.407  0.0272 -0.0290 -0.0397
   43BDTP    C418164  -0.977   3.622   4.274  0.0958 -0.0600 -0.0173
   43BDTP    C518165  -0.854   3.685   4.243  0.1726 -0.1755  0.0501
   43BDTP    C618166  -0.774   3.746   4.340  0.1819 -0.2599  0.0948
   43BDTP    C718167  -1.042   3.566   4.157  0.1007  0.0123 -0.0543
   43BDTP    C818168  -0.974   3.584   4.041  0.1760 -0.0426 -0.0188
   43BDTP    S118169  -0.818   3.675   4.065  0.2520 -0.1937  0.0670
   43BDTP    C918170  -0.755   3.799   4.591  0.1087 -0.3012  0.1097
   43BDTP   C1018171  -0.823   3.780   4.706  0.0329 -0.2463  0.0739
   43BDTP    S218172  -0.979   3.690   4.683 -0.0425 -0.0951 -0.0117
   44FTM     S118173  -1.281   3.666   4.514  0.4952 -0.1951  0.0184
   44FTM     C118174  -1.395   3.526   4.520  0.1399  0.0738 -0.2759
   44FTM     C218175  -1.332   3.414   4.475 -0.1452  0.0122 -0.5188
   44FTM     C318176  -1.196   3.430   4.433 -0.1056 -0.2415 -0.4916
   44FTM     C418177  -1.153   3.559   4.447  0.2204 -0.3789 -0.2187
   44FTM     F118178  -1.395   3.291   4.468 -0.4590  0.1822 -0.7803
   44FTM     C518179  -1.547   3.552   4.542 -0.1301  0.4892  0.7277
   44FTM     C618180  -1.609   3.596   4.675  0.1634 -0.6283  0.2212
   44FTM     C718181  -1.554   3.732   4.735 -0.1641 -0.5064  0.5431
   44FTM     C818182  -1.438   3.714   4.826 -0.5242  0.2653 -0.3933
   44FTM     C918183  -1.398   3.848   4.878  0.5453  0.3710 -0.0813
   44FTM    C1018184  -1.272   3.836   4.964  0.0275  0.3264 -0.1358
   44FTM    C1118185  -1.765   3.601   4.678  0.2654 -0.1682  0.0396
   44FTM    C1218186  -1.840   3.463   4.655  0.3768  0.1491  0.3343
   45FTM     S118187  -0.638   3.932   4.163 -0.0730 -0.2783 -0.2776
   45FTM     C118188  -0.467   3.971   4.205 -0.1572  0.0287 -0.2169
   45FTM     C218189  -0.428   3.897   4.313 -0.2067  0.4321  0.0832
   45FTM     C318190  -0.526   3.808   4.367 -0.1824  0.5249  0.2794
   45FTM     C418191  -0.644   3.813   4.300 -0.1124  0.1813  0.1246
   45FTM     F118192  -0.301   3.906   4.368 -0.2768  0.7414  0.1979
   45FTM     C518193  -0.382   4.069   4.125  0.6365  0.6188 -0.6078
   45FTM     C618194  -0.297   4.022   4.006 -0.2388 -0.0968  0.5694
   45FTM     C718195  -0.199   3.902   4.022 -0.1480  0.3247 -1.3675
   45FTM     C818196  -0.253   3.760   4.032 -0.5180  0.3953  0.7886
   45FTM     C918197  -0.353   3.714   3.931 -0.3485  0.8918 -0.3157
   45FTM    C1018198  -0.411   3.574   3.964 -0.0088 -1.0085 -0.1617
   45FTM    C1118199  -0.223   4.138   3.938  0.3064 -0.2236 -0.1863
   45FTM    C1218200  -0.312   4.235   3.855  0.1026  0.1381 -0.0805
   46TPM     C118201  -0.788   3.823   4.842  0.0716  0.3388 -0.5263
   46TPM     C218202  -0.874   3.862   4.940  0.0024  0.5051 -0.6528
   46TPM     C318203  -0.809   3.913   5.057 -0.0670  0.3003 -0.5234
   46TPM     C418204  -0.673   3.913   5.049 -0.0515 -0.0220 -0.2985
   46TPM     S118205  -0.616   3.848   4.891  0.0535 -0.0925 -0.2319
   47BDD     C118206  -0.371   4.081   5.242  0.1275 -0.1503 -0.0766
   47BDD     C218207  -0.457   4.040   5.340  0.1049 -0.0999 -0.0755
   47BDD     C318208  -0.577   3.976   5.288  0.0546 -0.0080 -0.0743
   47BDD     C418209  -0.580   3.969   5.152  0.0394  0.0101 -0.0750
   47BDD     S118210  -0.433   4.042   5.079  0.0873 -0.0865 -0.0768
   47BDD     C518211  -0.433   4.058   5.485  0.1285 -0.1342 -0.0750
   47BDD     C618212  -0.683   3.923   5.376  0.0236  0.0583 -0.0727
   47BDD     O118213  -0.786   3.868   5.331 -0.0198  0.1374 -0.0718
   47BDD     O218214  -0.330   4.114   5.529  0.1717 -0.2133 -0.0759
   47BDD     C718215  -0.659   3.942   5.521  0.0472  0.0240 -0.0722
   47BDD     C818216  -0.540   4.006   5.573  0.0970 -0.0677 -0.0734
   47BDD     C918217  -0.537   4.013   5.709  0.1118 -0.0858 -0.0727
   47BDD     S218218  -0.683   3.939   5.782  0.0641  0.0108 -0.0707
   47BDD    C1018219  -0.746   3.900   5.618  0.0243  0.0746 -0.0708
   47BDD    C1118220  -0.866   3.819   5.614 -0.1920 -0.2248  0.6555
   47BDD    C1218221  -0.990   3.878   5.669  0.2592 -0.6032  0.0928
   47BDD    C1318222  -1.054   4.014   5.618 -0.4708  0.3016  0.1496
   47BDD    C1418223  -0.985   4.148   5.636  0.3195  0.5461 -0.1598
   47BDD    C1518224  -1.067   4.266   5.582 -0.2044  0.6862 -0.0270
   47BDD    C1618225  -0.984   4.391   5.573  0.3544  0.3649 -0.1574
   47BDD    C1718226  -1.101   3.773   5.702  0.2342  0.0764 -0.4938
   47BDD    C1818227  -1.185   3.713   5.591  0.2237  0.2905 -0.2471
   47BDD    C1918228  -0.435   4.066   5.810  0.7807 -0.2717  0.0877
   47BDD    C2018229  -0.492   4.181   5.901  0.1234 -0.5847 -0.2958
   47BDD    C2118230  -0.556   4.305   5.835  0.2634 -0.0410  0.0762
   47BDD    C2218231  -0.632   4.409   5.921  0.2474  0.0267  0.6838
   47BDD    C2318232  -0.741   4.355   6.010 -0.3706  0.4467 -0.3909
   47BDD    C2418233  -0.848   4.445   6.075 -0.6421 -0.1359 -0.0913
   47BDD    C2518234  -0.404   4.214   6.028 -0.2578  0.2937 -0.2390
   47BDD    C2618235  -0.268   4.282   6.017 -0.3425  0.0129  0.2159
   48TPM     C118236  -0.236   4.146   5.234  0.2007  0.0299 -0.2687
   48TPM     C218237  -0.163   4.131   5.120  0.2506 -0.0402 -0.2278
   48TPM     C318238  -0.029   4.182   5.129  0.2422 -0.0222 -0.2050
   48TPM     C418239   0.001   4.236   5.250  0.1859  0.0617 -0.2285
   48TPM     S118240  -0.139   4.227   5.363  0.1388  0.1249 -0.2817
   49BDTP    C118241   0.539   4.542   5.375 -0.2151  0.0031  0.0142
   49BDTP    C218242   0.484   4.524   5.505 -0.1439 -0.0261  0.0408
   49BDTP    C318243   0.363   4.460   5.527 -0.0743 -0.1354  0.1034
   49BDTP    C418244   0.294   4.409   5.416 -0.0747 -0.2198  0.1419
   49BDTP    C518245   0.349   4.426   5.286 -0.1458 -0.1906  0.1152
   49BDTP    C618246   0.470   4.491   5.264 -0.2155 -0.0815  0.0525
   49BDTP    C718247   0.167   4.339   5.414 -0.0098 -0.3387  0.2080
   49BDTP    C818248   0.126   4.303   5.290 -0.0286 -0.3994  0.2319
   49BDTP    S118249   0.241   4.353   5.159 -0.1311 -0.3144  0.1739
   49BDTP    C918250   0.666   4.612   5.377 -0.2799  0.1220 -0.0521
   49BDTP   C1018251   0.707   4.648   5.501 -0.2611  0.1825 -0.0759
   49BDTP    S218252   0.592   4.598   5.632 -0.1587  0.0976 -0.0181
   50FTM     S118253   0.422   4.349   5.784 -0.1056  0.2291  0.2803
   50FTM     C118254   0.295   4.357   5.911 -0.2746 -0.1138  0.1363
   50FTM     C218255   0.184   4.419   5.862 -0.2976 -0.1957  0.0842
   50FTM     C318256   0.192   4.463   5.726 -0.1878 -0.0019  0.1514
   50FTM     C418257   0.312   4.433   5.669 -0.0771  0.2366  0.2585
   50FTM     F118258   0.070   4.440   5.937 -0.4194 -0.4513 -0.0278
   50FTM     C518259   0.315   4.306   6.050 -0.0027 -0.5399  0.3049
   50FTM     C618260   0.448   4.326   6.120  0.2023  0.6953  0.3956
   50FTM     C718261   0.443   4.246   6.253  0.2545  0.3358 -0.0382
   50FTM     C818262   0.503   4.106   6.244 -0.2315  0.1183 -0.1471
   50FTM     C918263   0.483   4.004   6.347  0.1716  0.0522 -0.2863
   50FTM    C1018264   0.335   3.978   6.388 -0.3377 -0.0920  0.9595
   50FTM    C1118265   0.493   4.471   6.119 -0.2151  0.1032 -0.3959
   50FTM    C1218266   0.643   4.503   6.139 -0.4175 -0.2617 -0.4094
   51FTM     S118267   0.560   4.364   5.023  0.0225  0.2381  0.0110
   51FTM     C118268   0.596   4.469   4.882  0.1530  0.1950  0.0110
   51FTM     C218269   0.574   4.599   4.915 -0.0981  0.1867 -0.1159
   51FTM     C318270   0.530   4.624   5.049 -0.4000  0.2129 -0.2184
   51FTM     C418271   0.517   4.509   5.121 -0.3794  0.2420 -0.1683
   51FTM     F118272   0.593   4.704   4.825 -0.0695  0.1551 -0.1467
   51FTM     C518273   0.618   4.390   4.762  1.1364 -0.1977  1.5222
   51FTM     C618274   0.630   4.447   4.617  0.0472 -0.0956 -0.6009
   51FTM     C718275   0.693   4.349   4.515 -0.0151 -0.0852 -0.1242
   51FTM     C818276   0.830   4.290   4.537  0.1406  0.2806  0.0543
   51FTM     C918277   0.965   4.377   4.566  0.1950  0.6592  0.5153
   51FTM    C1018278   1.000   4.468   4.451  0.8415 -0.2640  0.5617
   51FTM    C1118279   0.525   4.536   4.549  0.2093 -0.2680  0.1131
   51FTM    C1218280   0.562   4.627   4.428 -0.0208 -0.2606  0.0769
   52TPM     C118281   0.825   4.720   5.555 -0.1607 -0.1839  0.2515
   52TPM     C218282   0.922   4.787   5.486 -0.1552 -0.2867  0.1606
   52TPM     C318283   1.020   4.850   5.570 -0.2473 -0.0329  0.0772
   52TPM     C418284   0.998   4.833   5.703 -0.3229  0.2637  0.1048
   52TPM     S118285   0.850   4.734   5.733 -0.2835  0.2448  0.2393
   53BDD     C118286   1.089   5.063   6.005  0.1058  0.1106  0.0546
   53BDD     C218287   1.206   5.001   5.970  0.0668  0.0505  0.0305
   53BDD     C318288   1.193   4.915   5.854 -0.0157  0.0092  0.0700
   53BDD     C418289   1.066   4.913   5.802 -0.0384  0.0385  0.1238
   53BDD     S118290   0.954   5.017   5.895  0.0418  0.1198  0.1286
   53BDD     C518291   1.333   5.019   6.042  0.1039  0.0288 -0.0298
   53BDD     C618292   1.306   4.839   5.798 -0.0691 -0.0579  0.0529
   53BDD     O118293   1.295   4.765   5.698 -0.1402 -0.0937  0.0870
   53BDD     O218294   1.344   5.093   6.143  0.1751  0.0645 -0.0639
   53BDD     C718295   1.434   4.856   5.871 -0.0318 -0.0796 -0.0075
   53BDD     C818296   1.447   4.942   5.987  0.0507 -0.0381 -0.0470
   53BDD     C918297   1.573   4.945   6.039  0.0734 -0.0675 -0.1007
   53BDD     S218298   1.685   4.840   5.946 -0.0069 -0.1488 -0.1055
   53BDD    C1018299   1.551   4.795   5.835 -0.0708 -0.1398 -0.0317
   53BDD    C1118300   1.591   4.688   5.735 -0.0484 -0.0768  0.6284
   53BDD    C1218301   1.660   4.710   5.599  0.1166 -0.6077 -0.2841
   53BDD    C1318302   1.668   4.580   5.511  0.3919  0.2335 -0.2644
   53BDD    C1418303   1.535   4.503   5.478  0.2801 -0.4137 -0.1220
   53BDD    C1518304   1.561   4.380   5.394  0.2150  0.0025  0.3398
   53BDD    C1618305   1.451   4.282   5.373 -0.0920  0.2623  0.4173
   53BDD    C1718306   1.793   4.791   5.601  0.0908 -0.4701 -0.4966
   53BDD    C1818307   1.916   4.731   5.659 -0.4582 -0.7212 -0.9519
   53BDD    C1918308   1.643   5.029   6.143 -0.9342  0.3001 -0.1753
   53BDD    C2018309   1.694   4.947   6.266 -0.2203  0.1484  0.7434
   53BDD    C2118310   1.768   5.039   6.363  0.5880  0.3445 -0.0855
   53BDD    C2218311   1.862   4.966   6.458  0.6037 -0.8595  0.0195
   53BDD    C2318312   1.998   4.935   6.394  0.3124  0.2567  0.3645
   53BDD    C2418313   2.102   4.863   6.476  0.4919 -0.3672 -0.6188
   53BDD    C2518314   1.593   4.844   6.336 -0.1622 -0.1867  0.5361
   53BDD    C2618315   1.465   4.891   6.411  0.1067 -0.2618 -0.2997
   54TPM     C118316   1.040   5.151   6.112  0.1417 -0.3294  0.1538
   54TPM     C218317   1.088   5.139   6.239  0.3600 -0.0639  0.0987
   54TPM     C318318   1.015   5.215   6.337  0.4946  0.0976  0.0741
   54TPM     C418319   0.911   5.286   6.284  0.3789 -0.0449  0.1105
   54TPM     S118320   0.897   5.261   6.106  0.0887 -0.3968  0.1792
   55BDTP    C118321   0.516   5.622   6.644 -0.1830 -0.0670  0.0083
   55BDTP    C218322   0.429   5.568   6.546 -0.1768 -0.1611  0.0535
   55BDTP    C318323   0.473   5.489   6.440 -0.1581 -0.1863  0.0801
   55BDTP    C418324   0.611   5.462   6.432 -0.1449 -0.1155  0.0616
   55BDTP    C518325   0.699   5.515   6.531 -0.1510 -0.0213  0.0166
   55BDTP    C618326   0.654   5.594   6.636 -0.1697  0.0039 -0.0103
   55BDTP    C718327   0.680   5.382   6.332 -0.1247 -0.1246  0.0828
   55BDTP    C818328   0.814   5.374   6.351 -0.1156 -0.0429  0.0561
   55BDTP    S118329   0.871   5.465   6.498 -0.1312  0.0572  0.0005
   55BDTP    C918330   0.447   5.701   6.744 -0.2031 -0.0578 -0.0128
   55BDTP   C1018331   0.313   5.709   6.725 -0.2122 -0.1397  0.0139
   55BDTP    S218332   0.256   5.618   6.578 -0.1966 -0.2396  0.0695
   56FTM     S118333   0.403   5.423   6.167 -0.3085  0.0163  0.0439
   56FTM     C118334   0.253   5.325   6.149 -0.3842  0.0937  0.2404
   56FTM     C218335   0.195   5.306   6.270 -0.1096 -0.0732  0.3476
   56FTM     C318336   0.262   5.365   6.382  0.1696 -0.2670  0.2851
   56FTM     C418337   0.375   5.431   6.345  0.1068 -0.2478  0.1248
   56FTM     F118338   0.078   5.234   6.287 -0.0948 -0.0607  0.5089
   56FTM     C518339   0.213   5.287   6.010 -0.2266 -0.0681  0.2623
   56FTM     C618340   0.118   5.179   5.948 -0.3549 -0.1506 -0.6093
   56FTM     C718341  -0.019   5.171   6.016 -0.2626 -0.1502  0.3008
   56FTM     C818342  -0.102   5.298   6.048 -0.1756 -0.1768 -0.6455
   56FTM     C918343  -0.239   5.266   6.102  0.4463  0.5507 -0.6863
   56FTM    C1018344  -0.299   5.368   6.194 -0.0711 -0.3095  0.0096
   56FTM    C1118345   0.131   5.202   5.797  0.1878  0.5637 -0.4218
   56FTM    C1218346   0.059   5.100   5.714 -0.5208 -0.6000  0.3812
   57FTM     S118347   0.869   5.775   6.666 -0.1708 -0.3012 -0.3435
   57FTM     C118348   0.965   5.761   6.817 -0.2095  0.2881 -0.2573
   57FTM     C218349   0.910   5.666   6.898 -0.1285  0.4764  0.0196
   57FTM     C318350   0.792   5.601   6.849 -0.0337  0.1807  0.1776
   57FTM     C418351   0.756   5.647   6.726 -0.0424 -0.2477  0.0168
   57FTM     F118352   0.963   5.633   7.022 -0.1354  0.9273  0.1460
   57FTM     C518353   1.100   5.833   6.825 -0.3470  0.2506 -0.0863
   57FTM     C618354   1.125   5.971   6.879 -0.3810 -0.5116  0.0638
   57FTM     C718355   1.275   5.999   6.881 -0.4213 -0.4544  0.1202
   57FTM     C818356   1.343   6.023   6.747 -0.2679  0.3457  0.1163
   57FTM     C918357   1.491   6.023   6.773 -0.0428 -0.1482 -0.2322
   57FTM    C1018358   1.563   6.097   6.659 -0.2458  0.3762 -0.1109
   57FTM    C1118359   1.054   6.004   7.008 -0.2934 -0.0012  0.3421
   57FTM    C1218360   1.015   6.144   7.046 -0.4603 -0.0029 -0.1311
   58TPM     C118361   0.219   5.772   6.818 -0.1314  0.4117 -0.4083
   58TPM     C218362   0.086   5.746   6.823 -0.1003  0.2764 -0.2453
   58TPM     C318363   0.017   5.818   6.927  0.0138 -0.0744  0.0762
   58TPM     C418364   0.098   5.898   7.001  0.0698 -0.2068  0.1585
   58TPM     S118365   0.269   5.889   6.945 -0.0180  0.1037 -0.1665
   59BDD     C118366  -0.140   6.115   7.232 -0.0052  0.2776 -0.0935
   59BDD     C218367  -0.023   6.101   7.302  0.0010  0.1801 -0.1234
   59BDD     C318368   0.079   6.027   7.230 -0.1328 -0.0401 -0.0879
   59BDD     C418369   0.039   5.986   7.106 -0.2389 -0.1073 -0.0315
   59BDD     S118370  -0.130   6.037   7.071 -0.1786  0.1005 -0.0187
   59BDD     C518371  -0.001   6.155   7.438  0.1297  0.2859 -0.1856
   59BDD     C618372   0.212   5.999   7.287 -0.1504 -0.1758 -0.1111
   59BDD     O118373   0.300   5.935   7.224 -0.2658 -0.3657 -0.0805
   59BDD     O218374  -0.089   6.218   7.500  0.2451  0.4756 -0.2162
   59BDD     C718375   0.234   6.053   7.422 -0.0215 -0.0701 -0.1733
   59BDD     C818376   0.132   6.127   7.495  0.1123  0.1500 -0.2087
   59BDD     C918377   0.173   6.168   7.619  0.2184  0.2172 -0.2651
   59BDD     S218378   0.341   6.117   7.654  0.1580  0.0093 -0.2777
   59BDD    C1018379   0.351   6.039   7.493 -0.0153 -0.1677 -0.2030
   59BDD    C1118380   0.485   5.978   7.465 -0.2045  0.1996  0.3167
   59BDD    C1218381   0.605   6.077   7.442 -0.3136  0.4887  0.1910
   59BDD    C1318382   0.611   6.174   7.323  0.1302  0.1254  0.1884
   59BDD    C1418383   0.596   6.123   7.179 -0.6812  0.6211  0.1351
   59BDD    C1518384   0.675   5.996   7.148  0.1668  0.9454  0.8717
   59BDD    C1618385   0.664   5.948   7.001  0.4013  0.0833 -0.3780
   59BDD    C1718386   0.667   6.145   7.566  0.7897  0.0415  0.2531
   59BDD    C1818387   0.703   6.050   7.682 -0.2203 -0.1728 -0.0177
   59BDD    C1918388   0.105   6.232   7.742  0.2942 -0.4781  0.3626
   59BDD    C2018389   0.154   6.377   7.778  0.3942  0.2235 -0.4145
   59BDD    C2118390   0.082   6.443   7.897  0.1611  0.4202  0.0402
   59BDD    C2218391   0.057   6.380   8.033 -0.3915  0.1846  0.1048
   59BDD    C2318392   0.192   6.340   8.102 -0.5462 -0.0441  0.4952
   59BDD    C2418393   0.157   6.261   8.229 -0.1450 -0.3478  0.3923
   59BDD    C2518394   0.161   6.481   7.660  0.5755 -0.0359 -0.5740
   59BDD    C2618395   0.037   6.524   7.591  0.1687 -0.1314  0.2671
   60TPM     C118396  -0.272   6.175   7.257  0.2986  0.0184  0.2894
   60TPM     C218397  -0.294   6.282   7.338  0.1211 -0.1915  0.5188
   60TPM     C318398  -0.426   6.338   7.326  0.0911 -0.2666  0.5012
   60TPM     C418399  -0.504   6.274   7.235  0.2456 -0.1137  0.2583
   60TPM     S118400  -0.417   6.137   7.157  0.4430  0.1387  0.0311
    1BDTP    C118401   1.596   6.849   3.781 -0.0690 -0.1152  0.0324
    1BDTP    C218402   1.739   6.842   3.782 -0.0705 -0.1431  0.0425
    1BDTP    C318403   1.818   6.912   3.692 -0.0483 -0.1165  0.0826
    1BDTP    C418404   1.754   6.994   3.597 -0.0236 -0.0598  0.1143
    1BDTP    C518405   1.611   7.001   3.596 -0.0222 -0.0317  0.1043
    1BDTP    C618406   1.532   6.931   3.686 -0.0443 -0.0584  0.0642
    1BDTP    C718407   1.815   7.076   3.494  0.0019 -0.0235  0.1581
    1BDTP    C818408   1.726   7.143   3.417  0.0223  0.0296  0.1811
    1BDTP    S118409   1.553   7.112   3.464  0.0118  0.0412  0.1505
    1BDTP    C918410   1.536   6.767   3.884 -0.0946 -0.1512 -0.0114
    1BDTP   C1018411   1.624   6.700   3.961 -0.1149 -0.2043 -0.0344
    1BDTP    S218412   1.797   6.731   3.914 -0.1045 -0.2159 -0.0038
    2FTM     S118413   2.083   6.903   3.582 -0.0966 -0.0084 -0.1659
    2FTM     C118414   2.217   6.917   3.701  0.1241  0.2959 -0.4455
    2FTM     C218415   2.166   6.927   3.827  0.3536  0.6644 -0.3803
    2FTM     C318416   2.023   6.925   3.838  0.3713  0.7310 -0.1155
    2FTM     C418417   1.963   6.913   3.716  0.1481  0.4029  0.0269
    2FTM     F118418   2.246   6.940   3.940  0.5612  0.9632 -0.5568
    2FTM     C518419   2.360   6.936   3.656  0.6586 -0.1565  0.0975
    2FTM     C618420   2.401   7.052   3.556 -0.6846  0.7076  0.4203
    2FTM     C718421   2.362   7.197   3.584  0.5341 -0.1328  0.1293
    2FTM     C818422   2.221   7.239   3.547 -0.3082 -0.0326 -0.1965
    2FTM     C918423   2.172   7.224   3.404  0.0051 -0.1244  0.3732
    2FTM    C1018424   2.239   7.319   3.312 -0.1731 -0.2724 -0.2547
    2FTM    C1118425   2.546   7.015   3.518 -0.2149 -0.5193  0.0781
    2FTM    C1218426   2.606   7.110   3.410  0.2370  0.8879 -0.5929
    3FTM     S118427   1.266   6.821   3.689  0.3757 -0.0672  0.0828
    3FTM     C118428   1.133   6.943   3.693  0.0341 -0.4183 -0.3445
    3FTM     C218429   1.186   7.069   3.689 -0.2816 -0.2745 -0.0622
    3FTM     C318430   1.329   7.077   3.684 -0.2771  0.1081  0.4902
    3FTM     C418431   1.388   6.954   3.683  0.0527  0.2625  0.6357
    3FTM     F118432   1.108   7.183   3.691 -0.5933 -0.4809 -0.2872
    3FTM     C518433   0.986   6.900   3.690 -0.5675  0.1380 -0.2719
    3FTM     C618434   0.946   6.752   3.654  0.2515 -0.0115  0.4560
    3FTM     C718435   0.909   6.660   3.772  0.8638  0.1730  0.1376
    3FTM     C818436   1.018   6.625   3.866 -0.7331  0.3881 -0.1639
    3FTM     C918437   0.967   6.573   4.002  0.2797 -0.2195  0.1138
    3FTM    C1018438   1.070   6.556   4.108 -0.5265  0.0714  0.2088
    3FTM    C1118439   0.991   6.694   3.519 -0.2871  0.4902 -0.1333
    3FTM    C1218440   0.890   6.629   3.425  0.0041  0.6316 -0.0692
    4TPM     C118441   1.597   6.608   4.071  0.2604 -0.6241  0.1649
    4TPM     C218442   1.684   6.508   4.102 -0.0122 -0.7823  0.4302
    4TPM     C318443   1.638   6.423   4.208 -0.2114 -0.3277  0.7163
    4TPM     C418444   1.516   6.458   4.258 -0.0908  0.1770  0.6689
    4TPM     S118445   1.449   6.602   4.174  0.2867  0.1172  0.2563
    5BDD     C118446   1.240   6.214   4.400  0.0087  0.0837 -0.0519
    5BDD     C218447   1.346   6.202   4.486 -0.0106  0.0799 -0.0285
    5BDD     C318448   1.460   6.283   4.448 -0.0652  0.2162  0.0992
    5BDD     C418449   1.439   6.357   4.334 -0.0868  0.3221  0.1713
    5BDD     S118450   1.276   6.328   4.267 -0.0403  0.2582  0.0842
    5BDD     C518451   1.347   6.114   4.605  0.0206 -0.0492 -0.1227
    5BDD     C618452   1.586   6.285   4.526 -0.0939  0.2366  0.1451
    5BDD     O118453   1.684   6.356   4.493 -0.1410  0.3543  0.2550
    5BDD     O218454   1.249   6.044   4.638  0.0677 -0.1669 -0.2327
    5BDD     C718455   1.587   6.198   4.645 -0.0628  0.1078  0.0509
    5BDD     C818456   1.473   6.117   4.683 -0.0082 -0.0286 -0.0768
    5BDD     C918457   1.494   6.043   4.796  0.0134 -0.1346 -0.1488
    5BDD     S218458   1.657   6.071   4.864 -0.0331 -0.0707 -0.0616
    5BDD    C1018459   1.693   6.186   4.730 -0.0820  0.1038  0.0744
    5BDD    C1118460   1.830   6.246   4.741  0.5617  0.1645 -0.2313
    5BDD    C1218461   1.841   6.396   4.774 -0.1591 -0.0616  0.3426
    5BDD    C1318462   1.747   6.445   4.895 -0.8952  0.0328  0.2186
    5BDD    C1418463   1.794   6.411   5.037 -0.6405  0.1878 -0.4180
    5BDD    C1518464   1.717   6.496   5.138 -0.4984  0.0748 -0.4808
    5BDD    C1618465   1.729   6.452   5.288  0.0942 -0.0963  0.4579
    5BDD    C1718466   1.977   6.465   4.766 -0.1348 -0.9395  0.2322
    5BDD    C1818467   2.035   6.475   4.628  0.2224  0.5899  0.2245
    5BDD    C1918468   1.410   5.943   4.866 -0.0446 -0.0890  0.0651
    5BDD    C2018469   1.320   5.989   4.980  0.3818  0.4108  0.3016
    5BDD    C2118470   1.394   6.058   5.098  0.2804 -0.0215  0.6079
    5BDD    C2218471   1.478   5.978   5.194 -0.7580  0.3576 -0.1046
    5BDD    C2318472   1.533   6.068   5.310  0.0031  0.9594 -0.3467
    5BDD    C2418473   1.638   5.979   5.385  0.3135  0.4598 -0.2510
    5BDD    C2518474   1.206   5.884   5.011 -0.1361  0.3677  0.3510
    5BDD    C2618475   1.109   5.853   4.893  0.4140 -0.5871  0.1502
    6TPM     C118476   1.096   6.168   4.396 -0.3204  0.2773  0.3778
    6TPM     C218477   1.022   6.188   4.283 -0.5054  0.5221  0.5414
    6TPM     C318478   0.887   6.138   4.294 -0.4484  0.3796  0.6098
    6TPM     C418479   0.859   6.081   4.414 -0.2199  0.0259  0.4981
    6TPM     S118480   1.001   6.085   4.524 -0.0577 -0.1559  0.2964
    7BDTP    C118481   0.306   5.853   4.611  0.0529 -0.1222  0.2186
    7BDTP    C218482   0.391   5.829   4.723  0.0839 -0.0110  0.2189
    7BDTP    C318483   0.526   5.862   4.722  0.0584  0.0957  0.1916
    7BDTP    C418484   0.580   5.921   4.606 -0.0006  0.0930  0.1630
    7BDTP    C518485   0.494   5.944   4.494 -0.0316 -0.0181  0.1627
    7BDTP    C618486   0.359   5.912   4.495 -0.0061 -0.1249  0.1898
    7BDTP    C718487   0.716   5.963   4.582 -0.0362  0.1918  0.1318
    7BDTP    C818488   0.737   6.016   4.459 -0.0919  0.1606  0.1086
    7BDTP    S118489   0.587   6.021   4.357 -0.1069  0.0015  0.1228
    7BDTP    C918490   0.169   5.811   4.635  0.0885 -0.2210  0.2496
    7BDTP   C1018491   0.148   5.758   4.757  0.1442 -0.1898  0.2729
    7BDTP    S218492   0.298   5.753   4.860  0.1592 -0.0308  0.2587
    8FTM     S118493   0.710   5.940   4.937 -0.3346  0.1921  0.0551
    8FTM     C118494   0.752   5.811   5.056  0.1903  0.3950  0.0941
    8FTM     C218495   0.689   5.695   5.024  0.5413  0.1663  0.2161
    8FTM     C318496   0.606   5.699   4.907  0.4262 -0.1723  0.2847
    8FTM     C418497   0.606   5.822   4.848 -0.0278 -0.2041  0.2130
    8FTM     F118498   0.702   5.579   5.098  0.9876  0.2501  0.2726
    8FTM     C518499   0.835   5.857   5.175 -1.0251 -0.1279 -0.0122
    8FTM     C618500   0.872   5.782   5.306 -0.6921  0.5549  0.6714
    8FTM     C718501   0.961   5.655   5.291 -0.7047 -0.1984 -0.5837
    8FTM     C818502   1.112   5.683   5.301 -0.1545  0.5042  0.5731
    8FTM     C918503   1.203   5.562   5.328 -0.0290 -0.0705  0.3414
    8FTM    C1018504   1.351   5.593   5.314 -0.2395 -0.1882  0.1656
    8FTM    C1118505   0.769   5.779   5.415  0.0203  0.4742  0.6630
    8FTM    C1218506   0.673   5.659   5.415  0.3660  0.6184 -0.4311
    9FTM     S118507   0.329   5.870   4.212  0.0728 -0.0234  0.0596
    9FTM     C118508   0.180   5.936   4.136  0.2027  0.2105  0.0068
    9FTM     C218509   0.103   5.998   4.229  0.1847  0.1823  0.0103
    9FTM     C318510   0.154   5.997   4.363  0.0716 -0.0178  0.0533
    9FTM     C418511   0.274   5.933   4.373  0.0006 -0.1473  0.0836
    9FTM     F118512  -0.018   6.058   4.199  0.2697  0.3362 -0.0253
    9FTM     C518513   0.155   5.895   3.996 -0.1456  0.5083  0.3176
    9FTM     C618514   0.131   5.743   3.961 -0.7195 -1.1682 -0.4768
    9FTM     C718515   0.101   5.714   3.809  0.4952 -0.0079  0.2364
    9FTM     C818516   0.201   5.765   3.703  0.4214  0.1165 -0.1193
    9FTM     C918517   0.144   5.788   3.559  0.3514 -0.6003 -0.0969
    9FTM    C1018518   0.029   5.885   3.545 -0.4582 -0.5020 -0.5891
    9FTM    C1118519   0.061   5.666   4.074  0.2694  0.1129  0.2412
    9FTM    C1218520   0.064   5.509   4.056  0.1407 -0.0681  0.4102
   10TPM     C118521   0.022   5.726   4.821 -0.0572 -0.2151  0.4077
   10TPM     C218522  -0.013   5.760   4.949 -0.2888 -0.1307  0.3225
   10TPM     C318523  -0.146   5.717   4.986 -0.4554  0.1177  0.0266
   10TPM     C418524  -0.211   5.650   4.886 -0.3505  0.2224 -0.1138
   10TPM     S118525  -0.110   5.637   4.738 -0.0310  0.0141  0.1184
   11BDD     C118526  -0.561   5.504   4.788  0.3215 -0.2833  0.0133
   11BDD     C218527  -0.558   5.490   4.924  0.2394 -0.2459  0.0193
   11BDD     C318528  -0.437   5.544   4.984  0.1731 -0.1692  0.0851
   11BDD     C418529  -0.350   5.597   4.893  0.2061 -0.1489  0.1282
   11BDD     S118530  -0.413   5.584   4.726  0.3219 -0.2249  0.0895
   11BDD     C518531  -0.665   5.428   5.004  0.2182 -0.2794 -0.0352
   11BDD     C618532  -0.412   5.539   5.130  0.0794 -0.1185  0.1028
   11BDD     O118533  -0.307   5.585   5.181  0.0224 -0.0521  0.1595
   11BDD     O218534  -0.770   5.382   4.952  0.2751 -0.3456 -0.0920
   11BDD     C718535  -0.519   5.477   5.209  0.0587 -0.1520  0.0482
   11BDD     C818536  -0.641   5.424   5.149  0.1247 -0.2288 -0.0176
   11BDD     C918537  -0.728   5.371   5.240  0.0916 -0.2488 -0.0609
   11BDD     S218538  -0.664   5.383   5.408 -0.0244 -0.1728 -0.0222
   11BDD    C1018539  -0.516   5.464   5.345 -0.0241 -0.1146  0.0541
   11BDD    C1118540  -0.413   5.511   5.454  0.2267  0.3260  0.1870
   11BDD    C1218541  -0.474   5.584   5.573 -1.5276 -0.1102  0.0261
   11BDD    C1318542  -0.587   5.687   5.566  0.6108  0.5205  0.0537
   11BDD    C1418543  -0.561   5.813   5.485  0.0098  0.0224 -0.8212
   11BDD    C1518544  -0.675   5.917   5.490  0.5020 -0.1856  0.5072
   11BDD    C1618545  -0.657   6.029   5.378 -0.2201  0.3908 -0.6878
   11BDD    C1718546  -0.353   5.608   5.667 -0.3070  0.0345  0.4563
   11BDD    C1818547  -0.365   5.658   5.808  0.6239 -0.0795 -0.3087
   11BDD    C1918548  -0.856   5.292   5.229 -0.0765 -0.3676 -0.4028
   11BDD    C2018549  -0.853   5.140   5.247 -0.3342  0.3450 -0.7849
   11BDD    C2118550  -0.991   5.079   5.256 -0.4950 -0.1618  0.0351
   11BDD    C2218551  -1.005   4.935   5.309 -0.6609  0.8994  0.4433
   11BDD    C2318552  -0.952   4.911   5.450 -0.3137 -0.5113  0.5149
   11BDD    C2418553  -0.992   4.779   5.502  0.1574 -0.5757 -0.5000
   11BDD    C2518554  -0.753   5.057   5.164 -0.3030 -0.0711  0.1763
   11BDD    C2618555  -0.773   5.042   5.012  0.0099  0.4517 -0.3770
   12TPM     C118556  -0.648   5.466   4.675 -0.0438  0.5851  0.0771
   12TPM     C218557  -0.666   5.548   4.568 -0.0491  0.3873 -0.0743
   12TPM     C318558  -0.768   5.503   4.477  0.1359  0.0741 -0.1310
   12TPM     C418559  -0.828   5.387   4.515  0.2829  0.0334 -0.0228
   12TPM     S118560  -0.760   5.324   4.670  0.1974  0.3901  0.1606
   13BDTP    C118561  -1.300   5.127   4.201 -0.0541  0.1554 -0.1180
   13BDTP    C218562  -1.306   5.059   4.326  0.0346  0.0894 -0.1491
   13BDTP    C318563  -1.218   5.087   4.430  0.0689  0.0784 -0.1751
   13BDTP    C418564  -1.120   5.186   4.409  0.0134  0.1347 -0.1702
   13BDTP    C518565  -1.115   5.253   4.284 -0.0753  0.2006 -0.1392
   13BDTP    C618566  -1.202   5.225   4.180 -0.1098  0.2119 -0.1130
   13BDTP    C718567  -1.019   5.232   4.502  0.0340  0.1356 -0.1937
   13BDTP    C818568  -0.938   5.329   4.453 -0.0339  0.1982 -0.1816
   13BDTP    S118569  -0.980   5.376   4.282 -0.1338  0.2650 -0.1391
   13BDTP    C918570  -1.402   5.081   4.108 -0.0751  0.1546 -0.0947
   13BDTP   C1018571  -1.482   4.983   4.158 -0.0072  0.0918 -0.1066
   13BDTP    S218572  -1.441   4.937   4.328  0.0926  0.0254 -0.1491
   14FTM     S118573  -1.097   4.981   4.667  0.0358 -0.1572  0.0979
   14FTM     C118574  -1.208   4.921   4.795 -0.0591 -0.0298  0.0760
   14FTM     C218575  -1.338   4.937   4.756 -0.0346  0.1757  0.0765
   14FTM     C318576  -1.357   4.996   4.627  0.0575  0.2450  0.0938
   14FTM     C418577  -1.239   5.026   4.565  0.1048  0.0874  0.1067
   14FTM     F118578  -1.446   4.899   4.834 -0.0937  0.3134  0.0618
   14FTM     C518579  -1.150   4.895   4.933 -0.0797 -0.0775  0.3133
   14FTM     C618580  -1.086   4.758   4.967  0.9395  0.0906  0.0249
   14FTM     C718581  -1.194   4.641   4.947 -0.0017  0.2720 -0.1811
   14FTM     C818582  -1.308   4.629   5.054 -0.2396  0.2903 -0.6488
   14FTM     C918583  -1.255   4.639   5.202  0.1148 -0.4293  0.5920
   14FTM    C1018584  -1.173   4.525   5.245  0.1738  0.6702  0.4185
   14FTM    C1118585  -0.960   4.729   4.892  0.3717 -0.4287 -0.1766
   14FTM    C1218586  -0.886   4.598   4.912  0.6100 -0.1410 -0.6808
   15FTM     S118587  -1.210   5.482   4.054 -0.1656  0.0618  0.0839
   15FTM     C118588  -1.180   5.481   3.876  0.0540  0.2843  0.1180
   15FTM     C218589  -1.167   5.353   3.832 -0.1554  0.3252 -0.0681
   15FTM     C318590  -1.178   5.250   3.932 -0.4916  0.1889 -0.2445
   15FTM     C418591  -1.201   5.301   4.056 -0.5413  0.0391 -0.1917
   15FTM     F118592  -1.143   5.321   3.699 -0.0551  0.4883 -0.0899
   15FTM     C518593  -1.164   5.600   3.788  0.0320 -0.4350  0.0658
   15FTM     C618594  -1.016   5.659   3.763 -0.3312  0.6002 -0.7300
   15FTM     C718595  -1.008   5.766   3.659  0.1834 -0.5910  0.1707
   15FTM     C818596  -1.051   5.721   3.516  0.1796  0.5487  0.4446
   15FTM     C918597  -1.054   5.833   3.411  0.5693  0.2190  0.0873
   15FTM    C1018598  -0.920   5.897   3.372  0.4571  0.5463 -0.6932
   15FTM    C1118599  -0.913   5.673   3.878 -0.7465  1.2600 -0.2978
   15FTM    C1218600  -0.921   5.788   3.978  0.0006 -0.2602  0.0301
   16TPM     C118601  -1.594   4.915   4.088  0.1352 -0.1266  0.0059
   16TPM     C218602  -1.619   4.916   3.954  0.2406 -0.3158 -0.0147
   16TPM     C318603  -1.726   4.828   3.914  0.2664 -0.3661  0.0261
   16TPM     C418604  -1.783   4.761   4.017  0.1813 -0.2154  0.0780
   16TPM     S118605  -1.706   4.803   4.175  0.0606  0.0035  0.0793
   17BDD     C118606  -2.001   4.447   4.076 -0.2839 -0.0132  0.0439
   17BDD     C218607  -2.045   4.495   3.956 -0.2328 -0.0949 -0.0081
   17BDD     C318608  -1.976   4.615   3.913 -0.0710 -0.2415 -0.1618
   17BDD     C418609  -1.880   4.657   4.001 -0.0013 -0.2696 -0.2246
   17BDD     S118610  -1.869   4.548   4.144 -0.1332 -0.1143 -0.0960
   17BDD     C518611  -2.152   4.433   3.877 -0.3307 -0.0414  0.0815
   17BDD     C618612  -2.007   4.685   3.787  0.0085 -0.3486 -0.2404
   17BDD     O118613  -1.948   4.788   3.750  0.1478 -0.4750 -0.3729
   17BDD     O218614  -2.212   4.329   3.913 -0.4702  0.0850  0.2139
   17BDD     C718615  -2.115   4.622   3.707 -0.0896 -0.2949 -0.1510
   17BDD     C818616  -2.184   4.502   3.750 -0.2514 -0.1484  0.0027
   17BDD     C918617  -2.280   4.460   3.662 -0.3214 -0.1205  0.0655
   17BDD     S218618  -2.291   4.569   3.520 -0.1894 -0.2758 -0.0633
   17BDD    C1018619  -2.159   4.671   3.587 -0.0386 -0.3767 -0.2030
   17BDD    C1118620  -2.129   4.793   3.499  0.1261 -0.4510 -0.4543
   17BDD    C1218621  -2.216   4.919   3.513 -0.7311  0.4426  0.2460
   17BDD    C1318622  -2.243   4.981   3.649  0.1999  0.1367  0.2000
   17BDD    C1418623  -2.136   5.057   3.721 -0.1546  0.6351 -0.1535
   17BDD    C1518624  -2.176   5.143   3.838 -0.1932  0.6843  0.2674
   17BDD    C1618625  -2.071   5.235   3.900  0.5189 -0.9961  0.6202
   17BDD    C1718626  -2.179   5.006   3.392 -0.4942  0.3620  0.1398
   17BDD    C1818627  -2.253   5.139   3.364  0.9103 -0.7437  0.0006
   17BDD    C1918628  -2.338   4.328   3.634  0.2563  0.7417 -0.2596
   17BDD    C2018629  -2.474   4.299   3.697 -0.3526  0.4756 -0.1509
   17BDD    C2118630  -2.505   4.147   3.689 -0.3279 -0.1373 -0.0421
   17BDD    C2218631  -2.550   4.082   3.558  0.3127  0.5066  0.5518
   17BDD    C2318632  -2.594   3.937   3.583  0.3928 -0.0101  0.6229
   17BDD    C2418633  -2.641   3.847   3.469 -0.3494 -0.3750  0.5142
   17BDD    C2518634  -2.576   4.405   3.671 -0.5740 -0.2627 -0.9582
   17BDD    C2618635  -2.722   4.393   3.727 -0.3614  0.8129 -0.0613
   18TPM     C118636  -2.040   4.340   4.170  0.1722 -0.2362 -0.0959
   18TPM     C218637  -2.090   4.368   4.294  0.4131 -0.2460  0.0058
   18TPM     C318638  -2.140   4.252   4.364  0.6274 -0.2646  0.1307
   18TPM     C418639  -2.128   4.136   4.293  0.5496 -0.2688  0.1241
   18TPM     S118640  -2.051   4.164   4.132  0.1973 -0.2496 -0.0418
   19BDTP    C118641  -2.176   3.544   4.515  0.4536  0.0743 -0.0019
   19BDTP    C218642  -2.118   3.526   4.387  0.3099  0.0831 -0.0690
   19BDTP    C318643  -2.090   3.631   4.301  0.1378  0.0815 -0.1265
   19BDTP    C418644  -2.122   3.761   4.343  0.1053  0.0706 -0.1174
   19BDTP    C518645  -2.181   3.780   4.472  0.2490  0.0618 -0.0503
   19BDTP    C618646  -2.208   3.674   4.558  0.4214  0.0635  0.0072
   19BDTP    C718647  -2.103   3.886   4.272 -0.0618  0.0667 -0.1692
   19BDTP    C818648  -2.144   3.996   4.339 -0.0507  0.0557 -0.1445
   19BDTP    S118649  -2.213   3.957   4.503  0.1731  0.0485 -0.0521
   19BDTP    C918650  -2.195   3.420   4.587  0.6210  0.0781  0.0498
   19BDTP   C1018651  -2.154   3.310   4.519  0.6098  0.0892  0.0250
   19BDTP    S218652  -2.086   3.349   4.355  0.3860  0.0964 -0.0673
   20FTM     S118653  -2.083   3.488   4.052  0.2532 -0.0177  0.2004
   20FTM     C118654  -1.954   3.535   3.935  0.2033  0.2605  0.2562
   20FTM     C218655  -1.877   3.634   3.988  0.0380  0.3471  0.3356
   20FTM     C318656  -1.913   3.678   4.120 -0.0577  0.2059  0.3574
   20FTM     C418657  -2.021   3.611   4.169  0.0373  0.0046  0.2926
   20FTM     F118658  -1.770   3.691   3.921 -0.0364  0.5595  0.3933
   20FTM     C518659  -1.951   3.470   3.797  0.4422 -0.3790 -0.9858
   20FTM     C618660  -2.005   3.319   3.781 -0.1944 -0.4022 -0.0598
   20FTM     C718661  -2.153   3.287   3.782  0.0449  0.3691  0.1639
   20FTM     C818662  -2.235   3.337   3.669 -0.2449 -0.2515  0.3967
   20FTM     C918663  -2.200   3.300   3.522  0.0019 -0.1131  0.1831
   20FTM    C1018664  -2.233   3.162   3.490  0.4426  0.7840  0.3080
   20FTM    C1118665  -1.935   3.214   3.862  0.1216 -0.1835 -0.8466
   20FTM    C1218666  -1.782   3.208   3.869  0.0547  0.1963 -0.1682
   21FTM     S118667  -2.453   3.716   4.703 -0.1657  0.0220  0.1042
   21FTM     C118668  -2.437   3.717   4.882 -0.0584  0.2199  0.0943
   21FTM     C218669  -2.307   3.702   4.917 -0.0031  0.5301  0.0303
   21FTM     C318670  -2.213   3.689   4.809 -0.0402  0.6304 -0.0141
   21FTM     C418671  -2.274   3.694   4.688 -0.1265  0.3891  0.0170
   21FTM     F118672  -2.264   3.699   5.049  0.0840  0.7417  0.0080
   21FTM     C518673  -2.556   3.745   4.971 -0.6831  0.0878 -0.5378
   21FTM     C618674  -2.630   3.874   4.948 -0.1721  0.2960  0.6843
   21FTM     C718675  -2.546   4.001   4.916  0.2449  0.0717 -0.2552
   21FTM     C818676  -2.460   4.055   5.032 -0.1150  0.9639  0.1220
   21FTM     C918677  -2.378   4.177   4.998  0.0350 -0.8599  1.0395
   21FTM    C1018678  -2.277   4.201   5.116  0.1541  0.3847 -0.1994
   21FTM    C1118679  -2.751   3.887   5.033 -0.7933  0.9530  0.2377
   21FTM    C1218680  -2.861   3.984   4.993 -0.4746  0.1652  0.5096
   22TPM     C118681  -2.153   3.169   4.565  0.0277 -0.4009  0.1296
   22TPM     C218682  -2.053   3.078   4.552  0.0123 -0.4545  0.3800
   22TPM     C318683  -2.078   2.955   4.622 -0.0836 -0.3201  0.5821
   22TPM     C418684  -2.196   2.953   4.689 -0.1413 -0.1640  0.4858
   22TPM     S118685  -2.287   3.107   4.668 -0.0784 -0.1746  0.1295
   23BDD     C118686  -2.228   2.624   4.907  0.0110 -0.0342  0.0796
   23BDD     C218687  -2.341   2.629   4.830  0.0228  0.0057  0.0647
   23BDD     C318688  -2.348   2.747   4.745  0.0601  0.0241  0.0873
   23BDD     C418689  -2.241   2.830   4.759  0.0762 -0.0019  0.1191
   23BDD     S118690  -2.123   2.767   4.879  0.0458 -0.0513  0.1228
   23BDD     C518691  -2.447   2.526   4.831  0.0002  0.0281  0.0292
   23BDD     C618692  -2.461   2.773   4.654  0.0786  0.0668  0.0767
   23BDD     O118693  -2.467   2.874   4.581  0.1106  0.0827  0.0962
   23BDD     O218694  -2.441   2.424   4.904 -0.0318  0.0122  0.0097
   23BDD     C718695  -2.567   2.669   4.655  0.0560  0.0893  0.0411
   23BDD     C818696  -2.560   2.551   4.740  0.0187  0.0709  0.0185
   23BDD     C918697  -2.667   2.468   4.726  0.0025  0.0968 -0.0134
   23BDD     S218698  -2.785   2.532   4.606  0.0331  0.1462 -0.0171
   23BDD    C1018699  -2.680   2.674   4.578  0.0677  0.1290  0.0262
   23BDD    C1118700  -2.725   2.758   4.453  0.1601 -0.5364  0.0958
   23BDD    C1218701  -2.685   2.692   4.320  0.0256  0.2908  0.1584
   23BDD    C1318702  -2.536   2.648   4.307  0.0678  0.4579  0.2272
   23BDD    C1418703  -2.501   2.523   4.219  0.4141  0.1036  0.6190
   23BDD    C1518704  -2.567   2.399   4.277  0.5912  0.6364  0.4402
   23BDD    C1618705  -2.513   2.266   4.215  0.0634  0.6242 -0.1262
   23BDD    C1718706  -2.744   2.751   4.188 -0.5104 -0.0027 -0.9825
   23BDD    C1818707  -2.742   2.905   4.170 -0.2115 -0.1714 -0.6685
   23BDD    C1918708  -2.692   2.332   4.785 -0.6250 -0.4342  0.3906
   23BDD    C2018709  -2.817   2.319   4.871 -0.2128 -0.2700  0.1468
   23BDD    C2118710  -2.956   2.336   4.804 -0.2605  0.5350  0.1083
   23BDD    C2218711  -3.080   2.325   4.896  0.3227 -0.0786  0.0907
   23BDD    C2318712  -3.088   2.419   5.015  0.2220  0.4284 -0.2250
   23BDD    C2418713  -3.204   2.401   5.115 -0.1057 -0.3840  0.5741
   23BDD    C2518714  -2.798   2.217   4.984  0.3881 -0.2497  0.6634
   23BDD    C2618715  -2.678   2.228   5.078 -0.1097 -0.6890  0.0774
   24TPM     C118716  -2.161   2.539   5.007 -0.1323  0.0762 -0.2045
   24TPM     C218717  -2.034   2.564   5.047  0.0217 -0.2558 -0.4753
   24TPM     C318718  -1.980   2.464   5.136 -0.0005 -0.4631 -0.6924
   24TPM     C418719  -2.067   2.363   5.163 -0.1716 -0.2893 -0.5873
   24TPM     S118720  -2.224   2.386   5.078 -0.3191  0.1532 -0.2031
   25BDTP    C118721  -1.946   1.863   5.521 -0.2003  0.0535 -0.0113
   25BDTP    C218722  -2.083   1.844   5.487 -0.1905 -0.0050 -0.0186
   25BDTP    C318723  -2.153   1.933   5.408 -0.2195 -0.0436 -0.0361
   25BDTP    C418724  -2.086   2.046   5.359 -0.2604 -0.0237 -0.0467
   25BDTP    C518725  -1.948   2.065   5.393 -0.2702  0.0347 -0.0392
   25BDTP    C618726  -1.878   1.976   5.472 -0.2410  0.0734 -0.0218
   25BDTP    C718727  -2.138   2.152   5.275 -0.2957 -0.0556 -0.0651
   25BDTP    C818728  -2.047   2.249   5.244 -0.3310 -0.0243 -0.0716
   25BDTP    S118729  -1.884   2.219   5.318 -0.3246  0.0500 -0.0557
   25BDTP    C918730  -1.894   1.757   5.605 -0.1649  0.0854  0.0072
   25BDTP   C1018731  -1.984   1.661   5.636 -0.1295  0.0542  0.0138
   25BDTP    S218732  -2.148   1.691   5.562 -0.1358 -0.0201 -0.0023
   26FTM     S118733  -2.366   1.750   5.328 -0.0894  0.1159  0.1828
   26FTM     C118734  -2.530   1.824   5.325 -0.0721  0.1420 -0.3044
   26FTM     C218735  -2.523   1.955   5.361 -0.1034  0.2548 -0.7029
   26FTM     C318736  -2.392   2.005   5.392 -0.1419  0.3261 -0.6549
   26FTM     C418737  -2.296   1.909   5.380 -0.1398  0.2659 -0.2048
   26FTM     F118738  -2.634   2.038   5.368 -0.0989  0.3002 -1.1348
   26FTM     C518739  -2.647   1.746   5.291  0.4416  0.6955  0.2477
   26FTM     C618740  -2.692   1.709   5.146  0.4177 -0.5452 -0.4284
   26FTM     C718741  -2.763   1.819   5.059  0.8343  0.1198 -0.8176
   26FTM     C818742  -2.900   1.844   5.114  0.2243 -0.5855  0.0759
   26FTM     C918743  -2.983   1.917   5.008 -0.3376  0.4721  0.0478
   26FTM    C1018744  -3.123   1.938   5.058  0.1032  0.4236  0.6228
   26FTM    C1118745  -2.592   1.611   5.084  0.0318 -0.1064 -0.3222
   26FTM    C1218746  -2.627   1.547   4.953  0.8543  0.5355  0.0188
   27FTM     S118747  -1.610   1.874   5.459  0.0654  0.0977  0.0041
   27FTM     C118748  -1.480   1.969   5.539  0.2016  0.1589 -0.2872
   27FTM     C218749  -1.533   2.079   5.599  0.3140  0.2475 -0.3488
   27FTM     C318750  -1.675   2.096   5.587  0.3017  0.2726 -0.1774
   27FTM     C418751  -1.732   1.995   5.515  0.1756  0.2009  0.0221
   27FTM     F118752  -1.456   2.171   5.669  0.4346  0.3111 -0.5641
   27FTM     C518753  -1.341   1.921   5.565 -0.0558  0.1929  0.2814
   27FTM     C618754  -1.309   1.787   5.630 -0.3080  0.2673 -0.4452
   27FTM     C718755  -1.351   1.666   5.549 -0.4086 -0.4218  0.7259
   27FTM     C818756  -1.294   1.659   5.399  0.9641  0.2173 -0.3983
   27FTM     C918757  -1.368   1.546   5.315 -0.2115  0.3711 -0.4210
   27FTM    C1018758  -1.290   1.505   5.196  0.2524 -0.1457  0.0079
   27FTM    C1118759  -1.362   1.770   5.773 -0.3912  0.6946  0.2659
   27FTM    C1218760  -1.326   1.877   5.882  0.4757  0.2204  0.2667
   28TPM     C118761  -1.949   1.545   5.709 -0.0779  0.0739 -0.2395
   28TPM     C218762  -1.841   1.530   5.791 -0.0331  0.1593 -0.2825
   28TPM     C318763  -1.833   1.400   5.853 -0.0738  0.2722 -0.0432
   28TPM     C418764  -1.936   1.317   5.820 -0.1496  0.2729  0.1823
   28TPM     S118765  -2.051   1.396   5.705 -0.1754  0.1299  0.1094
   29BDD     C118766  -2.059   0.958   5.926 -0.0312 -0.0405 -0.2772
   29BDD     C218767  -1.924   0.947   5.908 -0.0108  0.0146 -0.1576
   29BDD     C318768  -1.860   1.072   5.869 -0.0131  0.0615 -0.0136
   29BDD     C418769  -1.948   1.176   5.857 -0.0355  0.0413 -0.0256
   29BDD     S118770  -2.116   1.125   5.895 -0.0550 -0.0376 -0.2180
   29BDD     C518771  -1.848   0.822   5.926  0.0118  0.0263 -0.1712
   29BDD     C618772  -1.715   1.083   5.844  0.0066  0.1245  0.1308
   29BDD     O118773  -1.660   1.190   5.811  0.0045  0.1649  0.2548
   29BDD     O218774  -1.902   0.714   5.960  0.0139 -0.0141 -0.2953
   29BDD     C718775  -1.639   0.957   5.863  0.0293  0.1362  0.1172
   29BDD     C818776  -1.702   0.833   5.902  0.0317  0.0893 -0.0268
   29BDD     C918777  -1.615   0.729   5.913  0.0539  0.1095 -0.0148
   29BDD     S218778  -1.447   0.779   5.876  0.0737  0.1884  0.1776
   29BDD    C1018779  -1.504   0.946   5.845  0.0496  0.1913  0.2369
   29BDD    C1118780  -1.384   1.027   5.802  0.1214 -0.4437  0.0988
   29BDD    C1218781  -1.278   1.061   5.911 -0.2519 -0.3734  0.2562
   29BDD    C1318782  -1.343   1.143   6.025  0.0796  0.1607 -0.6197
   29BDD    C1418783  -1.414   1.275   6.000  0.1641  0.2978 -0.2756
   29BDD    C1518784  -1.454   1.327   6.131  0.1775 -0.4520  0.3906
   29BDD    C1618785  -1.485   1.478   6.113  0.1039 -0.0479  0.1174
   29BDD    C1718786  -1.148   1.125   5.849  0.2865 -0.1421 -0.2786
   29BDD    C1818787  -1.030   1.103   5.937 -0.2718  0.5581  0.3356
   29BDD    C1918788  -1.625   0.578   5.951 -0.2249  0.0329  0.4433
   29BDD    C2018789  -1.673   0.486   5.839  0.3128  0.0084  0.2792
   29BDD    C2118790  -1.727   0.352   5.892  0.0840  0.1322  0.6679
   29BDD    C2218791  -1.622   0.255   5.940  0.3220  0.8863  0.0868
   29BDD    C2318792  -1.683   0.127   6.006  0.4650 -0.1495 -0.2681
   29BDD    C2418793  -1.662   0.117   6.159  0.0523 -0.4444  0.4738
   29BDD    C2518794  -1.595   0.487   5.708 -0.2577  0.1192 -0.1295
   29BDD    C2618795  -1.647   0.413   5.589 -0.0588  0.4819  0.1359
   30TPM     C118796  -2.172   0.871   5.946  0.0299  0.0839  0.5706
   30TPM     C218797  -2.163   0.773   6.040  0.0609  0.1032  0.5881
   30TPM     C318798  -2.291   0.724   6.085  0.0755 -0.1548  0.3580
   30TPM     C418799  -2.397   0.786   6.026  0.0556 -0.3708  0.1651
   30TPM     S118800  -2.343   0.911   5.908  0.0165 -0.2643  0.2598
   31BDTP    C118801  -3.019   0.713   6.075 -0.1493 -0.0567  0.1098
   31BDTP    C218802  -2.970   0.580   6.088 -0.0166  0.0013  0.2028
   31BDTP    C318803  -2.834   0.549   6.085  0.0173  0.1412  0.2881
   31BDTP    C418804  -2.743   0.655   6.068 -0.0843  0.2283  0.2817
   31BDTP    C518805  -2.792   0.788   6.054 -0.2170  0.1703  0.1887
   31BDTP    C618806  -2.928   0.818   6.057 -0.2507  0.0303  0.1034
   31BDTP    C718807  -2.598   0.648   6.061 -0.0732  0.3762  0.3600
   31BDTP    C818808  -2.537   0.768   6.044 -0.1895  0.4314  0.3304
   31BDTP    S118809  -2.655   0.906   6.033 -0.3295  0.3037  0.1997
   31BDTP    C918810  -3.163   0.720   6.081 -0.1605 -0.2046  0.0316
   31BDTP   C1018811  -3.224   0.600   6.098 -0.0441 -0.2598  0.0609
   31BDTP    S218812  -3.107   0.461   6.109  0.0960 -0.1322  0.1917
   32FTM     S118813  -2.636   0.331   6.035  0.0854  0.1933  0.2183
   32FTM     C118814  -2.675   0.182   6.128  0.0072 -0.0851 -0.2566
   32FTM     C218815  -2.793   0.198   6.195 -0.1905 -0.3870 -0.5256
   32FTM     C318816  -2.858   0.325   6.178 -0.2909 -0.4195 -0.3827
   32FTM     C418817  -2.788   0.408   6.096 -0.1660 -0.1330  0.0090
   32FTM     F118818  -2.848   0.099   6.275 -0.2923 -0.6519 -0.9177
   32FTM     C518819  -2.581   0.064   6.121  0.8344  0.2364 -0.5470
   32FTM     C618820  -2.620  -0.084   6.154  0.4915 -0.4583 -0.5180
   32FTM     C718821  -2.505  -0.181   6.136 -0.9429 -0.2264  0.2028
   32FTM     C818822  -2.367  -0.164   6.205 -0.1449 -0.5288  0.0208
   32FTM     C918823  -2.361  -0.178   6.359  0.2674 -0.2424 -0.2387
   32FTM    C1018824  -2.214  -0.192   6.391 -0.0620  0.1616  0.4000
   32FTM    C1118825  -2.758  -0.142   6.109 -0.0733 -0.6523 -0.2972
   32FTM    C1218826  -2.796  -0.282   6.161 -0.1359 -0.7131  0.0434
   33FTM     S118827  -3.079   1.051   6.138  0.0849  0.0049 -0.0053
   33FTM     C118828  -3.101   1.175   6.009 -0.5250 -0.0868  0.0047
   33FTM     C218829  -3.030   1.140   5.899 -0.7006  0.0522 -0.1527
   33FTM     C318830  -2.957   1.017   5.907 -0.3793  0.2341 -0.2879
   33FTM     C418831  -2.971   0.956   6.028  0.0564  0.2344 -0.2317
   33FTM     F118832  -3.028   1.216   5.783 -1.1624  0.0230 -0.1843
   33FTM     C518833  -3.194   1.296   6.026  0.9525  0.1301 -0.1595
   33FTM     C618834  -3.147   1.421   6.082  1.0527 -1.2322 -0.0079
   33FTM     C718835  -3.130   1.413   6.238  0.7224 -0.0738 -0.4642
   33FTM     C818836  -3.252   1.377   6.325  0.1051 -0.8173 -0.4118
   33FTM     C918837  -3.227   1.345   6.475  0.6115 -0.0591  0.3503
   33FTM    C1018838  -3.136   1.229   6.501 -0.2607  0.0567 -0.5626
   33FTM    C1118839  -3.038   1.496   6.002  0.0488 -0.2212 -0.5537
   33FTM    C1218840  -2.998   1.645   6.034 -0.1327  0.1572 -0.1127
   34TPM     C118841  -3.357   0.558   6.084  0.2766 -0.1754 -0.1626
   34TPM     C218842  -3.406   0.436   6.119  0.3927 -0.1877 -0.0412
   34TPM     C318843  -3.546   0.420   6.093  0.3613 -0.2721  0.1751
   34TPM     C418844  -3.605   0.530   6.038  0.2217 -0.3241  0.2185
   34TPM     S118845  -3.486   0.664   6.015  0.1176 -0.2701 -0.0121
   35BDD     C118846  -3.965   0.670   5.992  0.3452 -0.0454  0.2091
   35BDD     C218847  -3.972   0.542   5.944  0.3142 -0.0093  0.1159
   35BDD     C318848  -3.846   0.469   5.956  0.2985 -0.0461  0.0575
   35BDD     C418849  -3.746   0.543   6.013  0.3178 -0.1098  0.1070
   35BDD     S118850  -3.802   0.708   6.055  0.3569 -0.1280  0.2300
   35BDD     C518851  -4.094   0.481   5.886  0.2980  0.0603  0.0774
   35BDD     C618852  -3.831   0.329   5.911  0.2651 -0.0169 -0.0452
   35BDD     O118853  -3.723   0.267   5.921  0.2515 -0.0486 -0.0955
   35BDD     O218854  -4.201   0.544   5.876  0.3115  0.0921  0.1278
   35BDD     C718855  -3.953   0.269   5.853  0.2488  0.0528 -0.0839
   35BDD     C818856  -4.078   0.341   5.841  0.2645  0.0896 -0.0254
   35BDD     C918857  -4.178   0.268   5.785  0.2453  0.1532 -0.0749
   35BDD     S218858  -4.123   0.102   5.743  0.2062  0.1714 -0.1979
   35BDD    C1018859  -3.959   0.141   5.805  0.2179  0.0889 -0.1770
   35BDD    C1118860  -3.864   0.031   5.781 -0.3234  0.1340 -0.5241
   35BDD    C1218861  -3.867  -0.096   5.869 -0.3256 -0.2364 -1.1838
   35BDD    C1318862  -3.853  -0.080   6.025  0.4215 -0.1602  0.8532
   35BDD    C1418863  -3.726  -0.024   6.086 -0.0580 -0.5115  0.4521
   35BDD    C1518864  -3.727  -0.020   6.239 -0.3203  0.0044 -0.0852
   35BDD    C1618865  -3.602   0.035   6.292 -0.6244 -0.4037 -0.2055
   35BDD    C1718866  -3.784  -0.208   5.815 -0.3753  0.1896  0.2322
   35BDD    C1818867  -3.849  -0.342   5.848 -0.0362 -0.1424 -0.0605
   35BDD    C1918868  -4.320   0.304   5.742 -0.6365  0.5818  0.5270
   35BDD    C2018869  -4.351   0.291   5.588 -0.2346 -0.4248 -0.4864
   35BDD    C2118870  -4.380   0.147   5.528  0.0014 -0.3972  0.1714
   35BDD    C2218871  -4.503   0.070   5.574  0.4492  0.5254  0.0975
   35BDD    C2318872  -4.632   0.143   5.532 -0.0453  0.3935  0.3464
   35BDD    C2418873  -4.751   0.059   5.566  0.1290 -0.1081 -0.6098
   35BDD    C2518874  -4.270   0.391   5.502 -0.8684  0.4497 -0.1328
   35BDD    C2618875  -4.328   0.417   5.366  0.0036 -0.1265  0.0398
   36TPM     C118876  -4.053   0.788   6.002 -0.0815  0.0058 -0.1049
   36TPM     C218877  -4.188   0.779   6.024 -0.1627  0.1554 -0.5211
   36TPM     C318878  -4.249   0.903   6.062 -0.1252  0.2027 -0.6144
   36TPM     C418879  -4.161   1.007   6.070 -0.0155  0.0891 -0.2694
   36TPM     S118880  -3.993   0.956   6.028  0.0495 -0.0877  0.2038
   37BDTP    C118881  -4.265   1.603   6.237  0.0453  0.1764  0.1510
   37BDTP    C218882  -4.145   1.573   6.310  0.0851  0.1367  0.0688
   37BDTP    C318883  -4.083   1.449   6.303  0.0430  0.1181  0.0203
   37BDTP    C418884  -4.141   1.350   6.221 -0.0426  0.1396  0.0544
   37BDTP    C518885  -4.260   1.380   6.149 -0.0825  0.1792  0.1367
   37BDTP    C618886  -4.322   1.504   6.156 -0.0404  0.1979  0.1853
   37BDTP    C718887  -4.094   1.215   6.198 -0.0991  0.1265  0.0160
   37BDTP    C818888  -4.172   1.143   6.113 -0.1786  0.1541  0.0651
   37BDTP    S118889  -4.314   1.236   6.050 -0.1931  0.2006  0.1665
   37BDTP    C918890  -4.311   1.738   6.260  0.1017  0.1895  0.1894
   37BDTP   C1018891  -4.234   1.810   6.345  0.1814  0.1619  0.1405
   37BDTP    S218892  -4.091   1.716   6.408  0.1957  0.1155  0.0390
   38FTM     S118893  -3.804   1.492   6.348  0.3263  0.0338 -0.0165
   38FTM     C118894  -3.740   1.443   6.509  0.2955  0.1414  0.0288
   38FTM     C218895  -3.839   1.384   6.582  0.2970  0.1364  0.0266
   38FTM     C318896  -3.967   1.374   6.518  0.3214  0.0507 -0.0098
   38FTM     C418897  -3.966   1.427   6.392  0.3394 -0.0120 -0.0359
   38FTM     F118898  -3.820   1.336   6.710  0.2761  0.2092  0.0571
   38FTM     C518899  -3.604   1.485   6.549  0.0612  0.2141 -0.4916
   38FTM     C618900  -3.577   1.631   6.603  0.0045 -0.2407 -0.6456
   38FTM     C718901  -3.597   1.742   6.499  0.2533 -1.3146 -0.3386
   38FTM     C818902  -3.537   1.736   6.360 -0.9001  0.4635 -0.7769
   38FTM     C918903  -3.383   1.704   6.359 -0.0644 -0.0944 -0.4431
   38FTM    C1018904  -3.329   1.733   6.223 -0.5366  0.2370 -0.1173
   38FTM    C1118905  -3.667   1.692   6.711 -0.3377  0.2330 -0.5027
   38FTM    C1218906  -3.678   1.624   6.849 -0.1344 -0.6817 -0.6382
   39FTM     S118907  -4.595   1.597   6.156 -0.1499 -0.3619  0.0194
   39FTM     C118908  -4.676   1.603   5.996  0.2250  0.4267 -0.1491
   39FTM     C218909  -4.594   1.555   5.900  0.5175  1.0685 -0.2319
   39FTM     C318910  -4.465   1.510   5.944  0.4693  0.9881 -0.1708
   39FTM     C418911  -4.448   1.526   6.078  0.1287  0.2610 -0.0368
   39FTM     F118912  -4.630   1.547   5.766  0.8463  1.7669 -0.3678
   39FTM     C518913  -4.802   1.680   5.998  0.2892 -0.0189 -0.2533
   39FTM     C618914  -4.939   1.611   5.985 -0.2269 -0.4974 -0.2038
   39FTM     C718915  -5.001   1.528   6.101  0.4522 -0.7844 -0.0214
   39FTM     C818916  -5.013   1.585   6.245  0.0481  0.0232  0.3426
   39FTM     C918917  -5.076   1.719   6.282 -0.8011  0.3403  0.0950
   39FTM    C1018918  -5.213   1.740   6.230  0.1771 -0.4343  0.7329
   39FTM    C1118919  -4.967   1.555   5.844  0.4701 -0.0046  0.0720
   39FTM    C1218920  -4.952   1.642   5.711  0.0491 -0.2456 -0.0675
   40TPM     C118921  -4.246   1.951   6.386 -0.2551 -0.1340  0.1535
   40TPM     C218922  -4.184   2.013   6.491 -0.0625 -0.0742  0.0070
   40TPM     C318923  -4.234   2.145   6.518  0.1591  0.0383 -0.1323
   40TPM     C418924  -4.333   2.185   6.433  0.1352  0.0642 -0.0924
   40TPM     S118925  -4.372   2.057   6.312 -0.1713 -0.0524  0.1262
   41BDD     C118926  -4.569   2.498   6.381  0.4485 -0.1515 -0.3085
   41BDD     C218927  -4.475   2.542   6.471  0.3678 -0.0678 -0.2655
   41BDD     C318928  -4.378   2.441   6.507  0.3383 -0.0323 -0.0867
   41BDD     C418929  -4.398   2.321   6.445  0.3970 -0.0894  0.0043
   41BDD     S118930  -4.541   2.326   6.337  0.4933 -0.1916 -0.1280
   41BDD     C518931  -4.473   2.679   6.526  0.3147 -0.0175 -0.3872
   41BDD     C618932  -4.268   2.468   6.602  0.2530  0.0570 -0.0124
   41BDD     O118933  -4.183   2.381   6.634  0.2276  0.0876  0.1419
   41BDD     O218934  -4.557   2.766   6.494  0.3402 -0.0482 -0.5414
   41BDD     C718935  -4.265   2.605   6.657  0.2000  0.1073 -0.1341
   41BDD     C818936  -4.363   2.706   6.621  0.2294  0.0718 -0.3129
   41BDD     C918937  -4.342   2.826   6.683  0.1707  0.1289 -0.4039
   41BDD     S218938  -4.199   2.821   6.791  0.0746  0.2310 -0.2717
   41BDD    C1018939  -4.171   2.649   6.747  0.1192  0.1910 -0.0913
   41BDD    C1118940  -4.044   2.583   6.807  0.6931 -0.2171 -0.7442
   41BDD    C1218941  -4.047   2.567   6.960  0.9127  0.0137  0.3358
   41BDD    C1318942  -4.180   2.507   7.021  0.1018  0.2700  0.3177
   41BDD    C1418943  -4.211   2.359   6.996 -0.5352  0.4175  0.0683
   41BDD    C1518944  -4.348   2.303   7.041  0.2834  0.3341 -0.4422
   41BDD    C1618945  -4.468   2.365   6.977 -0.0573 -0.9074 -0.3040
   41BDD    C1718946  -3.921   2.514   7.027  0.3185 -0.0455 -0.1891
   41BDD    C1818947  -3.786   2.573   6.989 -0.8876  0.1509 -0.1023
   41BDD    C1918948  -4.409   2.963   6.693 -0.1940  0.4291  1.1059
   41BDD    C2018949  -4.468   3.007   6.830 -0.2394 -0.2509  0.0060
   41BDD    C2118950  -4.524   3.160   6.821 -0.3216  0.0198 -0.3078
   41BDD    C2218951  -4.442   3.268   6.749  0.0566  0.3227 -0.9426
   41BDD    C2318952  -4.321   3.317   6.830  0.4097  0.1236 -0.0906
   41BDD    C2418953  -4.249   3.427   6.765 -0.0800 -0.4091 -0.4328
   41BDD    C2518954  -4.559   2.901   6.889 -0.0673  0.5516  0.4751
   41BDD    C2618955  -4.701   2.883   6.828 -0.2931  0.6644 -0.1699
   42TPM     C118956  -4.677   2.557   6.303 -0.2824  0.2467  0.6244
   42TPM     C218957  -4.693   2.687   6.265 -0.8453  0.3315  1.1259
   42TPM     C318958  -4.810   2.710   6.183 -0.7035  0.0572  0.8438
   42TPM     C418959  -4.882   2.597   6.158 -0.0323 -0.2368  0.1268
   42TPM     S118960  -4.809   2.452   6.237  0.4765 -0.1896 -0.2503
   43BDTP    C118961  -5.417   2.548   5.825 -0.0085  0.2100  0.0386
   43BDTP    C218962  -5.367   2.677   5.792 -0.0263  0.2307  0.0917
   43BDTP    C318963  -5.251   2.729   5.847 -0.0473  0.2343  0.1324
   43BDTP    C418964  -5.180   2.651   5.940 -0.0509  0.2168  0.1204
   43BDTP    C518965  -5.230   2.521   5.974 -0.0331  0.1962  0.0672
   43BDTP    C618966  -5.346   2.469   5.918 -0.0122  0.1924  0.0265
   43BDTP    C718967  -5.058   2.684   6.010 -0.0712  0.2166  0.1558
   43BDTP    C818968  -5.014   2.587   6.094 -0.0695  0.1971  0.1323
   43BDTP    S118969  -5.121   2.440   6.095 -0.0421  0.1761  0.0618
   43BDTP    C918970  -5.539   2.515   5.755  0.0117  0.2102  0.0031
   43BDTP   C1018971  -5.583   2.612   5.672  0.0101  0.2297  0.0266
   43BDTP    S218972  -5.476   2.759   5.670 -0.0174  0.2508  0.0971
   44FTM     S118973  -5.264   3.007   5.887 -0.3318 -0.0536 -0.0865
   44FTM     C118974  -5.161   3.112   5.784 -0.2232 -0.0134  0.0614
   44FTM     C218975  -5.089   3.036   5.697 -0.1715  0.0230  0.0725
   44FTM     C318976  -5.109   2.894   5.706 -0.2120  0.0219 -0.0308
   44FTM     C418977  -5.199   2.861   5.803 -0.2977 -0.0166 -0.1241
   44FTM     F118978  -5.001   3.090   5.605 -0.0843  0.0596  0.1769
   44FTM     C518979  -5.168   3.259   5.787  0.1732 -0.4078  0.4035
   44FTM     C618980  -5.050   3.355   5.832  0.0580  0.2024  0.0513
   44FTM     C718981  -4.950   3.396   5.722  0.2080  0.4019 -1.0213
   44FTM     C818982  -4.991   3.466   5.600  1.0862 -0.7515  0.0674
   44FTM     C918983  -4.877   3.525   5.529 -0.4961  0.2192  0.4514
   44FTM    C1018984  -4.920   3.604   5.401  0.6884  0.5451 -0.4516
   44FTM    C1118985  -4.969   3.324   5.970  0.7037 -0.3407  0.7434
   44FTM    C1218986  -5.043   3.311   6.100 -0.6151 -0.0722 -0.0642
   45FTM     S118987  -5.554   2.286   6.002 -0.1761 -0.1563  0.0015
   45FTM     C118988  -5.506   2.113   6.009  0.2003 -0.0588 -0.0689
   45FTM     C218989  -5.374   2.100   5.984  0.2629  0.2545  0.0859
   45FTM     C318990  -5.302   2.221   5.957  0.0278  0.4335  0.2642
   45FTM     C418991  -5.383   2.331   5.963 -0.2234  0.2513  0.2454
   45FTM     F118992  -5.309   1.977   5.982  0.5372  0.3979  0.0755
   45FTM     C518993  -5.599   2.005   6.066 -0.6829  0.6576 -0.2872
   45FTM     C618994  -5.696   1.926   5.980 -0.2335 -0.1377  0.0511
   45FTM     C718995  -5.639   1.817   5.890 -0.3023 -0.2948 -0.0913
   45FTM     C818996  -5.589   1.691   5.963 -0.0579 -0.0536  0.1809
   45FTM     C918997  -5.505   1.586   5.882 -0.1682 -0.0811 -0.4506
   45FTM    C1018998  -5.372   1.636   5.827 -0.6533  0.4875 -0.4711
   45FTM    C1118999  -5.795   2.008   5.891  0.2868 -0.0665  0.1367
   45FTM    C1219000  -5.863   2.128   5.957  0.3039 -0.0520 -0.0406
   46TPM     C119001  -5.710   2.610   5.602  0.1044  0.2731  0.1837
   46TPM     C219002  -5.734   2.645   5.472  0.3698  0.5199  0.1999
   46TPM     C319003  -5.872   2.635   5.434  0.4312  0.6931 -0.0745
   46TPM     C419004  -5.954   2.591   5.534  0.2126  0.5784 -0.3003
   46TPM     S119005  -5.861   2.560   5.686 -0.0900  0.2401 -0.1826
   47BDD     C119006  -6.337   2.610   5.597 -0.0921 -0.2876  0.2045
   47BDD     C219007  -6.323   2.520   5.494 -0.0334 -0.2038  0.1390
   47BDD     C319008  -6.186   2.500   5.453 -0.0396  0.0934 -0.0337
   47BDD     C419009  -6.096   2.575   5.525 -0.1030  0.2322 -0.0974
   47BDD     S119010  -6.178   2.675   5.649 -0.1593  0.0000  0.0544
   47BDD     C519011  -6.437   2.450   5.430  0.0307 -0.3940  0.2329
   47BDD     C619012  -6.148   2.408   5.344  0.0177  0.2292 -0.1293
   47BDD     O119013  -6.029   2.391   5.309  0.0123  0.4854 -0.2785
   47BDD     O219014  -6.555   2.468   5.465  0.0360 -0.6503  0.3819
   47BDD     C719015  -6.261   2.338   5.280  0.0817  0.0390 -0.0355
   47BDD     C819016  -6.399   2.358   5.321  0.0879 -0.2583  0.1373
   47BDD     C919017  -6.488   2.284   5.249  0.1513 -0.3970  0.2010
   47BDD     S219018  -6.406   2.183   5.125  0.2075 -0.1649  0.0491
   47BDD    C1019019  -6.247   2.248   5.177  0.1404  0.1226 -0.1011
   47BDD    C1119020  -6.131   2.203   5.096  0.1044 -0.2059  0.1271
   47BDD    C1219021  -6.105   2.058   5.071  0.0770  0.4944  0.0527
   47BDD    C1319022  -6.098   1.968   5.198  0.0132 -0.0681 -0.0567
   47BDD    C1419023  -5.996   2.011   5.303  0.7175 -0.3598 -0.3640
   47BDD    C1519024  -6.018   1.917   5.419  0.1287  0.1412  0.4791
   47BDD    C1619025  -5.928   1.925   5.537 -0.4542  0.0937 -0.4247
   47BDD    C1719026  -5.996   2.024   4.969  0.1542 -0.3098 -0.4657
   47BDD    C1819027  -6.000   2.075   4.827 -0.1408  0.1943  0.2804
   47BDD    C1919028  -6.635   2.271   5.257 -0.2551 -0.1008  0.0107
   47BDD    C2019029  -6.709   2.338   5.144  0.4761  0.0673  0.1444
   47BDD    C2119030  -6.854   2.275   5.131 -0.0114  0.2826  0.4519
   47BDD    C2219031  -6.880   2.123   5.120  0.3092  0.0177 -0.0644
   47BDD    C2319032  -7.026   2.080   5.133 -0.0376 -0.3174 -0.4080
   47BDD    C2419033  -7.055   1.933   5.129  0.0681  0.8328  0.1636
   47BDD    C2519034  -6.712   2.494   5.151 -0.1431  0.0403 -0.1416
   47BDD    C2619035  -6.767   2.570   5.031 -0.4508  0.2476 -0.1573
   48TPM     C119036  -6.451   2.657   5.679  0.1963  0.3646  0.0950
   48TPM     C219037  -6.457   2.626   5.812 -0.1084  0.3048  0.0685
   48TPM     C319038  -6.573   2.680   5.878 -0.5019 -0.1114 -0.2701
   48TPM     C419039  -6.655   2.751   5.796 -0.4973 -0.3688 -0.5016
   48TPM     S119040  -6.592   2.756   5.628  0.0083 -0.1035 -0.3087
   49BDTP    C119041  -7.164   3.080   5.949  0.1033 -0.0364  0.1283
   49BDTP    C219042  -7.124   3.027   6.076  0.1379 -0.1252  0.0805
   49BDTP    C319043  -7.014   2.945   6.091  0.0996 -0.1951 -0.0190
   49BDTP    C419044  -6.939   2.913   5.976  0.0235 -0.1770 -0.0741
   49BDTP    C519045  -6.979   2.965   5.850 -0.0111 -0.0882 -0.0262
   49BDTP    C619046  -7.090   3.048   5.835  0.0272 -0.0182  0.0734
   49BDTP    C719047  -6.821   2.829   5.967 -0.0276 -0.2385 -0.1777
   49BDTP    C819048  -6.771   2.817   5.842 -0.0980 -0.2007 -0.2097
   49BDTP    S119049  -6.866   2.910   5.718 -0.1096 -0.0819 -0.1129
   49BDTP    C919050  -7.283   3.163   5.958  0.1544  0.0252  0.2321
   49BDTP   C1019051  -7.333   3.176   6.084  0.2248 -0.0125  0.2639
   49BDTP    S219052  -7.237   3.083   6.208  0.2363 -0.1315  0.1673
   50FTM     S119053  -7.120   2.828   6.328  0.0644 -0.0883 -0.0582
   50FTM     C119054  -6.999   2.757   6.440 -0.1514 -0.3874 -0.0138
   50FTM     C219055  -6.873   2.782   6.395 -0.0682 -0.5043  0.1508
   50FTM     C319056  -6.863   2.858   6.274  0.1630 -0.3716  0.2500
   50FTM     C419057  -6.986   2.890   6.224  0.2598 -0.1457  0.1584
   50FTM     F119058  -6.759   2.740   6.462 -0.1963 -0.7384  0.2213
   50FTM     C519059  -7.054   2.705   6.567  0.0259 -0.1264 -0.2648
   50FTM     C619060  -7.056   2.799   6.694 -0.5400 -0.1462  0.6261
   50FTM     C719061  -7.097   2.721   6.825  0.0391  0.5814  0.0801
   50FTM     C819062  -7.012   2.600   6.866  0.3691  0.1212  0.2572
   50FTM     C919063  -7.057   2.514   6.979 -0.2645 -0.2702 -0.1783
   50FTM    C1019064  -6.947   2.409   6.995  0.4762  0.1702 -0.1209
   50FTM    C1119065  -7.112   2.939   6.688 -0.3113 -0.7396 -0.9061
   50FTM    C1219066  -7.258   2.967   6.698 -0.3943 -0.1044  0.3325
   51FTM     S119067  -7.069   3.274   5.665 -0.0457  0.3199 -0.1896
   51FTM     C119068  -7.116   3.247   5.493  0.0586 -0.1416 -0.1490
   51FTM     C219069  -7.161   3.120   5.477  0.1647 -0.2183  0.1426
   51FTM     C319070  -7.162   3.038   5.594  0.1712  0.0700  0.3475
   51FTM     C419071  -7.116   3.104   5.704  0.0667  0.3776  0.2081
   51FTM     F119072  -7.205   3.071   5.355  0.2622 -0.5543  0.2415
   51FTM     C519073  -7.112   3.360   5.395 -0.1462  0.4412 -0.1888
   51FTM     C619074  -7.245   3.440   5.378  0.2481 -0.4592  0.4870
   51FTM     C719075  -7.295   3.513   5.512  0.5149  0.4525  0.3618
   51FTM     C819076  -7.208   3.624   5.574 -0.3449 -0.0203  0.8868
   51FTM     C919077  -7.132   3.727   5.481  0.8118  0.0255  0.3616
   51FTM    C1019078  -7.033   3.814   5.553 -0.1338  0.1193 -0.3427
   51FTM    C1119079  -7.268   3.513   5.246  0.6466  0.5270  0.1294
   51FTM    C1219080  -7.402   3.572   5.213  0.0155 -0.0496 -0.1852
   52TPM     C119081  -7.448   3.249   6.115  0.2041  0.4399  0.1263
   52TPM     C219082  -7.506   3.268   6.237  0.2043  0.7203  0.0829
   52TPM     C319083  -7.626   3.348   6.232  0.1267  0.5931 -0.1212
   52TPM     C419084  -7.659   3.390   6.106  0.0674  0.2157 -0.2334
   52TPM     S119085  -7.540   3.331   5.984  0.1052 -0.0101 -0.0889
   53BDD     C119086  -7.967   3.634   6.127 -0.1881 -0.2545  0.1604
   53BDD     C219087  -7.975   3.579   6.003 -0.1781 -0.1085  0.0948
   53BDD     C319088  -7.869   3.483   5.975  0.0366  0.1926 -0.1427
   53BDD     C419089  -7.782   3.467   6.080  0.1872  0.2717 -0.2547
   53BDD     S119090  -7.827   3.570   6.219  0.0706 -0.0252 -0.0706
   53BDD     C519091  -8.079   3.612   5.904 -0.3656 -0.2403  0.2481
   53BDD     C619092  -7.858   3.412   5.846  0.0846  0.3908 -0.2499
   53BDD     O119093  -7.767   3.329   5.823  0.2698  0.6503 -0.4548
   53BDD     O219094  -8.171   3.695   5.927 -0.5507 -0.4998  0.4529
   53BDD     C719095  -7.963   3.445   5.748 -0.1029  0.2590 -0.0966
   53BDD     C819096  -8.068   3.541   5.775 -0.3176 -0.0421  0.1409
   53BDD     C919097  -8.155   3.557   5.671 -0.4682 -0.1211  0.2530
   53BDD     S219098  -8.111   3.454   5.531 -0.3516  0.1758  0.0686
   53BDD    C1019099  -7.970   3.390   5.623 -0.0929  0.4051 -0.1622
   53BDD    C1119100  -7.889   3.283   5.544  0.2989 -0.8260 -0.3390
   53BDD    C1219101  -7.747   3.311   5.501  0.7194 -0.1490  0.1604
   53BDD    C1319102  -7.737   3.431   5.399  0.4970 -0.9506 -0.0433
   53BDD    C1419103  -7.816   3.443   5.270  0.9358 -0.6070  0.0463
   53BDD    C1519104  -7.788   3.325   5.173  0.2689 -0.0216  0.0916
   53BDD    C1619105  -7.853   3.341   5.039  0.3496  0.4702  0.5021
   53BDD    C1719106  -7.690   3.176   5.461  0.2616 -0.5657  0.1611
   53BDD    C1819107  -7.548   3.161   5.417 -0.0258 -0.8415  0.1163
   53BDD    C1919108  -8.279   3.632   5.656  0.7195 -0.8122 -0.4121
   53BDD    C2019109  -8.412   3.557   5.635 -0.0140  0.4479 -0.1280
   53BDD    C2119110  -8.449   3.444   5.732 -0.0512 -0.1048 -0.8207
   53BDD    C2219111  -8.488   3.497   5.871 -0.4971 -0.2696 -0.3107
   53BDD    C2319112  -8.529   3.389   5.967 -0.1346 -0.7440  0.5865
   53BDD    C2419113  -8.551   3.439   6.103  0.3458 -0.1900 -0.8612
   53BDD    C2519114  -8.522   3.649   5.590  0.3806 -0.3644  0.0512
   53BDD    C2619115  -8.520   3.732   5.460  0.0925  0.6235 -0.2592
   54TPM     C119116  -8.031   3.742   6.203  0.0342 -0.7367 -0.2214
   54TPM     C219117  -7.964   3.810   6.300  0.2424 -1.1761 -0.0496
   54TPM     C319118  -8.045   3.906   6.371  0.5838 -0.9327  0.0196
   54TPM     C419119  -8.175   3.910   6.329  0.6359 -0.3077 -0.0997
   54TPM     S119120  -8.204   3.793   6.195  0.2548  0.0244 -0.3099
   55BDTP    C119121  -8.684   4.201   6.558 -0.0540 -0.4148  0.0178
   55BDTP    C219122  -8.661   4.266   6.434 -0.0983 -0.3705  0.0330
   55BDTP    C319123  -8.556   4.232   6.349 -0.1281 -0.3401 -0.0165
   55BDTP    C419124  -8.470   4.128   6.389 -0.1137 -0.3539 -0.0840
   55BDTP    C519125  -8.494   4.062   6.513 -0.0694 -0.3983 -0.0992
   55BDTP    C619126  -8.598   4.097   6.597 -0.0395 -0.4289 -0.0500
   55BDTP    C719127  -8.356   4.075   6.318 -0.1386 -0.3282 -0.1437
   55BDTP    C819128  -8.292   3.974   6.382 -0.1155 -0.3511 -0.2024
   55BDTP    S119129  -8.369   3.932   6.541 -0.0588 -0.4082 -0.1900
   55BDTP    C919130  -8.799   4.253   6.629 -0.0291 -0.4406  0.0775
   55BDTP   C1019131  -8.862   4.354   6.564 -0.0522 -0.4177  0.1360
   55BDTP    S219132  -8.785   4.397   6.405 -0.1088 -0.3608  0.1238
   56FTM     S119133  -8.541   4.245   6.065 -0.1203  0.0844  0.0617
   56FTM     C119134  -8.498   4.405   5.995  0.2257 -0.0025  0.0708
   56FTM     C219135  -8.479   4.496   6.095  0.1940  0.0081  0.0672
   56FTM     C319136  -8.497   4.447   6.229 -0.0942  0.0825  0.0577
   56FTM     C419137  -8.530   4.315   6.231 -0.2896  0.1305  0.0537
   56FTM     F119138  -8.445   4.628   6.072  0.4241 -0.0489  0.0727
   56FTM     C519139  -8.495   4.422   5.847  0.0493 -0.2591 -0.2859
   56FTM     C619140  -8.440   4.320   5.748 -0.7724  0.0094  0.9420
   56FTM     C719141  -8.307   4.250   5.785  0.3583 -0.1409  0.0618
   56FTM     C819142  -8.253   4.132   5.706  0.0352 -0.2560 -0.2032
   56FTM     C919143  -8.107   4.083   5.746 -0.3273  0.5865  0.0405
   56FTM    C1019144  -8.032   4.002   5.639  0.3360  0.0533  0.5645
   56FTM    C1119145  -8.442   4.365   5.597  0.1894  0.1387 -0.0066
   56FTM    C1219146  -8.565   4.428   5.551 -0.3803 -0.9275  0.8462
   57FTM     S119147  -8.650   4.107   6.882 -0.0147 -0.1316  0.0053
   57FTM     C119148  -8.676   3.948   6.962  0.2130 -0.2622 -0.1760
   57FTM     C219149  -8.663   3.848   6.871  0.2446 -0.1333 -0.3141
   57FTM     C319150  -8.633   3.888   6.736  0.0974  0.0699 -0.2882
   57FTM     C419151  -8.622   4.023   6.724 -0.0519  0.0974 -0.1245
   57FTM     F119152  -8.679   3.714   6.903  0.4089 -0.1917 -0.4724
   57FTM     C519153  -8.699   3.937   7.108 -0.1681 -0.3571 -0.3288
   57FTM     C619154  -8.837   3.886   7.160 -0.4859  0.1996 -0.2619
   57FTM     C719155  -8.950   3.981   7.142  0.7345 -0.1308 -0.0798
   57FTM     C819156  -9.010   4.030   7.006 -0.7423 -0.2646  0.1395
   57FTM     C919157  -9.033   3.926   6.900  0.3818  0.5175  0.4478
   57FTM    C1019158  -9.080   3.986   6.771  0.2051 -0.7510 -0.2074
   57FTM    C1119159  -8.822   3.832   7.307 -0.3935  0.3439 -0.5474
   57FTM    C1219160  -8.932   3.727   7.345 -0.1141 -0.2908 -0.3466
   58TPM     C119161  -8.979   4.432   6.609 -0.1005  0.3419  0.0353
   58TPM     C219162  -9.100   4.437   6.547  0.0101  0.4125 -0.1757
   58TPM     C319163  -9.196   4.521   6.614 -0.0722  0.4300 -0.3154
   58TPM     C419164  -9.148   4.580   6.727 -0.2457  0.3729 -0.2110
   58TPM     S119165  -8.977   4.534   6.758 -0.3190  0.2918  0.0743
   59BDD     C119166  -9.212   4.903   6.948  0.1711 -0.3550  0.2581
   59BDD     C219167  -9.337   4.859   6.914  0.1721 -0.3027  0.1843
   59BDD     C319168  -9.335   4.743   6.827  0.1752 -0.2733  0.1454
   59BDD     C419169  -9.209   4.701   6.795  0.1765 -0.3035  0.1903
   59BDD     S119170  -9.084   4.803   6.872  0.1739 -0.3709  0.2841
   59BDD     C519171  -9.462   4.921   6.962  0.1703 -0.2780  0.1469
   59BDD     C619172  -9.459   4.678   6.778  0.1768 -0.2162  0.0656
   59BDD     O119173  -9.458   4.578   6.702  0.1795 -0.1909  0.0321
   59BDD     O219174  -9.464   5.021   7.037  0.1676 -0.3034  0.1804
   59BDD     C719175  -9.584   4.740   6.825  0.1750 -0.1916  0.0279
   59BDD     C819176  -9.586   4.856   6.913  0.1719 -0.2209  0.0666
   59BDD     C919177  -9.712   4.898   6.945  0.1707 -0.1907  0.0221
   59BDD     S219178  -9.838   4.796   6.867  0.1732 -0.1233 -0.0717
   59BDD    C1019179  -9.709   4.696   6.792  0.1760 -0.1392 -0.0458
   59BDD    C1119180  -9.762   4.585   6.704  0.5218 -0.0177 -0.2020
   59BDD    C1219181  -9.862   4.480   6.765 -0.1733 -0.6438 -0.0047
   59BDD    C1319182  -9.930   4.394   6.661  0.3443  0.2580 -0.0641
   59BDD    C1419183 -10.005   4.486   6.565 -0.2093  0.3851 -0.3823
   59BDD    C1519184 -10.088   4.417   6.461 -0.1518  0.3121  0.6818
   59BDD    C1619185 -10.154   4.521   6.362  0.7264  0.2224 -0.2072
   59BDD    C1719186  -9.826   4.396   6.890 -0.5157  0.0800 -0.0183
   59BDD    C1819187  -9.699   4.302   6.882  0.6013 -0.5731  0.1479
   59BDD    C1919188  -9.775   5.012   7.020  0.2204  0.0404  0.6363
   59BDD    C2019189  -9.901   4.979   7.112  0.5955  0.1203  0.8845
   59BDD    C2119190  -9.972   5.103   7.173 -0.4378 -0.1391 -1.0584
   59BDD    C2219191 -10.055   5.195   7.090 -0.8081 -0.6619 -0.2322
   59BDD    C2319192 -10.101   5.314   7.183  0.0872  0.0970 -0.0855
   59BDD    C2419193 -10.217   5.392   7.117 -0.3042 -0.1405  0.0875
   59BDD    C2519194  -9.872   4.867   7.214 -0.1523 -0.1042  0.1633
   59BDD    C2619195  -9.778   4.890   7.330  0.0061 -0.0522  0.3643
   60TPM     C119196  -9.159   5.011   7.028 -0.0007 -0.0146  0.3039
   60TPM     C219197  -9.069   5.100   6.975  0.0663 -0.0328  0.3873
   60TPM     C319198  -9.037   5.209   7.063  0.0754 -0.0880  0.4523
   60TPM     C419199  -9.102   5.203   7.183  0.0153 -0.1117  0.4188
   60TPM     S119200  -9.210   5.059   7.194 -0.0579 -0.0660  0.3012
    1BDTP    C119201   7.886   7.231   6.204  0.1513 -0.2147 -0.1385
    1BDTP    C219202   7.929   7.351   6.269  0.0592 -0.2495 -0.0132
    1BDTP    C319203   7.908   7.477   6.215  0.0529 -0.2151  0.0695
    1BDTP    C419204   7.841   7.486   6.092  0.1414 -0.1429  0.0269
    1BDTP    C519205   7.798   7.367   6.027  0.2335 -0.1082 -0.0983
    1BDTP    C619206   7.820   7.241   6.081  0.2398 -0.1426 -0.1813
    1BDTP    C719207   7.808   7.606   6.017  0.1533 -0.0963  0.0956
    1BDTP    C819208   7.743   7.582   5.900  0.2487 -0.0290  0.0288
    1BDTP    S119209   7.715   7.405   5.869  0.3368 -0.0153 -0.1305
    1BDTP    C919210   7.919   7.112   6.279  0.1394 -0.2613 -0.2073
    1BDTP   C1019211   7.984   7.136   6.396  0.0440 -0.3285 -0.1404
    1BDTP    S219212   8.012   7.313   6.427 -0.0438 -0.3426  0.0188
    2FTM     S119213   8.090   7.707   6.200  0.0860 -0.1615 -0.0633
    2FTM     C119214   8.085   7.815   6.344  0.1384  0.1998 -0.3305
    2FTM     C219215   7.997   7.766   6.435 -0.1335  0.6483 -0.3483
    2FTM     C319216   7.930   7.645   6.400 -0.3927  0.7359 -0.1601
    2FTM     C419217   7.967   7.599   6.277 -0.3169  0.3419  0.0077
    2FTM     F119218   7.972   7.829   6.557 -0.1639  1.0056 -0.5363
    2FTM     C519219   8.162   7.950   6.346 -0.1702  0.1663  0.6006
    2FTM     C619220   8.294   7.968   6.421 -0.0697 -0.3673 -0.5485
    2FTM     C719221   8.364   8.103   6.399  0.4479 -0.0804 -0.7811
    2FTM     C819222   8.372   8.142   6.256 -0.3345 -0.7713 -0.6126
    2FTM     C919223   8.415   8.288   6.235 -0.3774  0.2558 -0.0540
    2FTM    C1019224   8.321   8.362   6.145  0.4443  0.0706  0.2569
    2FTM    C1119225   8.322   7.918   6.567  0.1359  0.2779  0.1462
    2FTM    C1219226   8.228   7.970   6.670  0.5424 -0.1570 -0.0452
    3FTM     S119227   7.704   6.977   6.100 -0.1452  0.0378 -0.1502
    3FTM     C119228   7.674   6.893   5.944  0.2749  0.0895 -0.2597
    3FTM     C219229   7.722   6.968   5.841  0.6063  0.0957 -0.1036
    3FTM     C319230   7.783   7.093   5.877  0.5553  0.0615  0.1060
    3FTM     C419231   7.782   7.114   6.011  0.1721  0.0279  0.1100
    3FTM     F119232   7.714   6.929   5.708  0.9756  0.1328 -0.1409
    3FTM     C519233   7.625   6.748   5.945 -0.0169 -1.1152 -0.0064
    3FTM     C619234   7.552   6.663   5.844 -0.2794  0.7333  0.4747
    3FTM     C719235   7.437   6.732   5.765  0.3905  0.0553  0.3379
    3FTM     C819236   7.312   6.799   5.837  0.3142  0.2086  0.3156
    3FTM     C919237   7.200   6.858   5.754 -0.3135 -0.5769  0.2884
    3FTM    C1019238   7.077   6.834   5.842 -0.0011 -0.0584  0.6542
    3FTM    C1119239   7.502   6.524   5.877  0.6256  0.0107 -0.1947
    3FTM    C1219240   7.608   6.426   5.915 -0.5246  0.4877  0.2233
    4TPM     C119241   8.018   7.044   6.497 -0.0219 -0.1169 -0.7579
    4TPM     C219242   8.035   7.075   6.629 -0.6340  0.3887 -0.7863
    4TPM     C319243   8.067   6.961   6.711 -0.8152  0.7316 -0.2306
    4TPM     C419244   8.075   6.844   6.642 -0.3410  0.4872  0.2217
    4TPM     S119245   8.041   6.868   6.467  0.3764 -0.2001 -0.0214
    5BDD     C119246   8.210   6.546   6.860 -0.3436 -0.1149  0.3318
    5BDD     C219247   8.110   6.492   6.784 -0.2122 -0.1758  0.2028
    5BDD     C319248   8.046   6.589   6.696 -0.0327 -0.2545 -0.0181
    5BDD     C419249   8.098   6.715   6.707 -0.0294 -0.2525 -0.0542
    5BDD     S119250   8.230   6.722   6.828 -0.2513 -0.1519  0.1858
    5BDD     C519251   8.071   6.350   6.788 -0.2472 -0.1638  0.2778
    5BDD     C619252   7.936   6.553   6.605  0.1293 -0.3289 -0.1854
    5BDD     O119253   7.881   6.636   6.530  0.2843 -0.3967 -0.3759
    5BDD     O219254   8.126   6.267   6.864 -0.4020 -0.0958  0.4681
    5BDD     C719255   7.896   6.410   6.610  0.0947 -0.3169 -0.1103
    5BDD     C819256   7.960   6.314   6.697 -0.0851 -0.2381  0.1106
    5BDD     C919257   7.909   6.188   6.686 -0.0880 -0.2402  0.1469
    5BDD     S219258   7.776   6.181   6.565  0.1338 -0.3408 -0.0934
    5BDD    C1019259   7.796   6.356   6.533  0.2260 -0.3779 -0.2393
    5BDD    C1119260   7.705   6.415   6.430  0.8571  0.6324 -0.4740
    5BDD    C1219261   7.713   6.377   6.278 -0.4414 -0.2408 -0.0713
    5BDD    C1319262   7.837   6.421   6.201  0.0610 -0.0387 -0.0923
    5BDD    C1419263   7.859   6.571   6.211  0.0107 -0.5001  0.3592
    5BDD    C1519264   7.971   6.630   6.123 -0.4051  0.1724 -0.3764
    5BDD    C1619265   8.108   6.584   6.151 -0.2246  0.3311 -0.5042
    5BDD    C1719266   7.677   6.241   6.232  0.0608 -0.6959  0.5785
    5BDD    C1819267   7.541   6.186   6.268  0.2213  0.3632  1.0829
    5BDD    C1919268   7.941   6.056   6.748 -0.8373  0.7167  0.0255
    5BDD    C2019269   7.990   5.953   6.640  0.3772  0.3193 -0.2647
    5BDD    C2119270   8.117   5.993   6.576  0.6982  0.0364  0.7384
    5BDD    C2219271   8.172   5.919   6.446  1.2269 -0.1389  0.2292
    5BDD    C2319272   8.081   5.896   6.323 -0.2539 -0.3171  0.0197
    5BDD    C2419273   8.054   6.026   6.254 -0.0610  0.5024  0.5602
    5BDD    C2519274   7.977   5.807   6.687  0.0708  0.4655  0.3632
    5BDD    C2619275   7.842   5.761   6.752  0.0885  0.2548  0.3702
    6TPM     C119276   8.293   6.495   6.970 -0.3816  0.0469  0.5378
    6TPM     C219277   8.310   6.562   7.088 -0.4089 -0.4184  0.8129
    6TPM     C319278   8.397   6.495   7.181 -0.0715 -0.5769  0.3905
    6TPM     C419279   8.447   6.377   7.134  0.2131 -0.2321 -0.2068
    6TPM     S119280   8.387   6.341   6.968  0.0760  0.3237 -0.2829
    7BDTP    C119281   8.905   6.024   7.378  0.2635 -0.1096 -0.1773
    7BDTP    C219282   8.895   5.977   7.244  0.0031 -0.2186 -0.1198
    7BDTP    C319283   8.802   6.026   7.153 -0.1745 -0.2943  0.0210
    7BDTP    C419284   8.714   6.127   7.197 -0.0920 -0.2613  0.1094
    7BDTP    C519285   8.725   6.175   7.331  0.1686 -0.1525  0.0522
    7BDTP    C619286   8.818   6.125   7.421  0.3464 -0.0765 -0.0888
    7BDTP    C719287   8.610   6.194   7.122 -0.2407 -0.3252  0.2586
    7BDTP    C819288   8.542   6.288   7.192 -0.1068 -0.2702  0.3152
    7BDTP    S119289   8.601   6.306   7.363  0.2272 -0.1297  0.1876
    7BDTP    C919290   9.010   5.958   7.453  0.4125 -0.0457 -0.3264
    7BDTP   C1019291   9.077   5.864   7.383  0.2785 -0.1007 -0.3830
    7BDTP    S219292   9.018   5.846   7.211 -0.0554 -0.2412 -0.2552
    8FTM     S119293   8.745   5.802   6.982 -0.2878 -0.0606 -0.1268
    8FTM     C119294   8.786   5.818   6.807  0.4541 -0.4656 -0.0009
    8FTM     C219295   8.834   5.943   6.782  0.9019 -0.6400 -0.0241
    8FTM     C319296   8.842   6.031   6.895  0.7007 -0.4734 -0.1384
    8FTM     C419297   8.798   5.972   7.010  0.0781 -0.1610 -0.2048
    8FTM     F119298   8.874   5.985   6.656  1.5213 -0.9611  0.0566
    8FTM     C519299   8.774   5.695   6.724  0.2627 -0.0781  0.3341
    8FTM     C619300   8.873   5.584   6.746  0.3560 -0.0434  0.0654
    8FTM     C719301   9.009   5.624   6.687 -0.4009  0.5030 -0.1745
    8FTM     C819302   9.129   5.541   6.735 -0.0648 -1.1135 -0.8125
    8FTM     C919303   9.262   5.596   6.685  0.5609  1.0476 -0.1522
    8FTM    C1019304   9.385   5.522   6.727 -0.1531  0.4399 -0.0485
    8FTM    C1119305   8.811   5.446   6.721 -0.0990 -0.0438 -0.4967
    8FTM    C1219306   8.769   5.400   6.582 -0.3584 -0.4340  0.1799
    9FTM     S119307   8.967   6.281   7.603  0.2524  0.1704  0.0621
    9FTM     C119308   8.899   6.306   7.768  0.0099  0.6377 -0.1037
    9FTM     C219309   8.780   6.240   7.779 -0.0401  0.7269 -0.1153
    9FTM     C319310   8.736   6.169   7.663  0.1032  0.4444  0.0012
    9FTM     C419311   8.824   6.180   7.559  0.2690  0.1282  0.1055
    9FTM     F119312   8.704   6.241   7.895 -0.2191  1.0699 -0.2322
    9FTM     C519313   8.960   6.410   7.856  0.1906  0.1065  0.3869
    9FTM     C619314   9.081   6.392   7.949  0.1319  0.0648  0.5126
    9FTM     C719315   9.127   6.525   8.016 -0.0223 -0.5169  0.2207
    9FTM     C819316   9.040   6.568   8.139 -0.0717 -0.5287  0.5567
    9FTM     C919317   8.991   6.458   8.234  0.2036 -0.3467 -0.5204
    9FTM    C1019318   8.980   6.478   8.386 -0.3602  0.0633 -0.0964
    9FTM    C1119319   9.179   6.289   7.892  0.1004  0.1798 -0.4149
    9FTM    C1219320   9.315   6.260   7.958 -0.6704 -0.1686 -0.2739
   10TPM     C119321   9.203   5.801   7.423  0.4734 -0.3160  0.3153
   10TPM     C219322   9.248   5.749   7.542  0.7858 -0.4665  0.1357
   10TPM     C319323   9.380   5.694   7.535  0.8936 -0.1739 -0.2078
   10TPM     C419324   9.437   5.703   7.411  0.6630  0.1994 -0.2895
   10TPM     S119325   9.327   5.783   7.293  0.2889  0.2107  0.0634
   11BDD     C119326   9.713   5.511   7.219 -0.0347  0.0540 -0.2292
   11BDD     C219327   9.775   5.548   7.336 -0.0523  0.0430 -0.2165
   11BDD     C319328   9.687   5.620   7.427 -0.0448  0.1001 -0.2546
   11BDD     C419329   9.561   5.637   7.378 -0.0215  0.1540 -0.2960
   11BDD     S119330   9.542   5.565   7.215 -0.0076  0.1369 -0.2899
   11BDD     C519331   9.916   5.518   7.368 -0.0767 -0.0206 -0.1687
   11BDD     C619332   9.733   5.669   7.559 -0.0609  0.0993 -0.2488
   11BDD     O119333   9.658   5.731   7.637 -0.0545  0.1487 -0.2817
   11BDD     O219334   9.991   5.455   7.289 -0.0831 -0.0700 -0.1358
   11BDD     C719335   9.874   5.639   7.591 -0.0853  0.0358 -0.2011
   11BDD     C819336   9.961   5.567   7.500 -0.0928 -0.0216 -0.1630
   11BDD     C919337  10.088   5.549   7.548 -0.1160 -0.0752 -0.1216
   11BDD     S219338  10.107   5.622   7.711 -0.1300 -0.0580 -0.1277
   11BDD    C1019339   9.936   5.675   7.707 -0.1029  0.0248 -0.1884
   11BDD    C1119340   9.888   5.726   7.843  0.1520 -0.2207  0.4451
   11BDD    C1219341   9.882   5.622   7.958 -0.1435  0.1740 -0.2414
   11BDD    C1319342   9.863   5.698   8.094  0.9442  0.2251  0.1265
   11BDD    C1419343   9.917   5.833   8.127  0.3572 -0.5411 -0.4292
   11BDD    C1519344  10.070   5.853   8.132  0.0023  0.5276  0.6246
   11BDD    C1619345  10.117   5.995   8.123  0.0913  0.3590 -0.5537
   11BDD    C1719346   9.806   5.483   7.940  0.1576 -0.1734  0.2274
   11BDD    C1819347   9.651   5.492   7.952 -0.7099 -0.1929 -0.4455
   11BDD    C1919348  10.207   5.473   7.500  0.1084  0.2472  0.0384
   11BDD    C2019349  10.318   5.562   7.438 -0.4958  0.2326 -0.2288
   11BDD    C2119350  10.458   5.488   7.420 -0.2457 -0.1551  0.4377
   11BDD    C2219351  10.532   5.442   7.547 -0.7816 -0.6175  0.2564
   11BDD    C2319352  10.563   5.562   7.639  0.6102 -0.2881 -0.1691
   11BDD    C2419353  10.621   5.526   7.772  0.1653 -0.1583 -0.3115
   11BDD    C2519354  10.276   5.650   7.318  0.2324 -0.0110  0.2552
   11BDD    C2619355  10.258   5.588   7.180  0.2214  0.5370 -0.0937
   12TPM     C119356   9.745   5.440   7.097 -0.1820  0.4785 -0.0172
   12TPM     C219357   9.867   5.446   7.036 -0.2959  0.8625 -0.2085
   12TPM     C319358   9.872   5.375   6.911 -0.2489  0.8229 -0.1839
   12TPM     C419359   9.755   5.314   6.877 -0.0991  0.4087  0.0262
   12TPM     S119360   9.627   5.342   7.001 -0.0051  0.0337  0.2106
   13BDTP    C119361   9.561   4.949   6.403 -0.0346 -0.1717 -0.2290
   13BDTP    C219362   9.702   4.940   6.392 -0.0286 -0.0856 -0.2223
   13BDTP    C319363   9.789   5.007   6.478 -0.0727  0.0242 -0.2627
   13BDTP    C419364   9.733   5.086   6.580 -0.1256  0.0505 -0.3124
   13BDTP    C519365   9.591   5.095   6.590 -0.1316 -0.0358 -0.3191
   13BDTP    C619366   9.505   5.029   6.504 -0.0874 -0.1455 -0.2784
   13BDTP    C719367   9.802   5.164   6.680 -0.1770  0.1579 -0.3602
   13BDTP    C819368   9.720   5.231   6.765 -0.2215  0.1569 -0.4019
   13BDTP    S119369   9.543   5.204   6.729 -0.2036  0.0193 -0.3864
   13BDTP    C919370   9.492   4.871   6.302  0.0169 -0.2792 -0.1811
   13BDTP   C1019371   9.574   4.804   6.218  0.0613 -0.2780 -0.1395
   13BDTP    S219372   9.750   4.831   6.253  0.0433 -0.1406 -0.1549
   14FTM     S119373  10.061   5.089   6.475  0.0451 -0.4483  0.2700
   14FTM     C119374  10.183   4.956   6.463  0.0692 -0.4102  0.0819
   14FTM     C219375  10.120   4.836   6.453  0.0895 -0.3942 -0.2803
   14FTM     C319376   9.977   4.840   6.454  0.0878 -0.4102 -0.4300
   14FTM     C419377   9.928   4.967   6.465  0.0653 -0.4393 -0.1740
   14FTM     F119378  10.188   4.716   6.443  0.1110 -0.3641 -0.4978
   14FTM     C519379  10.336   4.991   6.450 -0.0035 -0.3819  0.2612
   14FTM     C619380  10.458   4.916   6.504  0.3158  0.5258  0.0326
   14FTM     C719381  10.464   4.888   6.657 -0.6152 -0.2284 -0.2749
   14FTM     C819382  10.476   5.017   6.743  0.1826 -0.9217  0.6544
   14FTM     C919383  10.584   5.124   6.725  0.0797 -0.5211  1.1231
   14FTM    C1019384  10.578   5.257   6.788  0.2516 -0.5429  0.0625
   14FTM    C1119385  10.496   4.779   6.425 -0.5531  0.4002  0.5220
   14FTM    C1219386  10.467   4.770   6.276 -0.2690  0.0557 -0.0818
   15FTM     S119387   9.237   4.931   6.541  0.0000 -0.0655 -0.1648
   15FTM     C119388   9.106   5.054   6.529  0.3445  0.3013 -0.2215
   15FTM     C219389   9.160   5.177   6.507  0.6986  0.1584 -0.1709
   15FTM     C319390   9.303   5.183   6.499  0.7224 -0.2353 -0.0868
   15FTM     C419391   9.360   5.061   6.515  0.3756 -0.3995 -0.0726
   15FTM     F119392   9.082   5.291   6.493  1.0216  0.3757 -0.1978
   15FTM     C519393   8.963   5.013   6.541  0.5078 -0.8724  0.3771
   15FTM     C619394   8.888   5.020   6.680  0.2822 -0.6272 -0.6739
   15FTM     C719395   8.949   4.966   6.811 -0.1310 -0.1181  0.3982
   15FTM     C819396   8.991   4.821   6.816 -0.4358 -0.2943 -0.5035
   15FTM     C919397   9.023   4.767   6.958  0.2451 -0.2445  0.6511
   15FTM    C1019398   9.078   4.625   6.933  0.2348 -0.2462  0.5378
   15FTM    C1119399   8.743   5.000   6.650  0.7767 -0.8447 -0.4118
   15FTM    C1219400   8.636   5.053   6.744  0.1754  0.0676  0.3441
   16TPM     C119401   9.522   4.748   6.095  0.2228 -0.4960 -0.0577
   16TPM     C219402   9.429   4.648   6.084  0.5233 -0.7942  0.0800
   16TPM     C319403   9.397   4.613   5.948  0.2427 -0.7117  0.1228
   16TPM     C419404   9.466   4.686   5.855 -0.2718 -0.3505  0.0176
   16TPM     S119405   9.576   4.805   5.933 -0.4434 -0.0845 -0.1448
   17BDD     C119406   9.331   4.562   5.514 -0.0521 -0.1399  0.1173
   17BDD     C219407   9.453   4.617   5.486 -0.0863 -0.1010  0.0447
   17BDD     C319408   9.521   4.670   5.603 -0.1049  0.0676 -0.0204
   17BDD     C419409   9.449   4.655   5.718 -0.0847  0.1546  0.0037
   17BDD     S119410   9.292   4.573   5.688 -0.0408  0.0315  0.1096
   17BDD     C519411   9.512   4.623   5.351 -0.1028 -0.2170  0.0324
   17BDD     C619412   9.654   4.734   5.596 -0.1416  0.1363 -0.1041
   17BDD     O119413   9.712   4.780   5.697 -0.1576  0.2817 -0.1601
   17BDD     O219414   9.454   4.577   5.250 -0.0868 -0.3623  0.0885
   17BDD     C719415   9.713   4.740   5.461 -0.1585  0.0201 -0.1163
   17BDD     C819416   9.646   4.687   5.344 -0.1400 -0.1483 -0.0513
   17BDD     C919417   9.717   4.702   5.228 -0.1597 -0.2353 -0.0752
   17BDD     S219418   9.874   4.784   5.258 -0.2035 -0.1122 -0.1810
   17BDD    C1019419   9.835   4.795   5.433 -0.1922  0.0592 -0.1889
   17BDD    C1119420   9.950   4.846   5.514  0.2942 -0.3001  0.4368
   17BDD    C1219421   9.976   4.994   5.530  0.2110 -0.7674  0.1124
   17BDD    C1319422  10.089   5.034   5.624 -0.4122 -0.2267 -0.2352
   17BDD    C1419423  10.070   4.995   5.771  0.3393 -0.2350 -0.3568
   17BDD    C1519424  10.189   5.018   5.869 -0.4714  0.9802  0.2825
   17BDD    C1619425  10.145   4.974   6.008 -0.1785  0.0796 -0.0087
   17BDD    C1719426  10.004   5.066   5.390  0.3130 -0.0231  0.1468
   17BDD    C1819427  10.030   5.217   5.394 -0.1374 -0.0072  0.1353
   17BDD    C1919428   9.711   4.650   5.087  0.7592 -0.6225  0.2741
   17BDD    C2019429   9.621   4.734   4.989  0.0874  0.1169 -0.6503
   17BDD    C2119430   9.654   4.885   4.962 -0.3585 -0.3240 -0.1959
   17BDD    C2219431   9.774   4.930   4.879  0.2505 -0.4651  0.4920
   17BDD    C2319432   9.780   4.887   4.733  0.0834  0.3054  0.5741
   17BDD    C2419433   9.903   4.930   4.658 -0.5496 -0.3609  0.0236
   17BDD    C2519434   9.569   4.651   4.868 -0.2075  0.1668 -0.2712
   17BDD    C2619435   9.451   4.697   4.789  0.1025 -0.1016 -0.3935
   18TPM     C119436   9.217   4.505   5.437  0.1579 -0.0023 -0.0745
   18TPM     C219437   9.111   4.451   5.503  0.3166  0.1684  0.3290
   18TPM     C319438   9.009   4.398   5.415  0.0191  0.0956  0.7123
   18TPM     C419439   9.038   4.412   5.283 -0.3661 -0.1306  0.6005
   18TPM     S119440   9.197   4.494   5.258 -0.3831 -0.2703 -0.0018
   19BDTP    C119441   8.675   4.189   4.815  0.0796  0.1928 -0.2441
   19BDTP    C219442   8.799   4.209   4.747  0.1287  0.1448 -0.1681
   19BDTP    C319443   8.913   4.257   4.811  0.1109  0.0923 -0.0962
   19BDTP    C419444   8.904   4.288   4.948  0.0420  0.0864 -0.0995
   19BDTP    C519445   8.780   4.269   5.015 -0.0074  0.1345 -0.1757
   19BDTP    C619446   8.666   4.220   4.951  0.0099  0.1869 -0.2475
   19BDTP    C719447   9.007   4.340   5.035  0.0112  0.0363 -0.0334
   19BDTP    C819448   8.968   4.360   5.163 -0.0577  0.0441 -0.0557
   19BDTP    S119449   8.794   4.316   5.191 -0.0937  0.1161 -0.1638
   19BDTP    C919450   8.572   4.138   4.728  0.1097  0.2428 -0.3103
   19BDTP   C1019451   8.611   4.118   4.600  0.1786  0.2351 -0.2880
   19BDTP    S219452   8.786   4.161   4.571  0.2147  0.1632 -0.1799
   20FTM     S119453   9.137   4.132   4.683 -0.0308  0.1693  0.3524
   20FTM     C119454   9.258   4.244   4.609 -0.3365  0.2660 -0.0086
   20FTM     C219455   9.219   4.373   4.627 -0.6852  0.2208 -0.4181
   20FTM     C319456   9.095   4.392   4.697 -0.7353  0.1109 -0.4750
   20FTM     C419457   9.038   4.274   4.734 -0.4139  0.0705 -0.0965
   20FTM     F119458   9.292   4.481   4.581 -0.9804  0.2764 -0.7660
   20FTM     C519459   9.385   4.174   4.550  0.4177 -0.7039 -0.3061
   20FTM     C619460   9.529   4.238   4.558  0.1508 -0.0276  0.5290
   20FTM     C719461   9.614   4.152   4.462 -0.1864  0.1790  0.1941
   20FTM     C819462   9.621   4.186   4.314 -0.0407 -0.0703  0.0462
   20FTM     C919463   9.716   4.105   4.226 -0.3377  0.2250 -0.1051
   20FTM    C1019464   9.793   4.192   4.130 -0.0874  0.0253  0.8073
   20FTM    C1119465   9.579   4.282   4.698  0.7291 -0.2035  0.0868
   20FTM    C1219466   9.725   4.323   4.700 -0.0047  0.2192 -0.5317
   21FTM     S119467   8.381   4.249   4.976  0.2253  0.2609  0.1756
   21FTM     C119468   8.308   4.176   5.123  0.0980  0.0017 -0.0146
   21FTM     C219469   8.406   4.121   5.201  0.0215 -0.2180 -0.0713
   21FTM     C319470   8.540   4.133   5.151  0.0563 -0.1988  0.0274
   21FTM     C419471   8.545   4.199   5.032  0.1633  0.0438  0.1642
   21FTM     F119472   8.380   4.057   5.321 -0.0851 -0.4498 -0.2156
   21FTM     C519473   8.155   4.171   5.127 -0.6058  0.6012  0.0573
   21FTM     C619474   8.067   4.248   5.227 -0.9036 -0.2581 -0.0333
   21FTM     C719475   8.055   4.396   5.192 -0.1445  0.3060 -0.4249
   21FTM     C819476   7.978   4.442   5.071 -0.6178 -0.0735 -0.5658
   21FTM     C919477   7.825   4.429   5.066 -0.1785  0.1675  0.1238
   21FTM    C1019478   7.781   4.463   4.920  0.0805  0.2665 -0.5773
   21FTM    C1119479   8.106   4.218   5.373 -0.0375  0.7721  0.4291
   21FTM    C1219480   8.023   4.271   5.489 -0.4841 -0.0018 -0.1746
   22TPM     C119481   8.534   4.069   4.486  0.2162 -0.0553  0.1139
   22TPM     C219482   8.401   4.040   4.488  0.2160 -0.0498  0.2019
   22TPM     C319483   8.350   3.994   4.361  0.0992  0.0947  0.1957
   22TPM     C419484   8.444   3.987   4.263  0.0103  0.1991  0.1029
   22TPM     S119485   8.606   4.040   4.323  0.0675  0.1229  0.0155
   23BDD     C119486   8.411   4.093   3.888 -0.0502 -0.0443  0.2589
   23BDD     C219487   8.349   3.972   3.895  0.0017 -0.0745  0.2028
   23BDD     C319488   8.345   3.916   4.030  0.0811 -0.1677  0.1667
   23BDD     C419489   8.406   3.997   4.123  0.0882 -0.2071  0.1956
   23BDD     S119490   8.470   4.147   4.049 -0.0033 -0.1303  0.2705
   23BDD     C519491   8.290   3.902   3.779 -0.0198 -0.0190  0.1802
   23BDD     C619492   8.283   3.786   4.061  0.1466 -0.2141  0.1043
   23BDD     O119493   8.280   3.739   4.177  0.2151 -0.2943  0.0731
   23BDD     O219494   8.292   3.950   3.664 -0.0882  0.0614  0.2114
   23BDD     C719495   8.224   3.717   3.945  0.1249 -0.1584  0.0818
   23BDD     C819496   8.227   3.772   3.810  0.0458 -0.0653  0.1180
   23BDD     C919497   8.167   3.692   3.717  0.0381 -0.0260  0.0889
   23BDD     S219498   8.102   3.542   3.791  0.1301 -0.1027  0.0140
   23BDD    C1019499   8.161   3.595   3.952  0.1769 -0.1886  0.0256
   23BDD    C1119500   8.108   3.519   4.073  0.5778  0.5685  0.7935
   23BDD    C1219501   8.100   3.363   4.065  0.0244  0.3085 -0.3330
   23BDD    C1319502   8.231   3.297   4.020  0.5404  0.4945  0.8991
   23BDD    C1419503   8.247   3.142   4.025 -0.0646  0.1460 -0.1300
   23BDD    C1519504   8.156   3.040   3.959 -0.3850 -0.6988  0.1406
   23BDD    C1619505   8.215   2.901   3.966  0.0767 -0.5335  0.6875
   23BDD    C1719506   8.031   3.300   4.183 -0.2300  0.7308 -0.5519
   23BDD    C1819507   7.897   3.350   4.233  0.6662  0.1579  0.4099
   23BDD    C1919508   8.150   3.710   3.564  0.3978  0.6568  0.1378
   23BDD    C2019509   8.002   3.741   3.524  0.1510 -0.2799  0.6092
   23BDD    C2119510   7.899   3.629   3.549  0.2686  0.0873  0.1326
   23BDD    C2219511   7.773   3.639   3.465 -0.8144  0.5112  0.4599
   23BDD    C2319512   7.790   3.647   3.314  0.3056  0.1103 -0.0105
   23BDD    C2419513   7.665   3.684   3.232  0.1062  0.4273 -0.1093
   23BDD    C2519514   7.959   3.880   3.578 -0.5563  0.5296  0.6490
   23BDD    C2619515   8.031   4.007   3.529  0.8961  0.7147  0.4201
   24TPM     C119516   8.439   4.192   3.785  0.4036 -0.1996  0.2155
   24TPM     C219517   8.367   4.205   3.670  0.2255 -0.0039  0.3483
   24TPM     C319518   8.410   4.315   3.587  0.1364  0.1001  0.4389
   24TPM     C419519   8.515   4.385   3.639  0.2467 -0.0163  0.3752
   24TPM     S119520   8.568   4.317   3.798  0.4731 -0.2684  0.1943
   25BDTP    C119521   8.816   4.831   3.314 -0.1144  0.4188  0.2282
   25BDTP    C219522   8.883   4.832   3.440  0.0312  0.2437  0.1540
   25BDTP    C319523   8.850   4.746   3.544  0.1040  0.1477  0.0980
   25BDTP    C419524   8.746   4.654   3.523  0.0293  0.2277  0.1157
   25BDTP    C519525   8.679   4.652   3.397 -0.1168  0.4027  0.1898
   25BDTP    C619526   8.712   4.738   3.293 -0.1893  0.4988  0.2459
   25BDTP    C719527   8.694   4.555   3.615  0.0816  0.1544  0.0670
   25BDTP    C819528   8.593   4.481   3.565 -0.0165  0.2645  0.1006
   25BDTP    S119529   8.549   4.525   3.394 -0.1895  0.4766  0.1985
   25BDTP    C919530   8.868   4.929   3.222 -0.1671  0.4921  0.2770
   25BDTP   C1019531   8.970   5.004   3.272 -0.0689  0.3821  0.2434
   25BDTP    S219532   9.013   4.960   3.443  0.1040  0.1699  0.1453
   26FTM     S119533   8.838   4.742   3.826  0.0149  0.0763  0.0464
   26FTM     C119534   8.994   4.716   3.912 -0.1785 -0.6052  0.2054
   26FTM     C219535   9.096   4.710   3.823 -0.1042 -1.0064  0.3123
   26FTM     C319536   9.060   4.725   3.685  0.1025 -0.8132  0.2781
   26FTM     C419537   8.926   4.743   3.668  0.1894 -0.2453  0.1403
   26FTM     F119538   9.228   4.691   3.860 -0.2189 -1.5725  0.4476
   26FTM     C519539   9.002   4.701   4.058 -0.3651  0.1446 -0.2915
   26FTM     C619540   9.035   4.571   4.134 -0.0583  0.0296 -0.1585
   26FTM     C719541   9.098   4.598   4.276 -0.3154 -0.6021 -0.3672
   26FTM     C819542   9.227   4.676   4.292  0.5571  0.0530  0.3923
   26FTM     C919543   9.340   4.666   4.197  0.2652 -0.2338  0.0339
   26FTM    C1019544   9.386   4.525   4.160  0.3542 -0.2428 -1.2215
   26FTM    C1119545   8.916   4.475   4.125 -0.5686  0.4409  0.3085
   26FTM    C1219546   8.953   4.343   4.186 -0.3504  0.1346  0.0734
   27FTM     S119547   8.614   4.559   3.090  0.0298  0.0479 -0.0318
   27FTM     C119548   8.536   4.638   2.947 -0.1770  0.1782  0.1510
   27FTM     C219549   8.547   4.773   2.958  0.1295  0.1591  0.0973
   27FTM     C319550   8.615   4.822   3.074  0.5338  0.0448 -0.0846
   27FTM     C419551   8.657   4.722   3.156  0.5372 -0.0259 -0.1734
   27FTM     F119552   8.497   4.860   2.862  0.0620  0.2441  0.2100
   27FTM     C519553   8.456   4.555   2.852 -0.7188  0.0223  0.3930
   27FTM     C619554   8.434   4.590   2.705 -0.4918  0.7486 -0.4694
   27FTM     C719555   8.321   4.698   2.673 -0.4284  0.6405 -0.0094
   27FTM     C819556   8.187   4.665   2.728 -0.1152  0.2166 -0.6096
   27FTM     C919557   8.081   4.770   2.716  0.5782  0.1046 -0.3372
   27FTM    C1019558   7.948   4.717   2.770 -0.1348  0.0057 -0.2715
   27FTM    C1119559   8.556   4.595   2.619 -0.5164 -0.0150 -0.0126
   27FTM    C1219560   8.539   4.581   2.469  0.0797  0.0110 -0.3061
   28TPM     C119561   9.044   5.106   3.194 -0.1449  0.2473 -0.5951
   28TPM     C219562   9.045   5.140   3.062  0.6242 -0.0123 -0.6664
   28TPM     C319563   9.129   5.252   3.031  1.1344 -0.3355 -0.4719
   28TPM     C419564   9.193   5.304   3.140  0.7547 -0.3217 -0.2524
   28TPM     S119565   9.151   5.215   3.291 -0.2849  0.1031 -0.2744
   29BDD     C119566   9.533   5.496   3.154 -0.1363 -0.0590  0.1566
   29BDD     C219567   9.457   5.569   3.067 -0.1225 -0.0368  0.1634
   29BDD     C319568   9.322   5.517   3.050 -0.1173 -0.0374  0.1227
   29BDD     C419569   9.298   5.405   3.125 -0.1270 -0.0603  0.0855
   29BDD     S119570   9.442   5.357   3.220 -0.1431 -0.0821  0.0988
   29BDD     C519571   9.504   5.690   2.996 -0.1137 -0.0144  0.2075
   29BDD     C619572   9.222   5.580   2.962 -0.1032 -0.0159  0.1222
   29BDD     O119573   9.106   5.535   2.947 -0.0987 -0.0165  0.0871
   29BDD     O219574   9.620   5.735   3.011 -0.1180 -0.0138  0.2427
   29BDD     C719575   9.270   5.701   2.891 -0.0947  0.0067  0.1663
   29BDD     C819576   9.404   5.753   2.908 -0.0997  0.0074  0.2070
   29BDD     C919577   9.429   5.866   2.834 -0.0901  0.0299  0.2442
   29BDD     S219578   9.285   5.914   2.738 -0.0742  0.0518  0.2308
   29BDD    C1019579   9.194   5.774   2.805 -0.0813  0.0287  0.1730
   29BDD    C1119580   9.048   5.768   2.759 -0.0777  0.1630 -0.4148
   29BDD    C1219581   9.005   5.671   2.649  0.0020 -0.7981 -0.0541
   29BDD    C1319582   9.088   5.658   2.517 -0.0429  0.0687 -1.1231
   29BDD    C1419583   9.060   5.553   2.414 -0.4003  0.2605  0.7038
   29BDD    C1519584   9.048   5.405   2.458  0.0672  0.1383 -0.0302
   29BDD    C1619585   8.972   5.329   2.352  0.5510  0.5303  0.1039
   29BDD    C1719586   8.856   5.690   2.619  0.3391 -0.0559  0.0594
   29BDD    C1819587   8.815   5.807   2.537  0.1982 -0.2344  0.4982
   29BDD    C1919588   9.542   5.957   2.816 -0.8566 -0.1905 -0.3889
   29BDD    C2019589   9.527   6.097   2.873 -0.0176  0.0431 -1.1157
   29BDD    C2119590   9.626   6.208   2.829  0.3225  0.5231 -0.2895
   29BDD    C2219591   9.648   6.245   2.684  0.4009  0.5708  0.1375
   29BDD    C2319592   9.543   6.330   2.609  0.0906  0.2075 -0.2358
   29BDD    C2419593   9.509   6.476   2.655  0.0865 -0.1032  0.3293
   29BDD    C2519594   9.494   6.100   3.028 -0.1091 -0.4009  0.0013
   29BDD    C2619595   9.608   6.076   3.137  0.4021 -0.3553  0.1390
   30TPM     C119596   9.663   5.511   3.221  0.2095  0.2230 -0.2654
   30TPM     C219597   9.778   5.541   3.154  0.2316  0.2385 -0.2206
   30TPM     C319598   9.898   5.519   3.231  0.1946  0.4599 -0.0985
   30TPM     C419599   9.874   5.472   3.357  0.1442  0.6134 -0.0502
   30TPM     S119600   9.698   5.452   3.388  0.1396  0.4891 -0.1560
   31BDTP    C119601  10.223   5.341   3.863 -0.0380 -0.1575 -0.1615
   31BDTP    C219602  10.317   5.405   3.778 -0.1007 -0.0228 -0.1295
   31BDTP    C319603  10.285   5.451   3.651 -0.1514  0.0303 -0.0979
   31BDTP    C419604  10.154   5.432   3.606 -0.1398 -0.0533 -0.0974
   31BDTP    C519605  10.059   5.368   3.690 -0.0771 -0.1880 -0.1292
   31BDTP    C619606  10.091   5.322   3.818 -0.0264 -0.2412 -0.1611
   31BDTP    C719607  10.097   5.471   3.478 -0.1847 -0.0206 -0.0677
   31BDTP    C819608   9.966   5.439   3.463 -0.1590 -0.1233 -0.0756
   31BDTP    S119609   9.896   5.355   3.609 -0.0744 -0.2753 -0.1219
   31BDTP    C919610  10.279   5.302   3.991  0.0069 -0.1900 -0.1913
   31BDTP   C1019611  10.410   5.334   4.006 -0.0188 -0.0876 -0.1832
   31BDTP    S219612  10.480   5.417   3.860 -0.1034  0.0645 -0.1370
   32FTM     S119613  10.394   5.662   3.489  0.0971  0.0793 -0.0244
   32FTM     C119614  10.558   5.631   3.422 -0.0496  0.0423 -0.3734
   32FTM     C219615  10.600   5.506   3.456 -0.0791 -0.0339 -0.6152
   32FTM     C319616  10.508   5.428   3.534  0.0084 -0.0675 -0.5456
   32FTM     C419617  10.393   5.496   3.561  0.1082 -0.0151 -0.2403
   32FTM     F119618  10.723   5.455   3.418 -0.1872 -0.0778 -0.9141
   32FTM     C519619  10.628   5.734   3.347 -0.0149  0.4449  0.0630
   32FTM     C619620  10.556   5.817   3.240  0.8440  0.7745  0.6839
   32FTM     C719621  10.642   5.929   3.183  0.1631  0.3006  0.0434
   32FTM     C819622  10.684   6.033   3.286 -0.0621 -1.1727 -0.2696
   32FTM     C919623  10.583   6.093   3.392  0.1964  0.7362  0.5149
   32FTM    C1019624  10.446   6.134   3.335 -0.3986 -0.0210 -0.4574
   32FTM    C1119625  10.484   5.729   3.130 -0.2718  0.1534 -0.2486
   32FTM    C1219626  10.389   5.778   3.020 -0.0034  0.2366 -0.0209
   33FTM     S119627   9.973   5.264   4.076  0.0566  0.0552  0.3982
   33FTM     C119628   9.830   5.154   4.074  0.1983 -0.1309  0.3734
   33FTM     C219629   9.805   5.113   3.947  0.0616  0.1178  0.3183
   33FTM     C319630   9.893   5.163   3.846 -0.1565  0.4599  0.2928
   33FTM     C419631   9.989   5.245   3.897 -0.1877  0.4737  0.3295
   33FTM     F119632   9.700   5.028   3.915  0.1257  0.0501  0.2877
   33FTM     C519633   9.756   5.130   4.203 -0.0009 -0.4811  0.1416
   33FTM     C619634   9.623   5.064   4.226  0.0184  0.1481  0.4708
   33FTM     C719635   9.635   4.910   4.196 -0.1521 -0.2220 -0.1136
   33FTM     C819636   9.730   4.824   4.285  0.6140 -0.1461  0.6011
   33FTM     C919637   9.694   4.679   4.294  0.3006 -0.3847  0.3599
   33FTM    C1019638   9.798   4.582   4.346 -0.2379  0.1189  0.1596
   33FTM    C1119639   9.506   5.128   4.149  0.6587  0.3959 -0.4763
   33FTM    C1219640   9.369   5.074   4.175  0.3152  0.6621 -0.3798
   34TPM     C119641  10.505   5.312   4.107 -0.2434 -0.0786  0.0173
   34TPM     C219642  10.485   5.314   4.242 -0.1023  0.6649  0.0319
   34TPM     C319643  10.606   5.304   4.319 -0.0385  0.8942 -0.0359
   34TPM     C419644  10.719   5.293   4.244 -0.1309  0.3252 -0.1023
   34TPM     S119645  10.681   5.296   4.067 -0.3070 -0.5510 -0.0843
   35BDD     C119646  11.090   5.404   4.313  0.0128  0.1468  0.0284
   35BDD     C219647  11.056   5.326   4.420  0.0610  0.0980  0.0088
   35BDD     C319648  10.921   5.272   4.412  0.1354 -0.0790 -0.0600
   35BDD     C419649  10.855   5.310   4.298  0.1427 -0.1628 -0.0919
   35BDD     S119650  10.956   5.414   4.194  0.0571 -0.0256 -0.0380
   35BDD     C519651  11.145   5.299   4.534  0.0406  0.2126  0.0526
   35BDD     C619652  10.863   5.186   4.517  0.1964 -0.1585 -0.0916
   35BDD     O119653  10.747   5.140   4.510  0.2605 -0.3111 -0.1509
   35BDD     O219654  11.262   5.345   4.541 -0.0235  0.3653  0.1121
   35BDD     C719655  10.953   5.159   4.631  0.1759 -0.0441 -0.0478
   35BDD     C819656  11.088   5.212   4.639  0.1016  0.1329  0.0210
   35BDD     C919657  11.154   5.175   4.753  0.0943  0.2167  0.0528
   35BDD     S219658  11.053   5.070   4.857  0.1799  0.0795 -0.0011
   35BDD    C1019659  10.919   5.081   4.738  0.2242 -0.0927 -0.0675
   35BDD    C1119660  10.785   5.030   4.786  0.5270 -0.4214 -0.0228
   35BDD    C1219661  10.755   4.879   4.757 -0.1456 -0.0608  0.6506
   35BDD    C1319662  10.616   4.837   4.810  0.1219  0.6104  0.1225
   35BDD    C1419663  10.492   4.917   4.757 -0.2403  0.2095  0.8926
   35BDD    C1519664  10.485   4.901   4.602 -0.4621 -0.0448  0.0272
   35BDD    C1619665  10.423   5.015   4.530  0.1167 -0.0314  0.1562
   35BDD    C1719666  10.867   4.783   4.791  0.2594  0.0458 -0.1540
   35BDD    C1819667  10.857   4.633   4.755  0.3301  0.0655  0.1209
   35BDD    C1919668  11.282   5.223   4.821 -1.1379  0.1287  0.2629
   35BDD    C2019669  11.416   5.148   4.791 -0.0673 -0.3958 -0.0643
   35BDD    C2119670  11.544   5.190   4.867  0.1969 -0.2418  0.0128
   35BDD    C2219671  11.563   5.337   4.906 -0.0774 -0.3262 -0.1936
   35BDD    C2319672  11.675   5.357   5.008 -0.4084 -0.7020  0.3720
   35BDD    C2419673  11.667   5.498   5.058  0.3585  0.7694 -0.0965
   35BDD    C2519674  11.410   4.996   4.755 -1.2861 -0.0936  0.4172
   35BDD    C2619675  11.408   4.890   4.861  0.0361  0.4215  0.6230
   36TPM     C119676  11.207   5.478   4.265  0.2624 -0.0814  0.3196
   36TPM     C219677  11.335   5.456   4.305  0.4083  0.0197 -0.0761
   36TPM     C319678  11.433   5.533   4.233  0.1134  0.2137 -0.2747
   36TPM     C419679  11.380   5.615   4.138 -0.2574  0.2605 -0.0307
   36TPM     S119680  11.200   5.600   4.132 -0.2629  0.0619  0.4731
   37BDTP    C119681  11.757   5.962   3.773 -0.0798 -0.0610  0.0693
   37BDTP    C219682  11.635   5.964   3.700 -0.0796 -0.0198  0.0702
   37BDTP    C319683  11.519   5.903   3.746 -0.1206  0.0868  0.1080
   37BDTP    C419684  11.523   5.837   3.870 -0.1640  0.1560  0.1468
   37BDTP    C519685  11.646   5.834   3.943 -0.1642  0.1148  0.1460
   37BDTP    C619686  11.762   5.895   3.897 -0.1233  0.0082  0.1082
   37BDTP    C719687  11.416   5.767   3.938 -0.2110  0.2693  0.1899
   37BDTP    C819688  11.452   5.713   4.057 -0.2461  0.3145  0.2210
   37BDTP    S119689  11.626   5.743   4.100 -0.2246  0.2199  0.2002
   37BDTP    C919690  11.864   6.032   3.705 -0.0329 -0.1743  0.0263
   37BDTP   C1019691  11.829   6.086   3.586  0.0022 -0.2195 -0.0048
   37BDTP    S219692  11.654   6.056   3.544 -0.0193 -0.1249  0.0160
   38FTM     S119693  11.294   5.746   3.634  0.0494 -0.2746  0.0351
   38FTM     C119694  11.168   5.842   3.547  0.0643 -0.0031  0.3095
   38FTM     C219695  11.203   5.973   3.545  0.2207 -0.0412  0.4500
   38FTM     C319696  11.326   6.007   3.609  0.3357 -0.2784  0.3550
   38FTM     C419697  11.389   5.898   3.662  0.2650 -0.4266  0.1347
   38FTM     F119698  11.124   6.071   3.485  0.2689  0.1360  0.6729
   38FTM     C519699  11.045   5.783   3.482 -0.7965  0.2801 -0.6665
   38FTM     C619700  11.014   5.632   3.500  0.8808  0.4593  0.1873
   38FTM     C719701  10.962   5.595   3.645 -0.3778  0.1917  0.4411
   38FTM     C819702  10.847   5.685   3.693 -0.2449 -0.0012  0.0983
   38FTM     C919703  10.786   5.642   3.824  0.3139 -0.9805  0.0345
   38FTM    C1019704  10.658   5.719   3.867 -0.0794 -0.2657 -0.1748
   38FTM    C1119705  11.114   5.525   3.446 -0.1458 -0.0838  0.2182
   38FTM    C1219706  11.162   5.532   3.296  0.7594 -0.3014 -0.2484
   39FTM     S119707  11.894   5.973   4.135 -0.1060 -0.3259  0.1529
   39FTM     C119708  12.048   5.887   4.172  0.0181 -0.1110  0.1399
   39FTM     C219709  12.085   5.810   4.066  0.3540  0.2846 -0.0368
   39FTM     C319710  11.998   5.814   3.952  0.5310  0.4411 -0.1693
   39FTM     C419711  11.891   5.896   3.972  0.3239  0.1560 -0.0917
   39FTM     F119712  12.200   5.732   4.065  0.5210  0.5286 -0.0888
   39FTM     C519713  12.120   5.908   4.306  0.3940  0.0961  0.3075
   39FTM     C619714  12.237   6.009   4.315 -0.3326  0.2152 -0.2964
   39FTM     C719715  12.186   6.151   4.295  0.2498  0.3688 -0.1138
   39FTM     C819716  12.107   6.205   4.415 -0.7368  0.1854 -0.5149
   39FTM     C919717  12.048   6.346   4.409  0.3971 -0.0456  0.4557
   39FTM    C1019718  12.143   6.461   4.365  0.7684 -0.1037  0.3743
   39FTM    C1119719  12.351   5.975   4.222 -0.2218 -0.0490  0.5701
   39FTM    C1219720  12.473   6.062   4.244 -0.3778  0.9152 -0.0451
   40TPM     C119721  11.904   6.169   3.492  0.2580  0.0405 -0.0457
   40TPM     C219722  12.012   6.251   3.506  0.0935  0.2701 -0.1137
   40TPM     C319723  12.061   6.304   3.381 -0.1283  0.4170 -0.1400
   40TPM     C419724  11.990   6.262   3.272 -0.1329  0.2994 -0.0917
   40TPM     S119725  11.855   6.152   3.320  0.1447 -0.0084 -0.0090
   41BDD     C119726  11.929   6.435   2.926 -0.0042 -0.1261  0.3208
   41BDD     C219727  12.064   6.442   2.946  0.0150 -0.1664  0.2075
   41BDD     C319728  12.108   6.374   3.067  0.1112 -0.2824  0.1087
   41BDD     C419729  12.006   6.317   3.137  0.1640 -0.3285  0.1480
   41BDD     S119730  11.847   6.344   3.057  0.0969 -0.2301  0.3116
   41BDD     C519731  12.158   6.510   2.855 -0.0544 -0.1001  0.1858
   41BDD     C619732  12.250   6.369   3.109  0.1471 -0.3431 -0.0213
   41BDD     O119733  12.288   6.311   3.213  0.2301 -0.4429 -0.1066
   41BDD     O219734  12.120   6.569   2.751 -0.1374 -0.0002  0.2710
   41BDD     C719735  12.344   6.438   3.017  0.0777 -0.2767 -0.0430
   41BDD     C819736  12.300   6.505   2.896 -0.0185 -0.1608  0.0558
   41BDD     C919737  12.402   6.563   2.826 -0.0712 -0.1144  0.0165
   41BDD     S219738  12.560   6.536   2.906 -0.0042 -0.2130 -0.1470
   41BDD    C1019739  12.479   6.445   3.037  0.0969 -0.3170 -0.1563
   41BDD    C1119740  12.569   6.371   3.134  0.6002 -0.2791 -0.2466
   41BDD    C1219741  12.662   6.257   3.077  0.0724  0.4749  0.2657
   41BDD    C1319742  12.588   6.149   2.990  0.0889  0.1282  0.0619
   41BDD    C1419743  12.649   6.038   2.910  0.2712  0.0394  0.5325
   41BDD    C1519744  12.716   6.072   2.773  0.6811  0.4486  0.4207
   41BDD    C1619745  12.852   6.129   2.777 -0.0423  0.4273 -0.0875
   41BDD    C1719746  12.745   6.187   3.184  0.0773 -0.0052  0.0164
   41BDD    C1819747  12.678   6.104   3.296 -0.4007  0.0838  0.5730
   41BDD    C1919748  12.418   6.631   2.694 -0.5502  0.5156  0.4283
   41BDD    C2019749  12.488   6.537   2.588 -0.4808  0.2649  0.0719
   41BDD    C2119750  12.433   6.394   2.575 -0.1570 -0.2734  0.0230
   41BDD    C2219751  12.500   6.294   2.472  0.0834 -0.0365  0.2644
   41BDD    C2319752  12.443   6.159   2.456 -0.1135  0.3866  0.4385
   41BDD    C2419753  12.505   6.082   2.338  0.0970  0.1661 -0.1993
   41BDD    C2519754  12.518   6.609   2.453  0.3083 -0.3649 -0.4216
   41BDD    C2619755  12.606   6.735   2.465  0.4118  0.8134 -0.0946
   42TPM     C119756  11.831   6.499   2.832 -0.1046 -0.0088  0.3280
   42TPM     C219757  11.835   6.457   2.702 -0.2698 -0.3407  0.4273
   42TPM     C319758  11.713   6.482   2.629 -0.3521 -0.5002  0.5081
   42TPM     C419759  11.616   6.543   2.703 -0.2495 -0.2898  0.4704
   42TPM     S119760  11.672   6.574   2.872 -0.0396  0.1292  0.3287
   43BDTP    C119761  11.011   6.636   2.545 -0.0058  0.1053 -0.0053
   43BDTP    C219762  11.069   6.596   2.421 -0.0353  0.1847 -0.0446
   43BDTP    C319763  11.203   6.564   2.408 -0.0373  0.1978 -0.0984
   43BDTP    C419764  11.285   6.571   2.522 -0.0089  0.1293 -0.1143
   43BDTP    C519765  11.227   6.611   2.646  0.0206  0.0499 -0.0750
   43BDTP    C619766  11.093   6.643   2.660  0.0226  0.0369 -0.0212
   43BDTP    C719767  11.426   6.542   2.533 -0.0051  0.1279 -0.1676
   43BDTP    C819768  11.477   6.558   2.658  0.0255  0.0520 -0.1703
   43BDTP    S119769  11.352   6.612   2.779  0.0537 -0.0279 -0.1055
   43BDTP    C919770  10.870   6.665   2.534 -0.0096  0.1069  0.0482
   43BDTP   C1019771  10.819   6.649   2.410 -0.0402  0.1826  0.0507
   43BDTP    S219772  10.943   6.595   2.288 -0.0684  0.2627 -0.0141
   44FTM     S119773  11.355   6.369   2.274  0.1489  0.1021  0.0743
   44FTM     C119774  11.368   6.381   2.095  0.3513  0.1617  0.0918
   44FTM     C219775  11.301   6.491   2.052  0.6919  0.3679  0.0845
   44FTM     C319776  11.238   6.571   2.152  0.8134  0.4894  0.0653
   44FTM     C419777  11.257   6.520   2.277  0.5574  0.3721  0.0576
   44FTM     F119778  11.293   6.527   1.918  0.9140  0.4590  0.0947
   44FTM     C519779  11.448   6.284   2.012  0.3248 -0.1204  0.3091
   44FTM     C619780  11.588   6.321   1.967 -0.1393  0.6996  0.9073
   44FTM     C719781  11.650   6.215   1.863 -0.0006 -0.2826  0.3745
   44FTM     C819782  11.583   6.197   1.721  0.0462  0.5568 -0.2940
   44FTM     C919783  11.574   6.321   1.637  1.0136  0.1194 -0.4258
   44FTM    C1019784  11.506   6.295   1.500  0.5079  0.2123  0.1963
   44FTM    C1119785  11.685   6.392   2.060 -0.3149 -0.4712  0.5175
   44FTM    C1219786  11.740   6.300   2.167 -0.4644 -0.2959 -0.4464
   45FTM     S119787  11.106   6.842   2.863 -0.1577  0.2050 -0.0260
   45FTM     C119788  10.997   6.819   3.005  0.3808 -0.1244  0.3418
   45FTM     C219789  10.920   6.708   2.986  0.4541 -0.1992  0.4762
   45FTM     C319790  10.940   6.637   2.864  0.1045 -0.0098  0.3055
   45FTM     C419791  11.036   6.694   2.786 -0.2481  0.2180  0.0314
   45FTM     F119792  10.826   6.666   3.079  0.8422 -0.4441  0.7618
   45FTM     C519793  11.002   6.908   3.122 -0.0853 -0.3093  0.3045
   45FTM     C619794  10.921   7.043   3.133 -0.1681 -0.5964 -0.0397
   45FTM     C719795  10.978   7.165   3.051 -0.3461 -0.6885 -0.1398
   45FTM     C819796  11.111   7.234   3.106 -0.0027  0.2828 -0.1192
   45FTM     C919797  11.177   7.337   3.022  0.1946 -0.4545 -0.5227
   45FTM    C1019798  11.282   7.420   3.093 -0.9295 -0.1183 -0.6397
   45FTM    C1119799  10.775   7.026   3.097 -0.8226 -0.3408 -0.1189
   45FTM    C1219800  10.688   6.940   3.188  0.7638 -0.2780  0.3234
   46TPM     C119801  10.681   6.666   2.370  0.1619 -0.3023  0.0205
   46TPM     C219802  10.572   6.640   2.448  0.1419 -0.4873 -0.0684
   46TPM     C319803  10.447   6.655   2.379  0.1666 -0.5416 -0.1255
   46TPM     C419804  10.460   6.693   2.249  0.2054 -0.3978 -0.0802
   46TPM     S119805  10.633   6.712   2.203  0.2137 -0.1812  0.0390
   47BDD     C119806  10.097   6.702   2.100  0.0917 -0.2726 -0.2749
   47BDD     C219807  10.166   6.796   2.030  0.0965 -0.2015 -0.1737
   47BDD     C319808  10.306   6.807   2.070  0.0335 -0.0713  0.0167
   47BDD     C419809  10.341   6.720   2.169 -0.0183 -0.0450  0.0580
   47BDD     S119810  10.202   6.619   2.220  0.0081 -0.1816 -0.1386
   47BDD     C519811  10.107   6.881   1.925  0.1591 -0.2506 -0.2485
   47BDD     C619812  10.399   6.903   2.007  0.0271  0.0226  0.1508
   47BDD     O119813  10.519   6.912   2.041 -0.0271  0.1349  0.3150
   47BDD     O219814   9.987   6.872   1.890  0.2133 -0.3630 -0.4127
   47BDD     C719815  10.340   6.988   1.902  0.0897 -0.0265  0.0761
   47BDD     C819816  10.200   6.977   1.862  0.1527 -0.1569 -0.1144
   47BDD     C919817  10.166   7.064   1.763  0.2045 -0.1831 -0.1557
   47BDD     S219818  10.305   7.165   1.712  0.1781 -0.0464  0.0410
   47BDD    C1019819  10.409   7.083   1.832  0.0945  0.0447  0.1772
   47BDD    C1119820  10.555   7.122   1.839 -0.2573  0.1907  0.1062
   47BDD    C1219821  10.617   7.238   1.922 -0.9706 -0.5665  0.1273
   47BDD    C1319822  10.777   7.235   1.923  0.2954  0.7322  0.2927
   47BDD    C1419823  10.842   7.105   1.957 -0.0426  0.0112 -0.1627
   47BDD    C1519824  10.841   7.061   2.101 -0.4455 -0.3250  0.6217
   47BDD    C1619825  10.949   6.958   2.122 -0.0101  0.2709 -0.0267
   47BDD    C1719826  10.553   7.371   1.879  0.3257  0.4584 -0.2059
   47BDD    C1819827  10.587   7.488   1.962 -0.4746 -0.3670 -0.3669
   47BDD    C1919828  10.044   7.089   1.677  0.1629 -0.5986 -0.5639
   47BDD    C2019829   9.959   7.215   1.710  0.6584  0.3472  0.1985
   47BDD    C2119830   9.898   7.207   1.851  0.0991 -0.8190  0.1703
   47BDD    C2219831   9.829   7.333   1.902  0.0178 -0.5657 -0.2394
   47BDD    C2319832   9.788   7.334   2.052  0.1221  0.4443  0.2347
   47BDD    C2419833   9.736   7.468   2.090 -0.3594 -1.3116 -0.3260
   47BDD    C2519834   9.852   7.231   1.604  0.6301 -0.2788  0.1006
   47BDD    C2619835   9.900   7.251   1.459  0.3292 -0.1343 -0.8878
   48TPM     C119836   9.955   6.659   2.110 -0.0344  0.0013  0.1900
   48TPM     C219837   9.909   6.605   2.227 -0.1551 -0.3785 -0.0274
   48TPM     C319838   9.766   6.593   2.233 -0.1434 -0.6840 -0.3346
   48TPM     C419839   9.702   6.637   2.121 -0.0138 -0.5372 -0.3515
   48TPM     S119840   9.819   6.698   1.998  0.1044  0.0027  0.0223
   49BDTP    C119841   9.084   6.709   2.048  0.1309  0.0931  0.1754
   49BDTP    C219842   9.130   6.680   1.916  0.0732  0.1037  0.1528
   49BDTP    C319843   9.263   6.653   1.888  0.0494  0.0386  0.1030
   49BDTP    C419844   9.355   6.653   1.994  0.0834 -0.0405  0.0740
   49BDTP    C519845   9.309   6.681   2.126  0.1407 -0.0513  0.0964
   49BDTP    C619846   9.176   6.709   2.154  0.1648  0.0137  0.1463
   49BDTP    C719847   9.498   6.627   1.989  0.0677 -0.1172  0.0216
   49BDTP    C819848   9.560   6.635   2.109  0.1101 -0.1839  0.0040
   49BDTP    S119849   9.447   6.676   2.245  0.1762 -0.1594  0.0512
   49BDTP    C919850   8.942   6.734   2.053  0.1466  0.1695  0.2276
   49BDTP   C1019851   8.879   6.727   1.933  0.1040  0.2365  0.2452
   49BDTP    S219852   8.993   6.686   1.796  0.0383  0.2118  0.1981
   50FTM     S119853   9.401   6.753   1.650  0.1938 -0.0104 -0.1288
   50FTM     C119854   9.417   6.635   1.515 -0.2192 -0.1639 -0.0458
   50FTM     C219855   9.353   6.520   1.547 -0.4206 -0.0044  0.1357
   50FTM     C319856   9.289   6.516   1.675 -0.2692  0.2412  0.2195
   50FTM     C419857   9.305   6.633   1.744  0.0582  0.2704  0.0980
   50FTM     F119858   9.348   6.410   1.462 -0.7534 -0.0712  0.2370
   50FTM     C519859   9.483   6.664   1.380 -0.4421  0.2045 -0.1801
   50FTM     C619860   9.560   6.793   1.346 -0.3454  0.4942  0.0854
   50FTM     C719861   9.685   6.815   1.432  0.3604 -0.9806  0.0932
   50FTM     C819862   9.804   6.728   1.399  0.4149  0.2256  0.3299
   50FTM     C919863   9.938   6.757   1.464  0.7543  0.1010  0.4203
   50FTM    C1019864  10.063   6.722   1.380  0.5506 -0.1208  0.3640
   50FTM    C1119865   9.500   6.934   1.313 -0.3025  0.2715 -0.7854
   50FTM    C1219866   9.393   6.950   1.203  0.1622  0.8639 -0.5306
   51FTM     S119867   9.170   6.632   2.418  0.1342 -0.3070  0.0666
   51FTM     C119868   9.113   6.752   2.540 -0.1016 -0.5380  0.1833
   51FTM     C219869   9.079   6.868   2.479 -0.2539 -0.5168  0.3064
   51FTM     C319870   9.095   6.872   2.336 -0.1984 -0.3244  0.3170
   51FTM     C419871   9.143   6.754   2.287  0.0033 -0.1938  0.1984
   51FTM     F119872   9.031   6.979   2.548 -0.4530 -0.6704  0.4166
   51FTM     C519873   9.081   6.701   2.679 -0.7535 -0.2868  0.2925
   51FTM     C619874   9.094   6.793   2.805  0.4228  0.3851  0.7354
   51FTM     C719875   9.043   6.723   2.933  0.5294  0.2739  0.0307
   51FTM     C819876   8.889   6.730   2.956  0.4960  0.9449 -0.2279
   51FTM     C919877   8.836   6.729   3.100 -0.5171 -0.2695 -0.1804
   51FTM    C1019878   8.683   6.735   3.105 -0.4654 -0.6017  0.6703
   51FTM    C1119879   9.230   6.855   2.833  0.7708  0.3083  0.6409
   51FTM    C1219880   9.349   6.767   2.845  0.2073  0.5470  0.4981
   52TPM     C119881   8.738   6.753   1.894  0.1225  0.5227  0.2018
   52TPM     C219882   8.685   6.784   1.772  0.1128  0.8208  0.2798
   52TPM     C319883   8.543   6.805   1.774  0.0522  0.4209  0.2721
   52TPM     C419884   8.487   6.790   1.897  0.0153 -0.1819  0.1882
   52TPM     S119885   8.610   6.748   2.022  0.0548 -0.2920  0.1118
   53BDD     C119886   8.100   6.753   1.929 -0.1445  0.0215 -0.2550
   53BDD     C219887   8.134   6.865   2.000 -0.1495  0.0267 -0.2605
   53BDD     C319888   8.276   6.894   1.996 -0.1478  0.0217 -0.2449
   53BDD     C419889   8.348   6.804   1.923 -0.1415  0.0130 -0.2278
   53BDD     S119890   8.243   6.676   1.853 -0.1369  0.0101 -0.2299
   53BDD     C519891   8.037   6.949   2.073 -0.1564  0.0364 -0.2803
   53BDD     C619892   8.335   7.011   2.065 -0.1531  0.0259 -0.2477
   53BDD     O119893   8.458   7.036   2.062 -0.1519  0.0216 -0.2342
   53BDD     O219894   7.915   6.924   2.077 -0.1575  0.0407 -0.2937
   53BDD     C719895   8.238   7.095   2.139 -0.1597  0.0354 -0.2675
   53BDD     C819896   8.096   7.065   2.142 -0.1612  0.0404 -0.2831
   53BDD     C919897   8.024   7.155   2.216 -0.1676  0.0492 -0.3002
   53BDD     S219898   8.129   7.283   2.285 -0.1725  0.0520 -0.2981
   53BDD    C1019899   8.273   7.207   2.209 -0.1650  0.0405 -0.2730
   53BDD    C1119900   8.406   7.263   2.244 -0.0707 -0.3843  0.6821
   53BDD    C1219901   8.486   7.316   2.127 -0.4751 -0.4359  0.3426
   53BDD    C1319902   8.629   7.344   2.173 -0.1552 -0.2988  0.0248
   53BDD    C1419903   8.738   7.327   2.065  0.2526  0.1024  0.1423
   53BDD    C1519904   8.757   7.184   2.009  0.2831  0.1951  0.3296
   53BDD    C1619905   8.834   7.090   2.102  0.1958 -0.1948  0.1603
   53BDD    C1719906   8.442   7.436   2.037  0.3423  0.7413  0.1541
   53BDD    C1819907   8.299   7.440   1.970  0.0280  0.3153  0.0877
   53BDD    C1919908   7.880   7.157   2.260  0.3180  0.4703  0.0534
   53BDD    C2019909   7.804   7.291   2.226 -0.2715 -0.3750  0.4069
   53BDD    C2119910   7.672   7.305   2.299 -0.2830 -0.0618 -0.2298
   53BDD    C2219911   7.609   7.440   2.327  0.7315  0.2485  0.1115
   53BDD    C2319912   7.477   7.431   2.403  0.7297  1.0677  0.2477
   53BDD    C2419913   7.407   7.558   2.430  0.1715 -0.2621 -0.2499
   53BDD    C2519914   7.786   7.343   2.083  0.0851 -0.0730 -0.4638
   53BDD    C2619915   7.872   7.291   1.971 -0.1288  0.0144  0.2639
   54TPM     C119916   7.978   6.664   1.921 -0.2003 -0.1264 -0.2828
   54TPM     C219917   7.852   6.713   1.906 -0.2933 -0.3252 -0.1529
   54TPM     C319918   7.756   6.615   1.863 -0.2033 -0.4983  0.0353
   54TPM     C419919   7.809   6.491   1.844 -0.0413 -0.4313  0.0490
   54TPM     S119920   7.986   6.488   1.880  0.0102 -0.1426 -0.1766
   55BDTP    C119921   7.555   5.956   1.635 -0.0273 -0.0659 -0.1039
   55BDTP    C219922   7.692   5.943   1.598 -0.0254 -0.0569 -0.1004
   55BDTP    C319923   7.786   6.042   1.625 -0.0089 -0.1025  0.0095
   55BDTP    C419924   7.743   6.158   1.692  0.0064 -0.1602  0.1213
   55BDTP    C519925   7.606   6.171   1.728  0.0046 -0.1693  0.1178
   55BDTP    C619926   7.512   6.072   1.701 -0.0117 -0.1236  0.0080
   55BDTP    C719927   7.822   6.273   1.730  0.0249 -0.2144  0.2462
   55BDTP    C819928   7.751   6.371   1.793  0.0370 -0.2633  0.3356
   55BDTP    S119929   7.575   6.330   1.812  0.0267 -0.2472  0.2741
   55BDTP    C919930   7.476   5.841   1.596 -0.0455 -0.0116 -0.2288
   55BDTP   C1019931   7.547   5.743   1.533 -0.0576  0.0371 -0.3181
   55BDTP    S219932   7.723   5.784   1.514 -0.0473  0.0213 -0.2566
   56FTM     S119933   8.079   6.067   1.667  0.2028  0.0645  0.0351
   56FTM     C119934   8.181   6.030   1.523 -0.0030 -0.4488  0.0157
   56FTM     C219935   8.102   6.000   1.417 -0.1590 -0.6809  0.1947
   56FTM     C319936   7.961   6.004   1.440 -0.1285 -0.4787  0.3542
   56FTM     C419937   7.931   6.038   1.569  0.0568 -0.0787  0.2953
   56FTM     F119938   8.153   5.967   1.292 -0.3386 -1.0904  0.2249
   56FTM     C519939   8.334   6.019   1.552  0.3871  0.1944  0.8272
   56FTM     C619940   8.402   5.882   1.529  0.4841  0.0102 -0.2685
   56FTM     C719941   8.454   5.849   1.385  0.0108  0.1035 -0.7681
   56FTM     C819942   8.585   5.928   1.352 -0.1766  1.0118  0.0383
   56FTM     C919943   8.669   5.878   1.228  0.5309  0.7298 -0.8735
   56FTM    C1019944   8.598   5.882   1.092 -0.0031 -0.2069  0.3911
   56FTM    C1119945   8.336   5.763   1.606  0.0488  0.0502 -0.2250
   56FTM    C1219946   8.391   5.617   1.588  0.3225  0.2424  0.1819
   57FTM     S119947   7.228   6.050   1.650  0.1831 -0.1897 -0.0821
   57FTM     C119948   7.123   6.076   1.793  0.0042 -0.1450 -0.2208
   57FTM     C219949   7.199   6.102   1.903 -0.1400  0.1268 -0.1819
   57FTM     C319950   7.341   6.103   1.882 -0.1205  0.3127 -0.0453
   57FTM     C419951   7.374   6.077   1.753  0.0437  0.1784  0.0227
   57FTM     F119952   7.145   6.126   2.028 -0.2981  0.2239 -0.2678
   57FTM     C519953   6.971   6.064   1.787 -1.3263  0.3325 -0.0450
   57FTM     C619954   6.888   6.176   1.736  0.6734  0.2155 -0.3446
   57FTM     C719955   6.740   6.136   1.692  0.3779  0.4011  0.0197
   57FTM     C819956   6.717   6.058   1.558 -0.9726 -0.2001 -0.2869
   57FTM     C919957   6.788   6.120   1.440 -0.6499 -0.5486 -0.0213
   57FTM    C1019958   6.724   6.248   1.384 -0.2320  0.1818 -0.6768
   57FTM    C1119959   6.905   6.309   1.807  0.0386 -0.3650  0.6235
   57FTM    C1219960   6.850   6.429   1.726 -0.0187  0.0352 -0.2203
   58TPM     C119961   7.493   5.630   1.465  0.0409  0.0668 -0.6094
   58TPM     C219962   7.364   5.598   1.435  0.1501 -0.1922 -0.8066
   58TPM     C319963   7.349   5.468   1.376  0.4590 -0.3757 -0.4870
   58TPM     C419964   7.467   5.400   1.361  0.5852 -0.2570 -0.0461
   58TPM     S119965   7.606   5.497   1.421  0.3219  0.0991 -0.0000
   59BDD     C119966   7.578   5.143   1.092 -0.0702 -0.1329 -0.0180
   59BDD     C219967   7.462   5.094   1.143 -0.1404 -0.0618 -0.1102
   59BDD     C319968   7.403   5.178   1.245 -0.3363  0.1335 -0.3797
   59BDD     C419969   7.476   5.291   1.271 -0.4124  0.2087 -0.4892
   59BDD     S119970   7.623   5.299   1.169 -0.2443  0.0401 -0.2623
   59BDD     C519971   7.399   4.967   1.099 -0.0303 -0.1709  0.0461
   59BDD     C619972   7.277   5.144   1.314 -0.4410  0.2387 -0.5189
   59BDD     O119973   7.226   5.217   1.403 -0.6098  0.4070 -0.7514
   59BDD     O219974   7.450   4.894   1.010  0.1386 -0.3393  0.2785
   59BDD     C719975   7.214   5.017   1.270 -0.3307  0.1295 -0.3626
   59BDD     C819976   7.273   4.933   1.167 -0.1348 -0.0657 -0.0931
   59BDD     C919977   7.200   4.820   1.142 -0.0587 -0.1408  0.0163
   59BDD     S219978   7.053   4.812   1.244 -0.2268  0.0278 -0.2105
   59BDD    C1019979   7.097   4.968   1.321 -0.4010  0.2006 -0.4548
   59BDD    C1119980   7.000   5.003   1.427  0.1940 -0.6211 -0.6705
   59BDD    C1219981   6.864   5.053   1.393  0.0641  0.1594 -0.2028
   59BDD    C1319982   6.851   5.179   1.295  0.4857 -0.2338 -0.2149
   59BDD    C1419983   6.922   5.309   1.330 -0.4970  0.7442 -0.1187
   59BDD    C1519984   6.902   5.427   1.236 -0.5093  0.2318  0.6717
   59BDD    C1619985   6.988   5.406   1.106  0.5941  0.4613 -0.0913
   59BDD    C1719986   6.792   5.076   1.525  0.0241 -0.4663 -0.0256
   59BDD    C1819987   6.653   5.143   1.533 -0.1344  0.1642 -0.2526
   59BDD    C1919988   7.237   4.687   1.073  0.0527  0.3012  0.0913
   59BDD    C2019989   7.121   4.585   1.032 -0.6576 -0.3986 -0.0685
   59BDD    C2119990   7.003   4.638   0.936 -0.7207  0.4389 -0.0707
   59BDD    C2219991   7.026   4.662   0.788 -0.1131  0.2655  0.4145
   59BDD    C2319992   6.904   4.710   0.708  0.5638  0.0078 -0.4101
   59BDD    C2419993   6.948   4.798   0.593 -0.1108 -0.5151 -0.2743
   59BDD    C2519994   7.188   4.458   0.975 -0.0483 -1.0964 -0.3847
   59BDD    C2619995   7.105   4.331   0.959 -0.0285  0.4400 -0.0415
   60TPM     C119996   7.667   5.104   0.986  0.0483 -0.5229  0.1034
   60TPM     C219997   7.717   4.979   0.966 -0.0076 -0.5003 -0.2012
   60TPM     C319998   7.816   4.972   0.862 -0.3202 -0.3746 -0.5115
   60TPM     C419999   7.841   5.091   0.802 -0.5026 -0.3011 -0.4437
   60TPM     S120000   7.741   5.224   0.872 -0.2921 -0.3857  0.0212
    1BDTP    C120001   3.735   1.627   2.822 -0.1794  0.3133  0.2835
    1BDTP    C220002   3.738   1.740   2.735 -0.1417  0.1829  0.1116
    1BDTP    C320003   3.633   1.771   2.650 -0.0986  0.0457  0.0094
    1BDTP    C420004   3.521   1.686   2.648 -0.0925  0.0366  0.0798
    1BDTP    C520005   3.519   1.573   2.735 -0.1302  0.1670  0.2517
    1BDTP    C620006   3.623   1.542   2.821 -0.1731  0.3042  0.3539
    1BDTP    C720007   3.401   1.698   2.568 -0.0512 -0.0931 -0.0012
    1BDTP    C820008   3.310   1.600   2.590 -0.0560 -0.0665  0.1003
    1BDTP    S120009   3.363   1.479   2.715 -0.1135  0.1263  0.3127
    1BDTP    C920010   3.855   1.615   2.902 -0.2207  0.4429  0.3645
    1BDTP   C1020011   3.946   1.713   2.881 -0.2158  0.4165  0.2630
    1BDTP    S220012   3.893   1.834   2.756 -0.1583  0.2236  0.0506
    2FTM     S120013   3.491   2.007   2.562  0.1412 -0.4367 -0.0599
    2FTM     C120014   3.565   2.094   2.423  0.1700 -0.2083  0.0971
    2FTM     C220015   3.685   2.038   2.391  0.3948  0.1369  0.3260
    2FTM     C320016   3.726   1.926   2.472  0.5545  0.2423  0.3920
    2FTM     C420017   3.634   1.896   2.568  0.4487 -0.0312  0.2074
    2FTM     F120018   3.765   2.084   2.288  0.4691  0.3781  0.4897
    2FTM     C520019   3.489   2.200   2.355  0.9109  0.1406  0.2876
    2FTM     C620020   3.528   2.275   2.226 -0.1854 -0.6281 -0.3053
    2FTM     C720021   3.524   2.206   2.091 -0.6785  0.3336 -0.3338
    2FTM     C820022   3.391   2.147   2.047 -0.5649  0.1587 -0.0706
    2FTM     C920023   3.283   2.258   2.050 -0.4226 -0.2604  0.5537
    2FTM    C1020024   3.141   2.228   2.027  0.1223  0.4249  0.4246
    2FTM    C1120025   3.644   2.372   2.253 -0.1422 -0.3985 -0.4157
    2FTM    C1220026   3.681   2.480   2.151 -0.0561 -0.0731  0.1903
    3FTM     S120027   3.476   1.446   3.035  0.2755  0.0668  0.0957
    3FTM     C120028   3.511   1.278   3.089  0.1525  0.1198  0.3471
    3FTM     C220029   3.610   1.224   3.012 -0.1614 -0.2052  0.1629
    3FTM     C320030   3.663   1.309   2.909 -0.3217 -0.5078 -0.1766
    3FTM     C420031   3.604   1.432   2.908 -0.1240 -0.4115 -0.2550
    3FTM     F120032   3.658   1.095   3.030 -0.3224 -0.2477  0.2909
    3FTM     C520033   3.453   1.223   3.213 -0.1363  0.1681 -1.1298
    3FTM     C620034   3.313   1.161   3.232 -0.0107 -0.3957  0.0357
    3FTM     C720035   3.265   1.054   3.132  0.2916  0.3928  0.7408
    3FTM     C820036   3.242   1.091   2.988  0.3190  0.0358  0.1939
    3FTM     C920037   3.112   1.166   2.983  0.8189 -0.1170  0.8975
    3FTM    C1020038   3.084   1.179   2.829  0.3392  0.0084 -0.3924
    3FTM    C1120039   3.295   1.110   3.379  0.1094  0.3550  0.4122
    3FTM    C1220040   3.383   0.993   3.424  0.2503  0.1850 -0.0453
    4TPM     C120041   4.079   1.722   2.937 -0.0388  1.0014  0.4021
    4TPM     C220042   4.127   1.653   3.045 -0.2786  1.1377  0.5956
    4TPM     C320043   4.262   1.687   3.081 -0.1296  0.7151  0.4504
    4TPM     C420044   4.318   1.782   3.000  0.2237  0.2567  0.1462
    4TPM     S120045   4.203   1.836   2.871  0.3972  0.3237  0.0186
    5BDD     C120046   4.638   2.007   2.972 -0.2398  0.0022 -0.0398
    5BDD     C220047   4.681   1.897   3.041 -0.1489  0.0487 -0.0212
    5BDD     C320048   4.576   1.798   3.063 -0.0539 -0.0612 -0.0566
    5BDD     C420049   4.455   1.835   3.011 -0.0735 -0.1898 -0.1017
    5BDD     S120050   4.464   1.995   2.930 -0.2124 -0.1823 -0.1029
    5BDD     C520051   4.819   1.878   3.090 -0.1464  0.1958  0.0297
    5BDD     C620052   4.600   1.672   3.136  0.0529 -0.0345 -0.0445
    5BDD     O120053   4.509   1.587   3.155  0.1349 -0.1292 -0.0750
    5BDD     O220054   4.909   1.962   3.071 -0.2284  0.2905  0.0603
    5BDD     C720055   4.738   1.653   3.185  0.0557  0.1125  0.0065
    5BDD     C820056   4.843   1.751   3.162 -0.0396  0.2224  0.0419
    5BDD     C920057   4.963   1.714   3.215 -0.0200  0.3510  0.0870
    5BDD     S220058   4.954   1.555   3.296  0.1189  0.3435  0.0881
    5BDD    C1020059   4.780   1.543   3.254  0.1462  0.1590  0.0252
    5BDD    C1120060   4.718   1.408   3.293 -0.5282  0.2739 -0.2619
    5BDD    C1220061   4.726   1.289   3.195  0.3815  0.6566  0.0969
    5BDD    C1320062   4.695   1.302   3.040 -0.1729  0.0064 -0.7508
    5BDD    C1420063   4.810   1.350   2.952 -0.4015  0.4863 -0.2065
    5BDD    C1520064   4.952   1.297   2.983  0.3436  0.3060  0.2871
    5BDD    C1620065   5.061   1.367   2.901 -0.4799 -0.1141 -0.1706
    5BDD    C1720066   4.680   1.165   3.272  0.5231 -0.3028  0.3699
    5BDD    C1820067   4.673   1.037   3.192  0.4662 -0.6595 -0.5915
    5BDD    C1920068   5.097   1.785   3.241  0.5874  0.4626 -0.5025
    5BDD    C2020069   5.163   1.834   3.116 -0.6655 -0.0237  0.0501
    5BDD    C2120070   5.293   1.921   3.127  0.4715 -0.1516 -0.7458
    5BDD    C2220071   5.286   2.054   3.199 -0.3367 -0.1622 -0.1173
    5BDD    C2320072   5.190   2.160   3.146  0.4656 -0.2959  0.0331
    5BDD    C2420073   5.169   2.282   3.236  0.9077 -0.2594  0.2483
    5BDD    C2520074   5.182   1.722   3.014  0.1048 -0.4036 -0.4364
    5BDD    C2620075   5.213   1.765   2.874 -0.0595 -0.3171 -0.1001
    6TPM     C120076   4.705   2.131   2.920  0.3778  0.2908  0.5604
    6TPM     C220077   4.660   2.253   2.961  0.6115  0.4828  0.2557
    6TPM     C320078   4.745   2.362   2.921  0.6492  0.2548 -0.3036
    6TPM     C420079   4.854   2.324   2.849  0.4443 -0.1110 -0.4254
    6TPM     S120080   4.859   2.145   2.827  0.1857 -0.1966  0.1615
    7BDTP    C120081   5.282   2.608   2.488  0.0250 -0.0219 -0.1338
    7BDTP    C220082   5.358   2.508   2.555  0.0591 -0.0088 -0.1530
    7BDTP    C320083   5.303   2.424   2.651  0.0842 -0.0545 -0.1783
    7BDTP    C420084   5.167   2.440   2.683  0.0753 -0.1161 -0.1850
    7BDTP    C520085   5.091   2.541   2.616  0.0412 -0.1290 -0.1658
    7BDTP    C620086   5.146   2.624   2.520  0.0161 -0.0834 -0.1405
    7BDTP    C720087   5.088   2.366   2.779  0.0969 -0.1711 -0.2099
    7BDTP    C820088   4.959   2.405   2.788  0.0808 -0.2242 -0.2103
    7BDTP    S120089   4.918   2.542   2.675  0.0361 -0.2118 -0.1793
    7BDTP    C920090   5.361   2.683   2.391  0.0033  0.0333 -0.1090
    7BDTP   C1020091   5.490   2.644   2.383  0.0196  0.0863 -0.1085
    7BDTP    S220092   5.531   2.507   2.496  0.0642  0.0739 -0.1395
    8FTM     S120093   5.551   2.384   2.791  0.1773 -0.1745 -0.4650
    8FTM     C120094   5.595   2.212   2.825 -0.3226 -0.1801  0.2040
    8FTM     C220095   5.495   2.130   2.781 -0.5238 -0.0659  0.4461
    8FTM     C320096   5.382   2.194   2.721 -0.3067  0.0305  0.1339
    8FTM     C420097   5.395   2.330   2.719  0.0730 -0.0112 -0.3637
    8FTM     F120098   5.501   1.992   2.794 -0.9166 -0.0420  0.9651
    8FTM     C520099   5.725   2.172   2.897 -0.4545  0.1338 -0.0882
    8FTM     C620100   5.857   2.196   2.818  0.8192 -0.1646 -0.6722
    8FTM     C720101   5.896   2.350   2.802 -0.0564 -0.0573 -0.1469
    8FTM     C820102   5.897   2.440   2.926  0.2968  0.1380  0.0434
    8FTM     C920103   6.015   2.410   3.015 -0.2297  0.3217  0.1579
    8FTM    C1020104   6.030   2.497   3.146 -0.5679 -0.5748 -0.4896
    8FTM    C1120105   5.873   2.146   2.677 -0.1305 -0.3856  0.0621
    8FTM    C1220106   5.846   2.000   2.665 -0.4212  0.7723 -0.0224
    9FTM     S120107   5.091   2.891   2.429 -0.0210  0.2400 -0.5982
    9FTM     C120108   4.957   2.905   2.309  0.0318 -0.1813 -0.7111
    9FTM     C220109   4.895   2.785   2.294 -0.1156 -0.1844 -0.1317
    9FTM     C320110   4.948   2.677   2.373 -0.2748  0.1329  0.4219
    9FTM     C420111   5.053   2.716   2.450 -0.2483  0.3874  0.2611
    9FTM     F120112   4.788   2.765   2.209 -0.1154 -0.4748 -0.0683
    9FTM     C520113   4.913   3.041   2.257 -0.5897 -0.2331  1.0122
    9FTM     C620114   4.949   3.095   2.112  0.5127  0.2440  0.0295
    9FTM     C720115   5.097   3.103   2.102  0.0971  0.4139 -0.1391
    9FTM     C820116   5.179   3.198   2.188 -0.3600 -0.2292 -0.1305
    9FTM     C920117   5.148   3.346   2.152  0.6951  0.5414  0.1084
    9FTM    C1020118   5.171   3.436   2.269  1.0962  0.3162 -0.1726
    9FTM    C1120119   4.883   3.032   1.986  0.2460  0.1079 -0.1463
    9FTM    C1220120   4.731   3.029   1.981  0.0098  0.4446  0.3545
   10TPM     C120121   5.590   2.679   2.290  0.1256 -0.1244 -0.0197
   10TPM     C220122   5.725   2.678   2.308  0.1531 -0.6972 -0.1922
   10TPM     C320123   5.799   2.720   2.191  0.1818 -0.9941 -0.2812
   10TPM     C420124   5.720   2.751   2.085  0.1761 -0.6477 -0.1766
   10TPM     S120125   5.545   2.731   2.123  0.1340  0.0860  0.0443
   11BDD     C120126   5.950   2.832   1.778 -0.0117  0.1342 -0.2049
   11BDD     C220127   5.852   2.751   1.727  0.0008  0.0944 -0.1650
   11BDD     C320128   5.753   2.712   1.825  0.1179 -0.0361 -0.0981
   11BDD     C420129   5.776   2.763   1.950  0.1931 -0.0939 -0.0879
   11BDD     S120130   5.924   2.865   1.952  0.1223  0.0111 -0.1613
   11BDD     C520131   5.847   2.706   1.586 -0.0947  0.1748 -0.1870
   11BDD     C620132   5.639   2.624   1.792  0.1510 -0.0988 -0.0468
   11BDD     O120133   5.553   2.590   1.877  0.2520 -0.2112  0.0109
   11BDD     O220134   5.933   2.740   1.502 -0.1956  0.2874 -0.2446
   11BDD     C720135   5.633   2.579   1.652  0.0557 -0.0184 -0.0688
   11BDD     C820136   5.733   2.619   1.553 -0.0615  0.1122 -0.1357
   11BDD     C920137   5.710   2.567   1.429 -0.1369  0.1699 -0.1459
   11BDD     S220138   5.562   2.465   1.426 -0.0660  0.0650 -0.0725
   11BDD    C1020139   5.536   2.498   1.601  0.0679 -0.0582 -0.0290
   11BDD    C1120140   5.427   2.420   1.659  0.2285 -0.5106 -0.3186
   11BDD    C1220141   5.295   2.503   1.689 -0.5743 -0.2798  0.3282
   11BDD    C1320142   5.198   2.422   1.769  0.0477 -0.0645 -0.5381
   11BDD    C1420143   5.241   2.375   1.909 -0.3611 -0.1147 -0.2485
   11BDD    C1520144   5.140   2.274   1.965  0.2001  0.0199 -0.3316
   11BDD    C1620145   5.166   2.258   2.114  0.7590 -0.3937 -0.1115
   11BDD    C1720146   5.241   2.577   1.561  0.0658 -0.2271 -0.0523
   11BDD    C1820147   5.121   2.668   1.572 -0.2137 -0.3064 -0.0448
   11BDD    C1920148   5.750   2.591   1.287  0.0819 -0.4446 -0.5547
   11BDD    C2020149   5.886   2.531   1.249 -0.5773 -0.2976  0.2063
   11BDD    C2120150   5.859   2.381   1.228 -0.2663 -0.3540 -0.4111
   11BDD    C2220151   5.977   2.287   1.212  0.1433  0.2023  0.1049
   11BDD    C2320152   5.937   2.139   1.195  0.0716  0.0841  0.1386
   11BDD    C2420153   6.057   2.052   1.164 -0.6233 -0.0360 -0.0678
   11BDD    C2520154   5.954   2.599   1.128 -0.5229  0.3564 -0.9056
   11BDD    C2620155   6.003   2.737   1.144  0.3130 -0.4467 -0.2723
   12TPM     C120156   6.075   2.894   1.723  0.1424  0.5256 -0.0498
   12TPM     C220157   6.116   3.007   1.787  0.3651  0.5483 -0.2307
   12TPM     C320158   6.220   3.078   1.717  0.4904  0.2460 -0.3565
   12TPM     C420159   6.259   3.019   1.601  0.3630 -0.0070 -0.2715
   12TPM     S120160   6.166   2.868   1.569  0.0729  0.1177 -0.0241
   13BDTP    C120161   6.702   3.269   1.237 -0.1063 -0.1121  0.0055
   13BDTP    C220162   6.631   3.186   1.146 -0.0199 -0.2067  0.0243
   13BDTP    C320163   6.522   3.108   1.184  0.0304 -0.2738  0.0314
   13BDTP    C420164   6.482   3.113   1.318 -0.0062 -0.2465  0.0194
   13BDTP    C520165   6.553   3.196   1.410 -0.0926 -0.1519  0.0006
   13BDTP    C620166   6.661   3.273   1.372 -0.1427 -0.0848 -0.0065
   13BDTP    C720167   6.372   3.041   1.381  0.0332 -0.3035  0.0236
   13BDTP    C820168   6.358   3.067   1.513 -0.0185 -0.2569  0.0091
   13BDTP    S120169   6.481   3.184   1.577 -0.1247 -0.1343 -0.0120
   13BDTP    C920170   6.811   3.340   1.175 -0.1457 -0.0551  0.0013
   13BDTP   C1020171   6.826   3.315   1.042 -0.0939 -0.1016  0.0158
   13BDTP    S220172   6.703   3.197   0.978  0.0122 -0.2244  0.0369
   14FTM     S120173   6.292   2.985   1.065 -0.0355  0.1990 -0.4138
   14FTM     C120174   6.328   2.854   0.946  0.3688 -0.6038  0.5679
   14FTM     C220175   6.462   2.836   0.936  0.4044 -0.7854  1.2465
   14FTM     C320176   6.544   2.921   1.018  0.1262 -0.3225  1.0492
   14FTM     C420177   6.469   3.007   1.093 -0.1307  0.2316  0.1914
   14FTM     F120178   6.519   2.741   0.852  0.6912 -1.3815  2.0867
   14FTM     C520179   6.214   2.781   0.875  0.2580  0.5283  0.2453
   14FTM     C620180   6.240   2.702   0.744  0.5338 -0.0797  0.2361
   14FTM     C720181   6.147   2.584   0.699  0.3518  0.5998 -0.3452
   14FTM     C820182   6.130   2.463   0.795 -0.4522 -0.2188 -0.0382
   14FTM     C920183   6.249   2.361   0.805 -0.4088 -0.2067  0.0603
   14FTM    C1020184   6.198   2.235   0.865 -0.2955  0.2730  0.0665
   14FTM    C1120185   6.305   2.779   0.625 -0.0385 -1.2869  0.2892
   14FTM    C1220186   6.390   2.692   0.529  0.0371 -0.3399  0.5813
   15FTM     S120187   6.892   3.338   1.518  0.0687 -0.1738 -0.1367
   15FTM     C120188   6.893   3.492   1.611  0.3642 -0.1757 -0.1339
   15FTM     C220189   6.773   3.556   1.598  0.2875 -0.2166  0.3106
   15FTM     C320190   6.676   3.490   1.515  0.0017 -0.2481  0.6675
   15FTM     C420191   6.723   3.372   1.464 -0.1459 -0.2308  0.4905
   15FTM     F120192   6.745   3.677   1.659  0.4721 -0.2278  0.4207
   15FTM     C520193   7.021   3.536   1.669 -0.0863  0.7034  0.3281
   15FTM     C620194   7.047   3.650   1.772 -0.3639  0.6328  0.0925
   15FTM     C720195   7.196   3.692   1.792  0.2968 -0.3351 -0.0629
   15FTM     C820196   7.242   3.797   1.689 -0.3303 -0.3383 -0.3830
   15FTM     C920197   7.388   3.831   1.695 -0.3635 -0.3961  0.7773
   15FTM    C1020198   7.432   3.911   1.574 -0.8737  0.3410  0.8823
   15FTM    C1120199   6.969   3.639   1.901  0.6153  0.2227 -0.3623
   15FTM    C1220200   7.008   3.541   2.008 -0.8824 -0.4736 -0.1134
   16TPM     C120201   6.945   3.348   0.974  0.3083  0.2525 -0.3148
   16TPM     C220202   6.985   3.319   0.846  0.1365  0.9478 -0.5334
   16TPM     C320203   7.111   3.379   0.811 -0.0257  1.3387 -0.4650
   16TPM     C420204   7.167   3.452   0.911  0.0225  0.9413 -0.1943
   16TPM     S120205   7.064   3.453   1.059  0.2785  0.0356 -0.0032
   17BDD     C120206   7.421   3.752   0.898  0.2200  0.0057 -0.0285
   17BDD     C220207   7.483   3.652   0.829  0.1711  0.0038 -0.0698
   17BDD     C320208   7.405   3.529   0.823  0.1346  0.0272 -0.0744
   17BDD     C420209   7.285   3.539   0.887  0.1563  0.0469 -0.0366
   17BDD     S120210   7.261   3.701   0.960  0.2239  0.0372  0.0073
   17BDD     C520211   7.616   3.664   0.766  0.1560 -0.0198 -0.1064
   17BDD     C620212   7.452   3.408   0.754  0.0795  0.0295 -0.1162
   17BDD     O120213   7.385   3.302   0.749  0.0480  0.0498 -0.1201
   17BDD     O220214   7.684   3.769   0.771  0.1875 -0.0401 -0.1024
   17BDD     C720215   7.585   3.420   0.691  0.0645  0.0060 -0.1528
   17BDD     C820216   7.664   3.542   0.697  0.1010 -0.0176 -0.1482
   17BDD     C920217   7.784   3.533   0.633  0.0793 -0.0372 -0.1860
   17BDD     S220218   7.807   3.370   0.560  0.0116 -0.0275 -0.2299
   17BDD    C1020219   7.647   3.319   0.623  0.0155  0.0040 -0.1941
   17BDD    C1120220   7.619   3.177   0.594 -0.2710  0.5904 -0.3339
   17BDD    C1220221   7.632   3.081   0.721  0.5823 -0.7545  0.3548
   17BDD    C1320222   7.573   2.937   0.706  0.0331 -0.2894  0.6685
   17BDD    C1420223   7.542   2.845   0.823  0.4566 -0.3845  1.3413
   17BDD    C1520224   7.453   2.912   0.929  0.0039 -0.3556  0.0713
   17BDD    C1620225   7.400   2.809   1.028  0.2891  0.2045  0.7250
   17BDD    C1720226   7.757   3.096   0.803 -0.2660 -1.0842 -0.4177
   17BDD    C1820227   7.879   3.029   0.746  0.5909 -0.0800  0.3175
   17BDD    C1920228   7.890   3.635   0.597 -0.3228 -0.1875  0.2518
   17BDD    C2020229   7.924   3.647   0.445  0.4745 -0.0277  0.0524
   17BDD    C2120230   7.802   3.671   0.351 -0.1848  0.7911 -0.1930
   17BDD    C2220231   7.724   3.797   0.359  0.7893 -0.0799  0.0083
   17BDD    C2320232   7.625   3.819   0.246  0.1432 -0.3665  0.3858
   17BDD    C2420233   7.532   3.939   0.249  0.3926  0.3826  0.7630
   17BDD    C2520234   8.037   3.748   0.441 -0.9084 -0.1693  0.3060
   17BDD    C2620235   8.100   3.786   0.306 -0.3526 -0.0708  0.6682
   18TPM     C120236   7.459   3.883   0.942 -0.2914  0.4109  0.0206
   18TPM     C220237   7.505   3.980   0.858 -0.5621  0.4272 -0.1120
   18TPM     C320238   7.506   4.111   0.916 -0.4091  0.4218 -0.1032
   18TPM     C420239   7.461   4.115   1.045 -0.0217  0.4015  0.0361
   18TPM     S120240   7.413   3.951   1.102  0.1816  0.3874  0.1679
   19BDTP    C120241   7.364   4.600   1.433  0.0466  0.0077  0.2414
   19BDTP    C220242   7.482   4.639   1.363  0.0165 -0.0602  0.1536
   19BDTP    C320243   7.541   4.559   1.265 -0.0560 -0.1297  0.1664
   19BDTP    C420244   7.481   4.435   1.236 -0.1011 -0.1328  0.2705
   19BDTP    C520245   7.364   4.396   1.307 -0.0710 -0.0651  0.3583
   19BDTP    C620246   7.305   4.475   1.404  0.0014  0.0046  0.3456
   19BDTP    C720247   7.524   4.336   1.140 -0.1778 -0.1983  0.3034
   19BDTP    C820248   7.446   4.226   1.135 -0.2062 -0.1832  0.4103
   19BDTP    S120249   7.307   4.232   1.251 -0.1403 -0.0837  0.4843
   19BDTP    C920250   7.321   4.699   1.530  0.1231  0.0733  0.2086
   19BDTP   C1020251   7.400   4.809   1.535  0.1519  0.0581  0.1017
   19BDTP    S220252   7.539   4.803   1.418  0.0858 -0.0414  0.0276
   20FTM     S120253   7.720   4.588   1.044  0.2088  0.0522 -0.1790
   20FTM     C120254   7.893   4.626   1.080  0.0755  0.3642  0.1377
   20FTM     C220255   7.910   4.636   1.215 -0.1776  0.3372  0.1744
   20FTM     C320256   7.794   4.616   1.296 -0.2807  0.0786 -0.0365
   20FTM     C420257   7.683   4.589   1.221 -0.1009 -0.0982 -0.2413
   20FTM     F120258   8.033   4.665   1.272 -0.3307  0.5449  0.4010
   20FTM     C520259   7.991   4.640   0.966  0.4376  0.7390 -0.2366
   20FTM     C620260   8.033   4.520   0.874 -0.5093  0.3436  0.3116
   20FTM     C720261   7.927   4.449   0.786 -0.1350  0.0630  0.0494
   20FTM     C820262   7.837   4.539   0.695 -0.0513  0.5967  0.9788
   20FTM     C920263   7.920   4.640   0.610  0.7327 -0.1556 -0.4979
   20FTM    C1020264   7.821   4.739   0.547  0.0065 -0.1358 -0.1739
   20FTM    C1120265   8.119   4.404   0.934  0.0494 -0.5410  0.2857
   20FTM    C1220266   8.243   4.431   1.019 -0.3137  0.1151  0.0287
   21FTM     S120267   7.152   4.438   1.644  0.0723 -0.4292  0.2494
   21FTM     C120268   6.977   4.403   1.621 -0.1447  0.5885  0.2560
   21FTM     C220269   6.948   4.396   1.488 -0.2661  1.1054  0.2536
   21FTM     C320270   7.058   4.418   1.398 -0.1996  0.7502  0.2467
   21FTM     C420271   7.175   4.442   1.465 -0.0212 -0.0654  0.2437
   21FTM     F120272   6.821   4.371   1.439 -0.4448  1.9310  0.2576
   21FTM     C520273   6.874   4.385   1.728 -0.5996 -0.1285  0.2402
   21FTM     C620274   6.810   4.248   1.755 -0.1229  0.4154 -0.0054
   21FTM     C720275   6.717   4.221   1.873  0.1505  0.0285 -0.5200
   21FTM     C820276   6.595   4.316   1.888  0.1721  0.0988  0.3048
   21FTM     C920277   6.486   4.315   1.776  0.1731  0.4268  0.4211
   21FTM    C1020278   6.379   4.433   1.771  0.3304 -0.0915 -0.0877
   21FTM    C1120279   6.884   4.117   1.713  0.2647  0.1009 -0.0995
   21FTM    C1220280   7.019   4.093   1.780 -0.0373  0.6274  0.2005
   22TPM     C120281   7.389   4.923   1.618  0.1034  0.1570 -0.0785
   22TPM     C220282   7.280   4.988   1.669  0.0076  0.1913 -0.3227
   22TPM     C320283   7.312   5.110   1.738 -0.0931  0.1100 -0.1293
   22TPM     C420284   7.446   5.139   1.740 -0.0739  0.0135  0.2622
   22TPM     S120285   7.541   5.012   1.653  0.0739  0.0184  0.4184
   23BDD     C120286   7.463   5.487   1.922 -0.0243 -0.2162  0.3633
   23BDD     C220287   7.585   5.475   1.860 -0.0463 -0.0960  0.2970
   23BDD     C320288   7.602   5.350   1.789  0.0286 -0.0671  0.2639
   23BDD     C420289   7.493   5.267   1.798  0.1069 -0.1661  0.3054
   23BDD     S120290   7.362   5.341   1.896  0.0918 -0.3022  0.3887
   23BDD     C520291   7.690   5.579   1.864 -0.1367 -0.0027  0.2617
   23BDD     C620292   7.725   5.316   1.715  0.0203  0.0576  0.1923
   23BDD     O120293   7.740   5.208   1.654  0.0849  0.0824  0.1637
   23BDD     O220294   7.675   5.688   1.925 -0.2013 -0.0277  0.2903
   23BDD     C720295   7.830   5.420   1.719 -0.0705  0.1506  0.1570
   23BDD     C820296   7.813   5.546   1.790 -0.1453  0.1220  0.1901
   23BDD     C920297   7.922   5.628   1.781 -0.2233  0.2207  0.1487
   23BDD     S220298   8.053   5.554   1.684 -0.2085  0.3568  0.0653
   23BDD    C1020299   7.951   5.408   1.657 -0.0924  0.2710  0.0907
   23BDD    C1120300   8.011   5.299   1.568  0.1403 -0.3116  0.0404
   23BDD    C1220301   7.976   5.298   1.419  1.0930 -0.1168 -0.2635
   23BDD    C1320302   8.020   5.426   1.354  0.3415 -0.3167  0.7827
   23BDD    C1420303   8.161   5.437   1.312 -1.0188 -0.1680  0.4439
   23BDD    C1520304   8.197   5.575   1.254  0.6822  0.1160 -0.5642
   23BDD    C1620305   8.338   5.569   1.203  0.0972 -0.2074  0.1763
   23BDD    C1720306   8.000   5.163   1.353 -0.1810 -0.0157 -0.2785
   23BDD    C1820307   7.970   5.137   1.208  0.1018  0.4570  0.1768
   23BDD    C1920308   7.951   5.770   1.833  0.0294  0.1580  0.3460
   23BDD    C2020309   8.008   5.782   1.976  0.4207 -0.4242 -0.1294
   23BDD    C2120310   8.003   5.935   2.015 -0.4988 -0.1915 -0.0318
   23BDD    C2220311   7.885   6.037   2.014  0.7128  0.0984 -0.9076
   23BDD    C2320312   7.783   6.012   2.127  0.4317 -0.4856 -0.3959
   23BDD    C2420313   7.670   6.116   2.108  0.3865  0.5303 -0.1155
   23BDD    C2520314   8.135   5.706   2.006 -1.4680  0.3810 -0.3595
   23BDD    C2620315   8.172   5.680   2.146  0.2419 -0.5754 -1.0436
   24TPM     C120316   7.399   5.589   2.010  0.1125 -0.1909  0.1871
   24TPM     C220317   7.285   5.657   1.978 -0.1212 -0.4528  0.4573
   24TPM     C320318   7.257   5.768   2.065 -0.1258 -0.4653  0.4720
   24TPM     C420319   7.350   5.786   2.163  0.1046 -0.2131  0.2130
   24TPM     S120320   7.481   5.662   2.153  0.3471  0.0619 -0.0717
   25BDTP    C120321   7.405   6.163   2.662  0.0726  0.1999 -0.1747
   25BDTP    C220322   7.370   6.255   2.559  0.0426  0.2066 -0.1587
   25BDTP    C320323   7.346   6.215   2.428  0.0666  0.2233 -0.1681
   25BDTP    C420324   7.357   6.079   2.397  0.1228  0.2339 -0.1947
   25BDTP    C520325   7.393   5.987   2.500  0.1527  0.2272 -0.2107
   25BDTP    C620326   7.417   6.026   2.631  0.1287  0.2107 -0.2013
   25BDTP    C720327   7.337   6.014   2.268  0.1565  0.2515 -0.2088
   25BDTP    C820328   7.356   5.880   2.270  0.2095  0.2584 -0.2344
   25BDTP    S120329   7.401   5.816   2.434  0.2242  0.2434 -0.2443
   25BDTP    C920330   7.425   6.227   2.790  0.0387  0.1823 -0.1606
   25BDTP   C1020331   7.407   6.361   2.788 -0.0142  0.1754 -0.1349
   25BDTP    S220332   7.362   6.425   2.624 -0.0291  0.1903 -0.1252
   26FTM     S120333   7.403   6.341   2.175  0.0320  0.0045  0.1890
   26FTM     C120334   7.285   6.463   2.116 -0.0060 -0.2032 -0.1742
   26FTM     C220335   7.185   6.478   2.207 -0.3439 -0.4191 -0.5067
   26FTM     C320336   7.193   6.397   2.325 -0.5881 -0.4358 -0.4995
   26FTM     C420337   7.304   6.318   2.324 -0.4319 -0.2259 -0.1502
   26FTM     F120338   7.079   6.566   2.188 -0.4524 -0.6145 -0.8373
   26FTM     C520339   7.309   6.502   1.974  0.9275  0.1956 -0.1373
   26FTM     C620340   7.237   6.629   1.919 -0.1596  0.2741  0.3785
   26FTM     C720341   7.259   6.757   1.996 -0.2912 -0.1885 -0.4635
   26FTM     C820342   7.407   6.790   2.018  0.6173 -0.4852 -0.5342
   26FTM     C920343   7.430   6.925   2.091 -0.0842  0.1274  0.1590
   26FTM    C1020344   7.573   6.968   2.072 -0.3845  0.2638  0.3625
   26FTM    C1120345   7.257   6.630   1.769 -0.8897 -0.1080  0.0740
   26FTM    C1220346   7.173   6.724   1.680  0.4867  0.3919  0.4116
   27FTM     S120347   7.578   5.923   2.841  0.0779 -0.3368  0.3920
   27FTM     C120348   7.518   5.776   2.927 -0.6136 -0.3011 -0.0199
   27FTM     C220349   7.399   5.738   2.874 -0.5715  0.1298 -0.4447
   27FTM     C320350   7.349   5.817   2.766 -0.0122  0.4508 -0.4750
   27FTM     C420351   7.432   5.920   2.735  0.3867  0.2593 -0.0599
   27FTM     F120352   7.328   5.628   2.920 -1.0365  0.2594 -0.8312
   27FTM     C520353   7.612   5.712   3.033  0.4532  0.0828  0.1409
   27FTM     C620354   7.564   5.691   3.176  0.3665  0.1469 -0.1523
   27FTM     C720355   7.552   5.822   3.254 -0.3377 -0.4528 -0.1033
   27FTM     C820356   7.681   5.874   3.321  0.4925  0.1470 -0.2100
   27FTM     C920357   7.689   6.018   3.382 -0.0950  0.1653  0.6045
   27FTM    C1020358   7.679   6.132   3.276  0.3027  0.2708 -0.4065
   27FTM    C1120359   7.443   5.604   3.183  0.2885  0.1782 -0.4020
   27FTM    C1220360   7.442   5.452   3.136  0.4809 -0.5140 -0.3909
   28TPM     C120361   7.421   6.451   2.899 -0.1845 -0.0048 -0.1067
   28TPM     C220362   7.390   6.425   3.029  0.3984 -0.4269 -0.0467
   28TPM     C320363   7.437   6.525   3.122  0.6740 -0.6473  0.0583
   28TPM     C420364   7.503   6.628   3.062  0.3011 -0.3930  0.0784
   28TPM     S120365   7.512   6.606   2.883 -0.4327  0.1488 -0.0346
   29BDD     C120366   7.525   7.007   3.167 -0.0278  0.0344  0.0192
   29BDD     C220367   7.564   6.939   3.279 -0.0168  0.0138  0.0028
   29BDD     C320368   7.564   6.795   3.261  0.0315  0.0190 -0.0399
   29BDD     C420369   7.526   6.755   3.136  0.0569  0.0436 -0.0554
   29BDD     S120370   7.486   6.896   3.032  0.0219  0.0618 -0.0178
   29BDD     C520371   7.602   7.003   3.406 -0.0505 -0.0116  0.0259
   29BDD     C620372   7.603   6.701   3.369  0.0509 -0.0007 -0.0636
   29BDD     O120373   7.603   6.577   3.354  0.0925  0.0038 -0.1004
   29BDD     O220374   7.602   7.128   3.421 -0.0923 -0.0161  0.0627
   29BDD     C720375   7.641   6.766   3.496  0.0170 -0.0259 -0.0407
   29BDD     C820376   7.641   6.910   3.514 -0.0312 -0.0310  0.0021
   29BDD     C920377   7.679   6.950   3.639 -0.0566 -0.0557  0.0176
   29BDD     S220378   7.718   6.809   3.743 -0.0216 -0.0740 -0.0200
   29BDD    C1020379   7.679   6.698   3.608  0.0279 -0.0466 -0.0570
   29BDD    C1120380   7.697   6.544   3.641 -0.1174  0.6953 -0.1662
   29BDD    C1220381   7.842   6.486   3.680  0.7725  0.0634  0.1552
   29BDD    C1320382   7.949   6.507   3.570  0.2718  0.8278  0.2963
   29BDD    C1420383   7.914   6.463   3.421 -0.1617 -0.2207 -0.0517
   29BDD    C1520384   8.022   6.481   3.311 -0.3987 -0.9586 -0.2270
   29BDD    C1620385   7.970   6.427   3.177 -0.0558  0.3394 -0.0689
   29BDD    C1720386   7.896   6.517   3.825  0.1740  0.2307  0.3756
   29BDD    C1820387   7.796   6.500   3.940 -0.0577 -0.0655 -0.3924
   29BDD    C1920388   7.677   7.078   3.711  0.0012  0.1899 -0.3900
   29BDD    C2020389   7.815   7.138   3.745 -0.2471  0.4485  0.4537
   29BDD    C2120390   7.923   7.131   3.631  0.4095  0.1418 -0.1060
   29BDD    C2220391   7.906   7.230   3.517 -0.1377 -0.3286  0.0764
   29BDD    C2320392   7.989   7.193   3.394  0.1250 -0.0442  0.0261
   29BDD    C2420393   7.965   7.282   3.274 -0.0334  0.2655  0.1650
   29BDD    C2520394   7.823   7.262   3.834  0.0855 -0.2577  0.3675
   29BDD    C2620395   7.740   7.262   3.960  0.1033  0.5401  0.0916
   30TPM     C120396   7.533   7.148   3.130 -0.3370  0.1435  0.0938
   30TPM     C220397   7.621   7.187   3.033  0.0135  0.0519  0.3684
   30TPM     C320398   7.624   7.329   3.011  0.2301  0.0489  0.3746
   30TPM     C420399   7.539   7.399   3.092  0.0448  0.1379  0.1048
   30TPM     S120400   7.447   7.290   3.202 -0.4212  0.2336 -0.1803
   31BDTP    C120401   7.482   8.027   3.089  0.0938 -0.1073 -0.0193
   31BDTP    C220402   7.357   7.984   3.143  0.0982 -0.0460  0.0393
   31BDTP    C320403   7.324   7.851   3.161  0.0249 -0.0316  0.0149
   31BDTP    C420404   7.419   7.754   3.125 -0.0566 -0.0799 -0.0713
   31BDTP    C520405   7.544   7.796   3.071 -0.0608 -0.1411 -0.1298
   31BDTP    C620406   7.577   7.930   3.053  0.0124 -0.1556 -0.1054
   31BDTP    C720407   7.408   7.610   3.135 -0.1413 -0.0763 -0.1115
   31BDTP    C820408   7.518   7.542   3.092 -0.2080 -0.1311 -0.1962
   31BDTP    S120409   7.650   7.652   3.033 -0.1731 -0.1950 -0.2370
   31BDTP    C920410   7.493   8.171   3.079  0.1786 -0.1111  0.0210
   31BDTP   C1020411   7.384   8.238   3.122  0.2453 -0.0560  0.1056
   31BDTP    S220412   7.251   8.128   3.182  0.2104  0.0078  0.1465
   32FTM     S120413   7.067   7.723   3.113  0.0755  0.0946  0.1098
   32FTM     C120414   6.944   7.734   3.243  0.1107 -0.0002  0.1511
   32FTM     C220415   6.993   7.805   3.348 -0.0228  0.3116  0.0031
   32FTM     C320416   7.127   7.855   3.333 -0.1572  0.6351 -0.1479
   32FTM     C420417   7.181   7.820   3.213 -0.1257  0.5690 -0.1144
   32FTM     F120418   6.921   7.831   3.463 -0.0310  0.3223 -0.0045
   32FTM     C520419   6.804   7.677   3.231 -0.0724 -0.1824  0.0101
   32FTM     C620420   6.701   7.749   3.145 -0.0962  0.0481  0.1756
   32FTM     C720421   6.701   7.743   2.992 -0.0013 -0.5579  0.2194
   32FTM     C820422   6.681   7.609   2.929  0.2882 -0.1151 -0.6110
   32FTM     C920423   6.708   7.605   2.777 -0.4562  0.3600 -0.0901
   32FTM    C1020424   6.736   7.464   2.717 -0.2911 -0.1790  0.2071
   32FTM    C1120425   6.643   7.885   3.181 -0.3089  1.0943 -0.7205
   32FTM    C1220426   6.582   7.874   3.325  0.3026  0.7673 -0.0072
   33FTM     S120427   7.731   8.099   2.869  0.0629 -0.1808  0.0507
   33FTM     C120428   7.907   8.060   2.858  0.0002 -0.3687 -0.3126
   33FTM     C220429   7.937   7.962   2.948  0.1493 -0.1557 -0.1294
   33FTM     C320430   7.829   7.913   3.028  0.3169  0.1589  0.2944
   33FTM     C420431   7.712   7.976   2.999  0.2957  0.1877  0.4405
   33FTM     F120432   8.065   7.911   2.962  0.1423 -0.2329 -0.3346
   33FTM     C520433   7.982   8.139   2.758 -0.1161 -0.0886 -0.2889
   33FTM     C620434   8.028   8.081   2.616 -0.1313  0.0766 -0.4663
   33FTM     C720435   8.146   7.975   2.621  0.1454 -0.4462 -0.1366
   33FTM     C820436   8.285   8.024   2.645 -0.0352  0.4429 -0.5381
   33FTM     C920437   8.393   7.910   2.637 -0.8667 -0.3327  0.2503
   33FTM    C1020438   8.531   7.972   2.650  0.0773  0.6823  0.2588
   33FTM    C1120439   7.910   8.054   2.528  0.2276  0.2705 -0.0695
   33FTM    C1220440   7.918   8.076   2.377  0.2884 -0.2762 -0.7015
   34TPM     C120441   7.364   8.375   3.116  0.6451 -0.1283  0.2913
   34TPM     C220442   7.260   8.448   3.166  0.5176 -0.2909  0.2639
   34TPM     C320443   7.258   8.585   3.121  0.1692 -0.3593  0.0584
   34TPM     C420444   7.361   8.617   3.037  0.0308 -0.2489 -0.0708
   34TPM     S120445   7.469   8.475   3.008  0.3326 -0.0482  0.0578
   35BDD     C120446   7.363   8.860   2.735 -0.0640 -0.1799  0.0326
   35BDD     C220447   7.346   8.941   2.844 -0.0302 -0.1557  0.0197
   35BDD     C320448   7.339   8.869   2.970  0.0170 -0.1271  0.0390
   35BDD     C420449   7.350   8.733   2.955  0.0186 -0.1301  0.0664
   35BDD     S120450   7.370   8.687   2.783 -0.0391 -0.1686  0.0698
   35BDD     C520451   7.336   9.089   2.837 -0.0399 -0.1578 -0.0108
   35BDD     C620452   7.321   8.936   3.100  0.0589 -0.0980  0.0296
   35BDD     O120453   7.315   8.874   3.208  0.0995 -0.0734  0.0463
   35BDD     O220454   7.343   9.151   2.728 -0.0806 -0.1826 -0.0274
   35BDD     C720455   7.311   9.084   3.092  0.0491 -0.1001 -0.0010
   35BDD     C820456   7.319   9.156   2.967  0.0020 -0.1290 -0.0202
   35BDD     C920457   7.308   9.292   2.982  0.0005 -0.1259 -0.0475
   35BDD     S220458   7.287   9.338   3.154  0.0581 -0.0872 -0.0510
   35BDD    C1020459   7.295   9.165   3.201  0.0829 -0.0758 -0.0138
   35BDD    C1120460   7.275   9.146   3.353  0.2261 -0.1708  0.7766
   35BDD    C1220461   7.142   9.189   3.418  0.0250 -0.5339 -0.0096
   35BDD    C1320462   7.013   9.126   3.368  0.1692 -0.3866  0.2532
   35BDD    C1420463   6.971   8.990   3.410  0.2961  0.6073 -0.3053
   35BDD    C1520464   6.983   8.885   3.305  0.3762  0.1258 -0.2515
   35BDD    C1620465   6.920   8.747   3.342 -0.1190 -0.4260  0.0566
   35BDD    C1720466   7.140   9.198   3.571  0.0030 -0.1355 -0.1638
   35BDD    C1820467   7.241   9.292   3.633 -0.6545  0.3558  0.3153
   35BDD    C1920468   7.316   9.407   2.885  0.1385  0.2652  0.1729
   35BDD    C2020469   7.196   9.507   2.852  0.2994  0.5371 -0.2671
   35BDD    C2120470   7.066   9.433   2.832  0.8064  0.1029  0.6260
   35BDD    C2220471   7.052   9.324   2.728  0.7951  0.3498  0.4832
   35BDD    C2320472   6.913   9.263   2.719  0.2888  0.4114 -0.6995
   35BDD    C2420473   6.908   9.145   2.624 -0.1373  0.2186 -0.1544
   35BDD    C2520474   7.231   9.625   2.760  0.6413  0.3299  0.1182
   35BDD    C2620475   7.354   9.707   2.787 -0.0210  0.1725 -0.3773
   36TPM     C120476   7.354   8.874   2.586  0.3846 -0.2540  0.3891
   36TPM     C220477   7.250   8.951   2.542  0.4492 -0.0548  0.5820
   36TPM     C320478   7.203   8.916   2.410  0.4719  0.3705  0.4593
   36TPM     C420479   7.272   8.813   2.353  0.4249  0.4951  0.1729
   36TPM     S120480   7.401   8.751   2.463  0.3472  0.0820  0.0348
   37BDTP    C120481   7.065   8.528   1.835 -0.0663 -0.1051  0.0379
   37BDTP    C220482   7.146   8.428   1.895 -0.0598 -0.1681 -0.0750
   37BDTP    C320483   7.217   8.449   2.013  0.0426 -0.2544 -0.1209
   37BDTP    C420484   7.208   8.576   2.073  0.1435 -0.2799 -0.0526
   37BDTP    C520485   7.128   8.677   2.012  0.1371 -0.2167  0.0602
   37BDTP    C620486   7.056   8.655   1.895  0.0348 -0.1304  0.1062
   37BDTP    C720487   7.273   8.622   2.194  0.2594 -0.3654 -0.0817
   37BDTP    C820488   7.245   8.750   2.227  0.3392 -0.3693  0.0028
   37BDTP    S120489   7.133   8.831   2.109  0.2787 -0.2656  0.1310
   37BDTP    C920490   7.001   8.483   1.713 -0.1823 -0.0193  0.0669
   37BDTP   C1020491   7.028   8.354   1.680 -0.2619 -0.0153 -0.0175
   37BDTP    S220492   7.141   8.273   1.798 -0.2017 -0.1193 -0.1458
   38FTM     S120493   7.299   8.296   2.240 -0.0020  0.1489  0.0800
   38FTM     C120494   7.454   8.206   2.220 -0.1205 -0.0974  0.2692
   38FTM     C220495   7.500   8.221   2.093  0.0863 -0.1268  0.3405
   38FTM     C320496   7.420   8.301   2.006  0.3433  0.0362  0.2545
   38FTM     C420497   7.309   8.350   2.068  0.3329  0.1955  0.1126
   38FTM     F120498   7.618   8.162   2.049  0.0551 -0.3028  0.4879
   38FTM     C520499   7.493   8.106   2.323 -1.1589 -0.0193 -0.1377
   38FTM     C620500   7.498   8.138   2.473 -0.2284 -1.3778 -0.0887
   38FTM     C720501   7.463   8.026   2.566  0.3116 -0.5627  0.1449
   38FTM     C820502   7.554   7.906   2.552 -0.1570  0.4511  0.2990
   38FTM     C920503   7.568   7.801   2.663  0.9480  0.7073  0.3763
   38FTM    C1020504   7.674   7.694   2.659  0.0524  0.0351  0.2367
   38FTM    C1120505   7.581   8.267   2.518 -0.3579  0.1166  0.6003
   38FTM    C1220506   7.547   8.340   2.644 -0.2740 -0.1396 -0.0558
   39FTM     S120507   7.038   8.926   1.795  0.2620 -0.1514  0.0882
   39FTM     C120508   6.873   8.980   1.746  0.3589  0.1177  0.0593
   39FTM     C220509   6.784   8.879   1.763  0.2053  0.2358 -0.0364
   39FTM     C320510   6.837   8.756   1.815  0.0077  0.1271 -0.0918
   39FTM     C420511   6.971   8.763   1.838  0.0101 -0.0813 -0.0366
   39FTM     F120512   6.649   8.892   1.733  0.2345  0.4499 -0.0795
   39FTM     C520513   6.826   9.105   1.676 -0.0974 -0.0888  0.3664
   39FTM     C620514   6.800   9.237   1.753 -0.1831 -0.4759  0.1006
   39FTM     C720515   6.662   9.230   1.830 -0.0972 -0.3439  0.0603
   39FTM     C820516   6.532   9.256   1.743 -0.7928  0.0646 -0.1293
   39FTM     C920517   6.518   9.399   1.696  0.0232 -0.0942  0.0269
   39FTM    C1020518   6.379   9.436   1.648  0.3895  0.2365  0.2032
   39FTM    C1120519   6.908   9.302   1.840 -0.4441  0.4122  0.0479
   39FTM    C1220520   7.045   9.327   1.779  0.1231  0.1581  0.0473
   40TPM     C120521   6.973   8.270   1.574 -0.3537 -0.2398  0.3509
   40TPM     C220522   6.888   8.309   1.475 -0.7532 -0.5171  0.5839
   40TPM     C320523   6.844   8.201   1.391 -0.4529 -0.6266  0.5652
   40TPM     C420524   6.896   8.080   1.425  0.1755 -0.4327  0.3179
   40TPM     S120525   7.006   8.093   1.567  0.4389 -0.0947  0.0876
   41BDD     C120526   6.993   7.773   1.200  0.3105  0.0508 -0.2091
   41BDD     C220527   6.866   7.805   1.162  0.3070  0.0669 -0.1841
   41BDD     C320528   6.810   7.917   1.235  0.3189  0.0454 -0.1415
   41BDD     C420529   6.896   7.970   1.327  0.3312  0.0129 -0.1346
   41BDD     S120530   7.052   7.882   1.330  0.3289  0.0074 -0.1810
   41BDD     C520531   6.791   7.733   1.057  0.2927  0.1026 -0.1986
   41BDD     C620532   6.674   7.969   1.209  0.3175  0.0576 -0.1091
   41BDD     O120533   6.626   8.066   1.272  0.3276  0.0389 -0.0724
   41BDD     O220534   6.839   7.635   0.994  0.2825  0.1212 -0.2354
   41BDD     C720535   6.599   7.897   1.104  0.3031  0.0933 -0.1236
   41BDD     C820536   6.655   7.784   1.032  0.2912  0.1149 -0.1662
   41BDD     C920537   6.569   7.732   0.939  0.2791  0.1472 -0.1732
   41BDD     S220538   6.413   7.820   0.936  0.2814  0.1529 -0.1267
   41BDD    C1020539   6.472   7.929   1.066  0.2997  0.1096 -0.0986
   41BDD    C1120540   6.382   8.042   1.111  0.1885 -0.1199 -0.2801
   41BDD    C1220541   6.349   8.143   1.004 -0.2203  0.1593  0.2312
   41BDD    C1320542   6.242   8.241   1.049  0.3176 -0.7092  0.1713
   41BDD    C1420543   6.163   8.319   0.934 -0.5562 -0.1858  0.1916
   41BDD    C1520544   6.083   8.232   0.842  0.4261 -0.5616 -0.4058
   41BDD    C1620545   6.009   8.312   0.734 -0.6109 -0.2824 -0.5048
   41BDD    C1720546   6.466   8.203   0.915 -0.0769  0.7122 -0.4642
   41BDD    C1820547   6.568   8.283   1.010  1.0500  0.0837 -0.1013
   41BDD    C1920548   6.588   7.622   0.834  0.8464 -0.3396  0.2141
   41BDD    C2020549   6.505   7.497   0.857  0.0687  0.3072  0.1707
   41BDD    C2120550   6.518   7.429   0.999  0.4131 -0.1054  0.4938
   41BDD    C2220551   6.651   7.377   1.044 -0.0492 -0.2992 -0.2129
   41BDD    C2320552   6.663   7.334   1.189  0.4770 -0.4545  0.7033
   41BDD    C2420553   6.797   7.283   1.218 -0.2271 -0.0867 -0.1878
   41BDD    C2520554   6.508   7.399   0.743 -1.0219  0.0467  0.2971
   41BDD    C2620555   6.469   7.447   0.606  0.4747 -0.8035 -0.4089
   42TPM     C120556   7.099   7.681   1.161  0.1513 -0.0764  0.6411
   42TPM     C220557   7.187   7.634   1.253  0.3889 -0.0798  0.4138
   42TPM     C320558   7.276   7.533   1.202  0.3619  0.0319  0.1414
   42TPM     C420559   7.255   7.503   1.071  0.1039  0.1202  0.1612
   42TPM     S120560   7.120   7.601   1.001 -0.1271  0.0692  0.5280
   43BDTP    C120561   7.605   7.064   0.775 -0.0682  0.1770 -0.0097
   43BDTP    C220562   7.488   7.069   0.694 -0.0434  0.0952 -0.0509
   43BDTP    C320563   7.382   7.155   0.721 -0.0614  0.1057 -0.1567
   43BDTP    C420564   7.392   7.240   0.832 -0.1062  0.2016 -0.2251
   43BDTP    C520565   7.509   7.235   0.914 -0.1309  0.2834 -0.1839
   43BDTP    C620566   7.614   7.149   0.887 -0.1129  0.2730 -0.0782
   43BDTP    C720567   7.295   7.337   0.879 -0.1319  0.2304 -0.3374
   43BDTP    C820568   7.333   7.404   0.991 -0.1745  0.3290 -0.3819
   43BDTP    S120569   7.497   7.354   1.051 -0.1878  0.3988 -0.2879
   43BDTP    C920570   7.701   6.967   0.728 -0.0423  0.1481  0.1025
   43BDTP   C1020571   7.663   6.900   0.617  0.0002  0.0497  0.1471
   43BDTP    S220572   7.499   6.950   0.556  0.0137 -0.0201  0.0531
   44FTM     S120573   7.103   7.136   0.697  0.0836  0.0397  0.0612
   44FTM     C120574   7.031   7.179   0.537 -0.0507 -0.1109  0.0810
   44FTM     C220575   7.129   7.202   0.447 -0.1274 -0.2739 -0.0458
   44FTM     C320576   7.264   7.189   0.494 -0.0874 -0.2918 -0.1632
   44FTM     C420577   7.268   7.154   0.626  0.0237 -0.1368 -0.1251
   44FTM     F120578   7.104   7.238   0.315 -0.2384 -0.4171 -0.0630
   44FTM     C520579   6.875   7.178   0.533 -0.8284 -0.2291  0.3633
   44FTM     C620580   6.801   7.048   0.508  0.4535  0.2958  0.3720
   44FTM     C720581   6.649   7.053   0.535 -0.0250  0.7101 -0.5296
   44FTM     C820582   6.589   7.050   0.681  0.7945 -0.3414  0.3070
   44FTM     C920583   6.619   6.929   0.769 -0.1547  0.2025  0.1905
   44FTM    C1020584   6.612   6.955   0.919 -0.0435  0.1269  0.0069
   44FTM    C1120585   6.836   6.968   0.383  0.0947 -0.0218 -0.0437
   44FTM    C1220586   6.806   7.027   0.240 -0.1257 -0.2038  0.3349
   45FTM     S120587   7.882   7.262   0.942  0.1735 -0.0086  0.0895
   45FTM     C120588   7.947   7.221   1.105 -0.0745 -0.0470  0.1783
   45FTM     C220589   7.862   7.136   1.168 -0.1800 -0.0473  0.0365
   45FTM     C320590   7.744   7.098   1.095 -0.0770 -0.0184 -0.1456
   45FTM     C420591   7.739   7.156   0.972  0.1136  0.0047 -0.1430
   45FTM     F120592   7.885   7.087   1.296 -0.3765 -0.0737  0.0630
   45FTM     C520593   8.082   7.264   1.147  0.0608 -0.3455 -0.0207
   45FTM     C620594   8.193   7.192   1.222 -0.4808  0.7143  0.2764
   45FTM     C720595   8.318   7.276   1.246 -0.0943 -0.4687  0.0337
   45FTM     C820596   8.397   7.346   1.139  0.2574 -0.2130  0.1266
   45FTM     C920597   8.509   7.436   1.198  0.2092  0.2993  0.3185
   45FTM    C1020598   8.548   7.551   1.102 -0.0181  0.6620 -0.0294
   45FTM    C1120599   8.216   7.043   1.182 -0.3584 -0.1713 -0.7298
   45FTM    C1220600   8.321   6.976   1.274  0.6215  0.7507 -0.2502
   46TPM     C120601   7.741   6.817   0.533 -0.1262 -0.0155 -0.2643
   46TPM     C220602   7.726   6.797   0.399 -0.1372 -0.1036 -0.2501
   46TPM     C320603   7.824   6.709   0.342 -0.2277 -0.2545 -0.1740
   46TPM     C420604   7.915   6.662   0.432 -0.2855 -0.2817 -0.1301
   46TPM     S120605   7.883   6.725   0.598 -0.2301 -0.1175 -0.1820
   47BDD     C120606   8.133   6.388   0.255 -0.0256 -0.1695  0.3648
   47BDD     C220607   8.220   6.458   0.334  0.0281 -0.0991  0.2452
   47BDD     C320608   8.157   6.562   0.412  0.1087  0.0831  0.0681
   47BDD     C420609   8.022   6.571   0.391  0.1153  0.1489  0.0551
   47BDD     S120610   7.965   6.450   0.272  0.0209 -0.0125  0.2638
   47BDD     C520611   8.365   6.430   0.341  0.0074 -0.1968  0.2895
   47BDD     C620612   8.232   6.649   0.505  0.1760  0.1849 -0.0819
   47BDD     O120613   8.177   6.740   0.572  0.2456  0.3420 -0.2346
   47BDD     O220614   8.420   6.339   0.274 -0.0620 -0.3538  0.4422
   47BDD     C720615   8.377   6.622   0.512  0.1554  0.0873 -0.0376
   47BDD     C820616   8.440   6.517   0.434  0.0751 -0.0949  0.1395
   47BDD     C920617   8.575   6.508   0.455  0.0684 -0.1609  0.1525
   47BDD     S220618   8.632   6.629   0.574  0.1629  0.0005 -0.0561
   47BDD    C1020619   8.464   6.691   0.591  0.2091  0.1574 -0.1571
   47BDD    C1120620   8.453   6.808   0.693 -0.3089 -0.0456 -0.2995
   47BDD    C1220621   8.476   6.772   0.842 -0.4235  0.1122  0.8362
   47BDD    C1320622   8.370   6.679   0.911  0.9890 -0.0743  0.7118
   47BDD    C1420623   8.223   6.737   0.932 -0.9643  0.3611 -0.1165
   47BDD    C1520624   8.127   6.621   0.935 -0.2138 -0.7654 -0.2166
   47BDD    C1620625   7.986   6.663   0.969  0.7318  0.3322  0.1878
   47BDD    C1720626   8.498   6.902   0.925  0.3592  0.8699 -0.3125
   47BDD    C1820627   8.596   7.006   0.895  0.2878 -0.3832 -0.3683
   47BDD    C1920628   8.682   6.419   0.394  0.0022  0.3591  0.0961
   47BDD    C2020629   8.700   6.279   0.456  0.1035  0.3259  0.1212
   47BDD    C2120630   8.793   6.200   0.362 -0.1587  0.0805 -0.0666
   47BDD    C2220631   8.791   6.049   0.377  0.1739  0.1071  0.0358
   47BDD    C2320632   8.879   5.987   0.270 -0.4953 -0.2688 -0.2298
   47BDD    C2420633   8.893   5.841   0.278 -0.5761  0.3274 -0.2062
   47BDD    C2520634   8.755   6.263   0.605 -0.1808  0.2578  0.0810
   47BDD    C2620635   8.894   6.331   0.643  0.2588 -0.2160  0.1611
   48TPM     C120636   8.142   6.276   0.160  0.0187  0.0209 -0.3000
   48TPM     C220637   8.217   6.166   0.188  0.3495  0.2300 -0.3612
   48TPM     C320638   8.193   6.055   0.100  0.5300  0.1333 -0.2909
   48TPM     C420639   8.098   6.080   0.005  0.3360 -0.1496 -0.1760
   48TPM     S120640   8.033   6.247   0.019 -0.0925 -0.3172 -0.1475
   49BDTP    C120641   7.838   5.605  -0.320 -0.1560  0.1568  0.0405
   49BDTP    C220642   7.814   5.716  -0.406 -0.0255  0.1316 -0.0296
   49BDTP    C320643   7.855   5.845  -0.376  0.0558  0.1156 -0.0730
   49BDTP    C420644   7.924   5.866  -0.255  0.0063  0.1252 -0.0463
   49BDTP    C520645   7.949   5.755  -0.169 -0.1243  0.1502  0.0238
   49BDTP    C620646   7.907   5.626  -0.199 -0.2057  0.1661  0.0671
   49BDTP    C720647   7.977   5.990  -0.202  0.0719  0.1121 -0.0813
   49BDTP    C820648   8.039   5.978  -0.082 -0.0019  0.1262 -0.0415
   49BDTP    S120649   8.039   5.808  -0.019 -0.1652  0.1576  0.0460
   49BDTP    C920650   7.785   5.481  -0.372 -0.2218  0.1695  0.0756
   49BDTP   C1020651   7.723   5.493  -0.492 -0.1479  0.1557  0.0358
   49BDTP    S220652   7.723   5.664  -0.555  0.0153  0.1243 -0.0517
   50FTM     S120653   7.920   6.101  -0.500  0.1265  0.3855 -0.1300
   50FTM     C120654   7.793   6.167  -0.609 -0.1127  0.3582  0.1292
   50FTM     C220655   7.687   6.082  -0.612 -0.0718  0.2996  0.2925
   50FTM     C320656   7.697   5.964  -0.532  0.1432  0.2730  0.2275
   50FTM     C420657   7.815   5.958  -0.465  0.2708  0.3124  0.0071
   50FTM     F120658   7.573   6.107  -0.688 -0.2264  0.2664  0.5107
   50FTM     C520659   7.827   6.285  -0.693 -0.5957  0.3058 -0.2221
   50FTM     C620660   7.911   6.266  -0.823  0.1172  0.1173 -0.0189
   50FTM     C720661   7.915   6.384  -0.918 -0.0573 -0.4508 -0.1631
   50FTM     C820662   7.773   6.450  -0.949 -0.0515  0.2983  0.1778
   50FTM     C920663   7.762   6.579  -1.026 -0.1872  0.2012 -0.3408
   50FTM    C1020664   7.854   6.696  -0.984 -0.0536  0.7836  0.6157
   50FTM    C1120665   8.046   6.190  -0.814  0.4410  0.1481 -1.1939
   50FTM    C1220666   8.161   6.263  -0.759 -0.0417  0.5545 -0.4927
   51FTM     S120667   8.108   5.457  -0.076  0.0023 -0.0504  0.0047
   51FTM     C120668   8.043   5.353   0.056 -0.2681  0.4206  0.2490
   51FTM     C220669   7.909   5.370   0.068 -0.2805  0.5240 -0.0348
   51FTM     C320670   7.849   5.464  -0.023 -0.0854  0.2501 -0.4494
   51FTM     C420671   7.941   5.519  -0.107  0.0823 -0.0737 -0.4844
   51FTM     F120672   7.832   5.303   0.162 -0.4694  0.8730  0.0637
   51FTM     C520673   8.135   5.282   0.148  0.1681  0.4701 -0.3845
   51FTM     C620674   8.184   5.352   0.274 -0.4375  0.2266 -0.6872
   51FTM     C720675   8.274   5.474   0.269  0.6616  0.6752  0.0948
   51FTM     C820676   8.400   5.465   0.189  0.2621  0.1708 -0.1706
   51FTM     C920677   8.460   5.601   0.153 -0.2918 -0.5580  0.3106
   51FTM    C1020678   8.588   5.589   0.072  0.0282  0.0622  0.5393
   51FTM    C1120679   8.209   5.263   0.401  0.2552  0.2150 -0.0686
   51FTM    C1220680   8.104   5.156   0.438 -0.2119  0.2524  0.6340
   52TPM     C120681   7.666   5.392  -0.579  0.1466  0.0399  0.4088
   52TPM     C220682   7.621   5.396  -0.707  0.0138  0.6434  0.4685
   52TPM     C320683   7.567   5.271  -0.753 -0.4126  0.9687  0.0694
   52TPM     C420684   7.571   5.171  -0.660 -0.6049  0.6135 -0.2944
   52TPM     S120685   7.644   5.228  -0.505 -0.2601 -0.1657 -0.1606
   53BDD     C120686   7.405   4.830  -0.762 -0.2293 -0.0251 -0.0372
   53BDD     C220687   7.525   4.796  -0.705 -0.2270  0.0033 -0.0253
   53BDD     C320688   7.605   4.911  -0.666 -0.2236  0.0229 -0.0894
   53BDD     C420689   7.544   5.031  -0.694 -0.2235  0.0092 -0.1489
   53BDD     S120690   7.384   5.008  -0.771 -0.2275 -0.0292 -0.1295
   53BDD     C520691   7.570   4.657  -0.685 -0.2277  0.0134  0.0458
   53BDD     C620692   7.737   4.898  -0.603 -0.2208  0.0545 -0.0887
   53BDD     O120693   7.806   4.997  -0.569 -0.2179  0.0713 -0.1440
   53BDD     O220694   7.501   4.558  -0.718 -0.2307 -0.0035  0.1009
   53BDD     C720695   7.783   4.759  -0.582 -0.2214  0.0646 -0.0181
   53BDD     C820696   7.703   4.644  -0.621 -0.2247  0.0449  0.0460
   53BDD     C920697   7.763   4.524  -0.593 -0.2248  0.0587  0.1054
   53BDD     S220698   7.923   4.547  -0.516 -0.2209  0.0970  0.0858
   53BDD    C1020699   7.902   4.725  -0.525 -0.2190  0.0929 -0.0067
   53BDD    C1120700   8.012   4.816  -0.472  0.6006  0.7176  0.0517
   53BDD    C1220701   8.054   4.828  -0.322 -0.2113  0.1865  0.8516
   53BDD    C1320702   7.952   4.877  -0.221 -0.5968  0.1509  0.2995
   53BDD    C1420703   7.867   5.004  -0.250  0.4503 -0.4751 -0.6888
   53BDD    C1520704   7.777   5.030  -0.131  0.3268  0.7281  0.0468
   53BDD    C1620705   7.679   5.151  -0.147 -0.7407  0.2997 -0.0965
   53BDD    C1720706   8.115   4.711  -0.244  0.4304  0.2382 -0.1507
   53BDD    C1820707   8.241   4.642  -0.282 -0.2086 -0.5982  0.2876
   53BDD    C1920708   7.712   4.381  -0.610 -0.7260  0.2304  0.7498
   53BDD    C2020709   7.688   4.303  -0.479  0.1464 -0.0898  0.4551
   53BDD    C2120710   7.579   4.193  -0.488  0.3548  0.2405 -0.0714
   53BDD    C2220711   7.439   4.223  -0.555  0.1889  0.0660 -0.3137
   53BDD    C2320712   7.311   4.238  -0.470  0.5623  0.6439 -0.0890
   53BDD    C2420713   7.273   4.127  -0.371  0.1951 -0.0645 -0.3815
   53BDD    C2520714   7.804   4.263  -0.387  0.4340  0.2796 -0.3404
   53BDD    C2620715   7.918   4.185  -0.446 -0.0945 -0.0728  0.6548
   54TPM     C120716   7.291   4.757  -0.815  0.2468 -0.1643 -0.2755
   54TPM     C220717   7.171   4.778  -0.753  0.2208  0.2213 -0.4497
   54TPM     C320718   7.076   4.673  -0.775  0.0597  0.3228 -0.2429
   54TPM     C420719   7.122   4.572  -0.854 -0.0371  0.0148  0.0895
   54TPM     S120720   7.292   4.602  -0.907  0.0686 -0.4310  0.1669
   55BDTP    C120721   6.864   4.011  -0.979 -0.0484  0.0678 -0.1826
   55BDTP    C220722   6.752   4.098  -0.998 -0.0539  0.0730 -0.1271
   55BDTP    C320723   6.761   4.236  -0.982 -0.0603  0.0644 -0.0479
   55BDTP    C420724   6.886   4.290  -0.946 -0.0616  0.0499 -0.0219
   55BDTP    C520725   6.997   4.203  -0.927 -0.0561  0.0448 -0.0775
   55BDTP    C620726   6.988   4.066  -0.943 -0.0495  0.0533 -0.1571
   55BDTP    C720727   6.920   4.430  -0.924 -0.0678  0.0391  0.0573
   55BDTP    C820728   7.049   4.451  -0.890 -0.0672  0.0262  0.0634
   55BDTP    S120729   7.146   4.298  -0.881 -0.0588  0.0260 -0.0298
   55BDTP    C920730   6.830   3.872  -1.001 -0.0421  0.0787 -0.2620
   55BDTP   C1020731   6.701   3.851  -1.035 -0.0427  0.0916 -0.2682
   55BDTP    S220732   6.603   4.004  -1.044 -0.0510  0.0916 -0.1749
   56FTM     S120733   6.514   4.329  -0.867 -0.4307  0.1630 -0.1588
   56FTM     C120734   6.426   4.453  -0.963 -0.1913  0.2602 -0.2558
   56FTM     C220735   6.493   4.479  -1.079  0.0217  0.2713 -0.1295
   56FTM     C320736   6.615   4.406  -1.099  0.0119  0.2065  0.0453
   56FTM     C420737   6.641   4.321  -0.995 -0.2159  0.1438  0.0542
   56FTM     F120738   6.448   4.570  -1.173  0.2379  0.3408 -0.1657
   56FTM     C520739   6.303   4.519  -0.911  0.1170  0.0575  0.6778
   56FTM     C620740   6.201   4.462  -0.819  0.2563  1.1343  0.1627
   56FTM     C720741   6.238   4.435  -0.672 -0.3655  0.4062 -0.1158
   56FTM     C820742   6.267   4.545  -0.573  1.2139 -0.4645 -0.5467
   56FTM     C920743   6.156   4.651  -0.556 -0.0404 -0.0475 -0.3724
   56FTM    C1020744   6.157   4.748  -0.441  0.3963 -0.3723  0.0030
   56FTM    C1120745   6.117   4.338  -0.880 -1.0825  0.1559  0.3403
   56FTM    C1220746   6.062   4.346  -1.027  0.0703  0.0163  0.0291
   57FTM     S120747   7.112   3.827  -0.839 -0.1020 -0.0480 -0.1303
   57FTM     C120748   7.288   3.811  -0.875 -0.1067 -0.1505 -0.1076
   57FTM     C220749   7.331   3.919  -0.946 -0.0747 -0.2622 -0.2596
   57FTM     C320750   7.232   4.018  -0.976 -0.0452 -0.2747 -0.3994
   57FTM     C420751   7.109   3.986  -0.926 -0.0550 -0.1690 -0.3532
   57FTM     F120752   7.462   3.934  -0.988 -0.0702 -0.3600 -0.2813
   57FTM     C520753   7.362   3.691  -0.830  0.5470 -0.0949 -0.0892
   57FTM     C620754   7.482   3.702  -0.738  0.5171 -0.7745  0.0474
   57FTM     C720755   7.574   3.585  -0.725 -0.2795  0.3629 -0.0246
   57FTM     C820756   7.638   3.511  -0.847  0.5563 -0.4724 -0.0971
   57FTM     C920757   7.723   3.594  -0.946  0.0561  0.4203  0.9504
   57FTM    C1020758   7.769   3.496  -1.050  0.0206 -0.2278  0.5688
   57FTM    C1120759   7.446   3.770  -0.609  0.5295 -0.1730  0.1536
   57FTM    C1220760   7.346   3.701  -0.521 -0.0571  0.4345 -0.4008
   58TPM     C120761   6.629   3.730  -1.069  0.0999 -0.1663  0.4003
   58TPM     C220762   6.496   3.704  -1.080  0.0930 -0.1695  0.4921
   58TPM     C320763   6.466   3.569  -1.120  0.0794 -0.0783  0.1884
   58TPM     C420764   6.577   3.491  -1.139  0.0762 -0.0056 -0.1354
   58TPM     S120765   6.729   3.584  -1.108  0.0902 -0.0469 -0.0806
   59BDD     C120766   6.560   3.128  -1.290  0.2201  0.1451  0.0271
   59BDD     C220767   6.554   3.111  -1.154  0.1637  0.1199  0.0222
   59BDD     C320768   6.561   3.236  -1.080  0.0288  0.1139  0.0453
   59BDD     C420769   6.572   3.346  -1.160 -0.0155  0.1348  0.0676
   59BDD     S120770   6.574   3.302  -1.334  0.1086  0.1633  0.0618
   59BDD     C520771   6.542   2.980  -1.088  0.2313  0.1003 -0.0048
   59BDD     C620772   6.557   3.241  -0.933 -0.0511  0.0878  0.0439
   59BDD     O120773   6.563   3.349  -0.869 -0.1673  0.0826  0.0639
   59BDD     O220774   6.536   2.872  -1.152  0.3474  0.1054 -0.0248
   59BDD     C720775   6.545   3.110  -0.866  0.0166  0.0682  0.0174
   59BDD     C820776   6.538   2.985  -0.940  0.1512  0.0741 -0.0057
   59BDD     C920777   6.528   2.875  -0.860  0.1955  0.0534 -0.0286
   59BDD     S220778   6.526   2.919  -0.686  0.0715  0.0248 -0.0225
   59BDD    C1020779   6.540   3.093  -0.731 -0.0399  0.0430  0.0119
   59BDD    C1120780   6.552   3.186  -0.612  0.3827 -0.3424  0.8357
   59BDD    C1220781   6.426   3.207  -0.534 -0.5718  0.4543 -0.6118
   59BDD    C1320782   6.303   3.257  -0.614 -0.5597 -0.1028  0.5725
   59BDD    C1420783   6.299   3.403  -0.659 -0.0921  0.2187  0.2140
   59BDD    C1520784   6.167   3.418  -0.737 -0.0876 -0.1779  0.3726
   59BDD    C1620785   6.151   3.549  -0.803 -0.2297 -0.1479  0.3304
   59BDD    C1720786   6.460   3.276  -0.397  0.1630  0.4416  0.5231
   59BDD    C1820787   6.341   3.305  -0.301  0.3240 -0.2651 -0.1957
   59BDD    C1920788   6.541   2.727  -0.887 -0.0161  0.7904 -0.5596
   59BDD    C2020789   6.414   2.656  -0.947 -0.2046 -0.5826  0.6114
   59BDD    C2120790   6.473   2.523  -0.997  0.7654  0.6146  0.1243
   59BDD    C2220791   6.387   2.428  -1.075 -0.4533  0.5747 -0.3106
   59BDD    C2320792   6.426   2.279  -1.065  0.1430  0.5802 -0.2217
   59BDD    C2420793   6.338   2.175  -1.131  0.7075 -0.2764  0.1970
   59BDD    C2520794   6.279   2.663  -0.874 -0.3986 -0.2644 -1.0187
   59BDD    C2620795   6.269   2.590  -0.735 -0.4024 -0.0401 -0.2136
   60TPM     C120796   6.544   3.047  -1.411  0.1773  0.3496 -0.2066
   60TPM     C220797   6.566   2.912  -1.419 -0.0918  0.3082 -0.2685
   60TPM     C320798   6.562   2.861  -1.553 -0.6343  0.2993 -0.2556
   60TPM     C420799   6.538   2.956  -1.648 -0.7785  0.3338 -0.1836
   60TPM     S120800   6.517   3.119  -1.574 -0.2364  0.3808 -0.1268
    1BDTP    C120801   5.507   0.978   8.704 -0.0529  0.0813  0.0017
    1BDTP    C220802   5.617   0.937   8.785 -0.0563  0.0331 -0.0181
    1BDTP    C320803   5.685   1.025   8.869 -0.1000 -0.0309  0.0842
    1BDTP    C420804   5.643   1.159   8.873 -0.1428 -0.0482  0.2129
    1BDTP    C520805   5.533   1.200   8.792 -0.1396  0.0001  0.2329
    1BDTP    C620806   5.465   1.112   8.708 -0.0957  0.0641  0.1303
    1BDTP    C720807   5.698   1.267   8.952 -0.1922 -0.1113  0.3342
    1BDTP    C820808   5.635   1.386   8.934 -0.2259 -0.1127  0.4435
    1BDTP    S120809   5.498   1.377   8.815 -0.1997 -0.0343  0.4072
    1BDTP    C920810   5.452   0.870   8.625 -0.0035  0.1445 -0.1202
    1BDTP   C1020811   5.514   0.751   8.643  0.0302  0.1459 -0.2291
    1BDTP    S220812   5.652   0.760   8.762  0.0039  0.0674 -0.1930
    2FTM     S120813   5.766   0.897   9.114  0.1243  0.3696  0.0223
    2FTM     C120814   5.938   0.843   9.120 -0.0574 -0.2205  0.1298
    2FTM     C220815   6.002   0.882   9.006  0.1339 -0.4807  0.1483
    2FTM     C320816   5.923   0.953   8.910  0.4265 -0.2429  0.0808
    2FTM     C420817   5.794   0.970   8.952  0.4603  0.2143  0.0089
    2FTM     F120818   6.136   0.854   8.982  0.0556 -0.9497  0.2267
    2FTM     C520819   5.987   0.766   9.242 -0.7122 -0.4513  0.3341
    2FTM     C620820   6.069   0.637   9.222 -0.0685 -0.3261 -1.0119
    2FTM     C720821   6.118   0.580   9.357 -0.5754 -0.3927 -0.3725
    2FTM     C820822   6.231   0.659   9.421 -0.4889 -0.0484  0.3070
    2FTM     C920823   6.370   0.631   9.359 -0.7518 -0.3998  0.3507
    2FTM    C1020824   6.486   0.699   9.430  0.7809  0.1223 -0.0265
    2FTM    C1120825   6.009   0.530   9.126 -0.1657 -0.7424 -0.0266
    2FTM    C1220826   6.086   0.400   9.104  0.2261  0.4401 -0.3965
    3FTM     S120827   5.212   1.056   8.586 -0.2228 -0.0966 -0.4214
    3FTM     C120828   5.154   1.175   8.463 -0.1310  0.2213 -0.1597
    3FTM     C220829   5.244   1.275   8.450 -0.2617  0.4147  0.3855
    3FTM     C320830   5.361   1.267   8.533 -0.4373  0.3295  0.6273
    3FTM     C420831   5.360   1.156   8.612 -0.4409  0.0622  0.2547
    3FTM     F120832   5.226   1.382   8.363 -0.2303  0.6803  0.6983
    3FTM     C520833   5.021   1.170   8.397  0.9784  0.8731  0.5338
    3FTM     C620834   4.884   1.179   8.464  0.5934  0.1441  0.3525
    3FTM     C720835   4.771   1.226   8.367 -0.1829  0.8971  0.1221
    3FTM     C820836   4.752   1.369   8.330 -0.2316 -0.7163  0.7102
    3FTM     C920837   4.782   1.488   8.420  0.4967 -0.0046 -0.5058
    3FTM    C1020838   4.788   1.613   8.331  0.1232  0.2143 -0.4481
    3FTM    C1120839   4.856   1.080   8.583 -0.1598 -0.7444 -0.2485
    3FTM    C1220840   4.736   1.113   8.670 -0.3599 -0.7328  0.2809
    4TPM     C120841   5.505   0.633   8.565  0.1268  0.1966 -0.2019
    4TPM     C220842   5.587   0.524   8.559  0.2509  0.3072 -0.5035
    4TPM     C320843   5.544   0.424   8.464  0.0348  0.2479 -0.3428
    4TPM     C420844   5.428   0.457   8.399 -0.2542  0.0922  0.0813
    4TPM     S120845   5.365   0.617   8.452 -0.2760  0.0077  0.3126
    5BDD     C120846   5.387   0.175   8.125  0.2171  0.1665 -0.0656
    5BDD     C220847   5.315   0.281   8.077  0.1487  0.1464 -0.0074
    5BDD     C320848   5.315   0.396   8.166  0.2028  0.1524 -0.0150
    5BDD     C420849   5.386   0.376   8.280  0.3115  0.1770 -0.0789
    5BDD     S120850   5.460   0.212   8.285  0.3538  0.1942 -0.1335
    5BDD     C520851   5.244   0.280   7.947  0.0311  0.1210  0.0571
    5BDD     C620852   5.243   0.521   8.134  0.1445  0.1336  0.0410
    5BDD     O120853   5.243   0.620   8.210  0.1911  0.1388  0.0343
    5BDD     O220854   5.244   0.181   7.871 -0.0155  0.1159  0.0635
    5BDD     C720855   5.172   0.520   8.004  0.0271  0.1082  0.1056
    5BDD     C820856   5.172   0.406   7.915 -0.0271  0.1022  0.1134
    5BDD     C920857   5.100   0.425   7.801 -0.1358  0.0777  0.1773
    5BDD     S220858   5.027   0.589   7.796 -0.1781  0.0604  0.2319
    5BDD    C1020859   5.099   0.626   7.956 -0.0412  0.0881  0.1639
    5BDD    C1120860   5.076   0.765   8.009  0.4933 -0.0231  0.1129
    5BDD    C1220861   4.940   0.819   8.060 -0.6627 -0.9992  0.2789
    5BDD    C1320862   4.925   0.799   8.214  0.6520 -0.8803 -0.0656
    5BDD    C1420863   4.896   0.657   8.265  0.4624 -0.4835 -0.1535
    5BDD    C1520864   4.868   0.662   8.418  0.1995  0.2851  0.2591
    5BDD    C1620865   4.846   0.526   8.476 -1.1503  0.1715 -0.4441
    5BDD    C1720866   4.815   0.814   7.976  0.3796 -0.6397  0.7106
    5BDD    C1820867   4.699   0.912   8.016  0.4563  0.8900  0.7164
    5BDD    C1920868   5.067   0.340   7.676  0.0314 -0.0224  0.2286
    5BDD    C2020869   5.178   0.331   7.566 -0.1223 -0.4209 -0.1912
    5BDD    C2120870   5.147   0.212   7.471  0.1114 -0.9703 -0.1452
    5BDD    C2220871   5.247   0.158   7.367 -0.5625 -1.0821 -0.2115
    5BDD    C2320872   5.381   0.098   7.406  0.3393 -0.8420 -0.5654
    5BDD    C2420873   5.376  -0.015   7.510 -0.0656 -0.8103  0.2094
    5BDD    C2520874   5.228   0.466   7.503  0.3013 -0.1544 -0.5237
    5BDD    C2620875   5.138   0.565   7.429  0.3475  0.3522 -0.3293
    6TPM     C120876   5.416   0.033   8.086 -0.2484 -0.1416 -0.0534
    6TPM     C220877   5.502  -0.043   8.160 -0.4743 -0.1976  0.1559
    6TPM     C320878   5.514  -0.179   8.113 -0.4452 -0.2038  0.1812
    6TPM     C420879   5.437  -0.206   8.004 -0.1968 -0.1523 -0.0089
    6TPM     S120880   5.343  -0.062   7.952  0.0210 -0.0920 -0.2366
    7BDTP    C120881   5.414  -0.682   7.600  0.1106 -0.0179 -0.0584
    7BDTP    C220882   5.441  -0.748   7.724  0.1377 -0.0460 -0.0790
    7BDTP    C320883   5.453  -0.679   7.844  0.0921 -0.0803 -0.0546
    7BDTP    C420884   5.438  -0.539   7.842  0.0165 -0.0875 -0.0080
    7BDTP    C520885   5.411  -0.474   7.718 -0.0106 -0.0596  0.0124
    7BDTP    C620886   5.400  -0.542   7.598  0.0349 -0.0254 -0.0118
    7BDTP    C720887   5.446  -0.447   7.953 -0.0412 -0.1216  0.0241
    7BDTP    C820888   5.427  -0.317   7.920 -0.1094 -0.1202  0.0671
    7BDTP    S120889   5.396  -0.293   7.742 -0.1101 -0.0758  0.0731
    7BDTP    C920890   5.407  -0.774   7.488  0.1683  0.0157 -0.0905
    7BDTP   C1020891   5.425  -0.904   7.522  0.2365  0.0145 -0.1336
    7BDTP    S220892   5.456  -0.928   7.700  0.2373 -0.0296 -0.1395
    8FTM     S120893   5.348  -0.887   8.005 -0.0140  0.3873  0.1887
    8FTM     C120894   5.419  -0.911   8.169  0.1076  0.1164  0.0975
    8FTM     C220895   5.516  -0.819   8.191  0.1767  0.0315  0.1478
    8FTM     C320896   5.541  -0.726   8.085  0.1400  0.1686  0.2575
    8FTM     C420897   5.460  -0.748   7.978  0.0396  0.3642  0.2926
    8FTM     F120898   5.589  -0.813   8.309  0.2772 -0.1750  0.0970
    8FTM     C520899   5.376  -1.017   8.266  0.2902 -0.5496 -0.4497
    8FTM     C620900   5.227  -1.059   8.292 -0.2337  0.2460  0.1667
    8FTM     C720901   5.218  -1.167   8.396  0.1792  0.4855 -0.5343
    8FTM     C820902   5.297  -1.296   8.366 -0.5849  0.9158 -0.3576
    8FTM     C920903   5.298  -1.385   8.492 -0.3958 -0.4786  0.4030
    8FTM    C1020904   5.403  -1.496   8.477  0.0087  0.4026 -0.1716
    8FTM    C1120905   5.133  -0.940   8.309  0.3530 -0.4264 -0.0619
    8FTM    C1220906   4.983  -0.965   8.300 -0.5771 -0.1723 -0.1655
    9FTM     S120907   5.461  -0.494   7.318 -0.0683  0.0868  0.0491
    9FTM     C120908   5.343  -0.388   7.232 -0.1161  0.1548  0.1968
    9FTM     C220909   5.251  -0.341   7.319 -0.1183  0.0167  0.2693
    9FTM     C320910   5.266  -0.384   7.455 -0.0837 -0.1462  0.2156
    9FTM     C420911   5.373  -0.466   7.473 -0.0540 -0.1322  0.0982
    9FTM     F120912   5.148  -0.257   7.282 -0.1518  0.0296  0.3889
    9FTM     C520913   5.371  -0.371   7.083 -0.1174  0.3847 -0.2214
    9FTM     C620914   5.347  -0.235   7.013 -0.2906 -0.2900  0.2425
    9FTM     C720915   5.323  -0.239   6.858  0.2463 -0.3319  0.0928
    9FTM     C820916   5.189  -0.285   6.817  0.0495  0.5244  0.3566
    9FTM     C920917   5.145  -0.264   6.672 -0.8336  0.3946 -0.1106
    9FTM    C1020918   5.014  -0.319   6.642  0.3904  0.3218  0.3146
    9FTM    C1120919   5.435  -0.116   7.052  0.6576  0.5395  0.0460
    9FTM    C1220920   5.369   0.019   7.038 -0.4080 -0.3658 -0.3429
   10TPM     C120921   5.419  -1.022   7.438  0.0919 -0.0163 -0.4760
   10TPM     C220922   5.479  -1.141   7.466  0.2793  0.0656 -0.5233
   10TPM     C320923   5.469  -1.238   7.360  0.3653  0.0668 -0.5324
   10TPM     C420924   5.402  -1.192   7.251  0.2435 -0.0146 -0.4917
   10TPM     S120925   5.346  -1.022   7.273  0.0089 -0.0991 -0.4385
   11BDD     C120926   5.376  -1.314   6.877  0.2229  0.0317  0.0054
   11BDD     C220927   5.360  -1.426   6.954  0.1935  0.0238 -0.0124
   11BDD     C320928   5.369  -1.400   7.096  0.2178 -0.0045 -0.0089
   11BDD     C420929   5.393  -1.268   7.126  0.2653 -0.0177  0.0116
   11BDD     S120930   5.405  -1.168   6.978  0.2829  0.0041  0.0278
   11BDD     C520931   5.334  -1.560   6.899  0.1419  0.0420 -0.0331
   11BDD     C620932   5.355  -1.506   7.198  0.1928 -0.0172 -0.0257
   11BDD     O120933   5.363  -1.484   7.321  0.2136 -0.0417 -0.0228
   11BDD     O220934   5.326  -1.583   6.776  0.1210  0.0663 -0.0361
   11BDD     C720935   5.329  -1.641   7.143  0.1413  0.0010 -0.0466
   11BDD     C820936   5.319  -1.667   7.000  0.1171  0.0291 -0.0501
   11BDD     C920937   5.296  -1.798   6.970  0.0695  0.0424 -0.0705
   11BDD     S220938   5.284  -1.898   7.119  0.0518  0.0205 -0.0867
   11BDD    C1020939   5.313  -1.753   7.220  0.1118 -0.0069 -0.0645
   11BDD    C1120940   5.328  -1.775   7.368 -0.0373  0.6695 -0.3317
   11BDD    C1220941   5.476  -1.773   7.425  0.3621 -0.3243  0.2060
   11BDD    C1320942   5.476  -1.789   7.583  0.7179 -0.4227  0.0564
   11BDD    C1420943   5.600  -1.747   7.659 -0.3687  0.2659 -0.1994
   11BDD    C1520944   5.684  -1.629   7.617  0.0776  0.1556 -0.6635
   11BDD    C1620945   5.636  -1.504   7.687  0.0006  0.6431  0.3869
   11BDD    C1720946   5.589  -1.857   7.352  0.5466 -0.1174 -0.1545
   11BDD    C1820947   5.574  -2.009   7.311  0.0287 -0.5471 -0.1181
   11BDD    C1920948   5.297  -1.874   6.840 -0.0202  0.5191  0.1326
   11BDD    C2020949   5.431  -1.917   6.778  0.0654 -0.0386 -0.2602
   11BDD    C2120950   5.526  -1.999   6.872 -0.1591  0.0488  0.2925
   11BDD    C2220951   5.664  -2.025   6.828  0.2081  0.1385 -0.3397
   11BDD    C2320952   5.743  -2.077   6.946 -0.7815 -0.9813 -0.1647
   11BDD    C2420953   5.874  -2.115   6.902  0.1323  0.9665  0.4097
   11BDD    C2520954   5.409  -1.967   6.634 -0.0963 -0.0797  0.2632
   11BDD    C2620955   5.347  -2.103   6.609 -0.1387  1.0309 -0.0785
   12TPM     C120956   5.357  -1.277   6.736 -0.3671 -0.1330  0.0897
   12TPM     C220957   5.312  -1.155   6.698 -1.5093 -0.5360  0.0794
   12TPM     C320958   5.293  -1.142   6.555 -1.7233 -0.7501  0.0875
   12TPM     C420959   5.323  -1.254   6.485 -0.7443 -0.5101  0.1040
   12TPM     S120960   5.380  -1.387   6.594  0.5340  0.0092  0.1105
   13BDTP    C120961   5.219  -1.411   5.881  0.0265  0.1435 -0.1280
   13BDTP    C220962   5.230  -1.270   5.874  0.1111  0.1435  0.0064
   13BDTP    C320963   5.255  -1.191   5.985  0.0485  0.0324  0.1000
   13BDTP    C420964   5.270  -1.255   6.110 -0.1050 -0.0844  0.0590
   13BDTP    C520965   5.259  -1.396   6.117 -0.1898 -0.0849 -0.0756
   13BDTP    C620966   5.234  -1.475   6.006 -0.1272  0.0259 -0.1690
   13BDTP    C720967   5.297  -1.194   6.239 -0.1944 -0.2117  0.1378
   13BDTP    C820968   5.306  -1.282   6.341 -0.3402 -0.3061  0.0699
   13BDTP    S120969   5.282  -1.455   6.288 -0.3849 -0.2477 -0.1037
   13BDTP    C920970   5.192  -1.472   5.752  0.1158  0.2704 -0.2068
   13BDTP   C1020971   5.183  -1.384   5.650  0.2617  0.3648 -0.1389
   13BDTP    S220972   5.207  -1.211   5.703  0.3064  0.3065  0.0347
   14FTM     S120973   5.133  -0.957   5.881  0.2898  0.1216  0.0105
   14FTM     C120974   5.229  -0.805   5.885  0.0761  0.2576  0.0139
   14FTM     C220975   5.348  -0.827   5.948  0.1783  0.3819 -0.1352
   14FTM     C320976   5.371  -0.960   5.995  0.4234  0.3796 -0.2583
   14FTM     C420977   5.266  -1.043   5.968  0.5116  0.2488 -0.2015
   14FTM     F120978   5.443  -0.727   5.966  0.0561  0.5057 -0.1690
   14FTM     C520979   5.180  -0.676   5.826 -0.3993  0.0176 -1.0557
   14FTM     C620980   5.161  -0.659   5.668 -1.4520 -0.0173 -0.5410
   14FTM     C720981   5.296  -0.648   5.592 -0.0387  0.2202  0.7778
   14FTM     C820982   5.410  -0.559   5.648  0.0533 -0.3770 -0.2853
   14FTM     C920983   5.382  -0.413   5.619  0.0588 -0.3304  0.2940
   14FTM    C1020984   5.513  -0.333   5.617 -0.1295  0.6997  0.3182
   14FTM    C1120985   5.069  -0.755   5.593 -0.2508 -0.5135 -0.0045
   14FTM    C1220986   4.924  -0.747   5.626  0.1065  0.0111  0.6771
   15FTM     S120987   5.067  -1.709   5.989  0.0099 -0.2444  0.3300
   15FTM     C120988   5.148  -1.869   5.997  0.4530 -0.0652 -0.3740
   15FTM     C220989   5.281  -1.853   6.020  0.4818  0.2095 -0.7277
   15FTM     C320990   5.327  -1.717   6.032  0.1690  0.2953 -0.4789
   15FTM     C420991   5.225  -1.628   6.018 -0.1086  0.0792  0.0837
   15FTM     F120992   5.369  -1.959   6.032  0.7936  0.3994 -1.2976
   15FTM     C520993   5.070  -1.996   5.981 -0.4692  0.2887  0.6147
   15FTM     C620994   5.010  -2.049   5.853  0.1313  0.0369 -0.3861
   15FTM     C720995   4.941  -2.186   5.880  0.3815  0.1083  0.1945
   15FTM     C820996   5.027  -2.309   5.895 -0.3741  0.1995  0.1388
   15FTM     C920997   4.944  -2.435   5.933  0.6002 -0.0862  0.2868
   15FTM    C1020998   5.019  -2.564   5.955 -0.0199 -0.2916  0.2870
   15FTM    C1120999   4.919  -1.955   5.769 -0.4629  0.5790  0.1415
   15FTM    C1221000   4.858  -1.985   5.636  0.0209 -0.0334  0.2051
   16TPM     C121001   5.149  -1.411   5.512 -0.8228  0.1029  0.3789
   16TPM     C221002   5.113  -1.325   5.412 -1.1753 -0.0286  0.3883
   16TPM     C321003   5.089  -1.389   5.286 -0.9394 -0.1154  0.3873
   16TPM     C421004   5.107  -1.524   5.288 -0.4074 -0.0499  0.3774
   16TPM     S121005   5.155  -1.581   5.452 -0.1610  0.1277  0.3682
   17BDD     C121006   5.064  -1.644   4.911  0.1566 -0.1134 -0.2070
   17BDD     C221007   5.073  -1.761   4.982  0.1453 -0.1156 -0.2093
   17BDD     C321008   5.085  -1.740   5.125  0.2239 -0.1184 -0.2159
   17BDD     C421009   5.086  -1.608   5.161  0.2939 -0.1181 -0.2184
   17BDD     S121010   5.071  -1.501   5.018  0.2663 -0.1142 -0.2126
   17BDD     C521011   5.070  -1.895   4.921  0.0622 -0.1156 -0.2056
   17BDD     C621012   5.096  -1.852   5.221  0.2267 -0.1209 -0.2195
   17BDD     O121013   5.107  -1.834   5.344  0.2944 -0.1233 -0.2252
   17BDD     O221014   5.059  -1.913   4.797 -0.0055 -0.1135 -0.2000
   17BDD     C721015   5.093  -1.987   5.160  0.1434 -0.1209 -0.2159
   17BDD     C821016   5.081  -2.007   5.016  0.0648 -0.1183 -0.2093
   17BDD     C921017   5.080  -2.139   4.980 -0.0049 -0.1190 -0.2067
   17BDD     S221018   5.095  -2.247   5.123  0.0227 -0.1224 -0.2125
   17BDD    C1021019   5.102  -2.103   5.230  0.1323 -0.1234 -0.2183
   17BDD    C1121020   5.140  -2.125   5.382  0.1627 -0.1185  0.1436
   17BDD    C1221021   5.282  -2.143   5.431 -0.3879 -0.1707  0.3180
   17BDD    C1321022   5.292  -2.136   5.581  0.3908 -0.0227 -0.0763
   17BDD    C1421023   5.426  -2.136   5.654  0.4615 -0.2312 -0.3624
   17BDD    C1521024   5.418  -2.208   5.786  0.6017 -0.0116  0.3600
   17BDD    C1621025   5.544  -2.245   5.856 -0.0168  0.1863 -0.5118
   17BDD    C1721026   5.378  -2.239   5.352 -0.4521  0.1856  0.1056
   17BDD    C1821027   5.338  -2.381   5.343  0.6333  0.5949  0.3318
   17BDD    C1921028   5.069  -2.212   4.846  0.0641 -0.3187  0.0161
   17BDD    C2021029   4.934  -2.288   4.829 -0.0313  0.1823 -0.3693
   17BDD    C2121030   4.812  -2.189   4.843  0.1408 -0.1784 -0.2060
   17BDD    C2221031   4.779  -2.074   4.742 -0.5020  0.7815 -0.0905
   17BDD    C2321032   4.642  -2.020   4.778  0.5862  0.6870  0.1766
   17BDD    C2421033   4.598  -1.891   4.703  0.1746  0.5712 -0.1316
   17BDD    C2521034   4.937  -2.365   4.695  0.2278  0.9335 -0.6272
   17BDD    C2621035   4.821  -2.464   4.667 -0.5077  0.0800  0.1122
   18TPM     C121036   5.054  -1.606   4.768 -0.3021  0.0080  0.1404
   18TPM     C221037   5.127  -1.501   4.722 -0.6233  0.3498  0.3903
   18TPM     C321038   5.108  -1.474   4.581 -0.5050  0.4551  0.3936
   18TPM     C421039   5.019  -1.559   4.521 -0.0935  0.1934  0.1462
   18TPM     S121040   4.953  -1.680   4.638  0.1784 -0.2095 -0.1121
   19BDTP    C121041   4.801  -1.420   3.951 -0.0037 -0.0017 -0.2617
   19BDTP    C221042   4.803  -1.563   3.950 -0.0700 -0.0026 -0.2636
   19BDTP    C321043   4.841  -1.638   4.060 -0.0499 -0.0204 -0.2824
   19BDTP    C421044   4.878  -1.570   4.178  0.0395 -0.0381 -0.3003
   19BDTP    C521045   4.876  -1.427   4.179  0.1057 -0.0374 -0.2981
   19BDTP    C621046   4.838  -1.352   4.068  0.0857 -0.0194 -0.2794
   19BDTP    C721047   4.920  -1.626   4.304  0.0764 -0.0585 -0.3213
   19BDTP    C821048   4.949  -1.534   4.399  0.1657 -0.0725 -0.3352
   19BDTP    S121049   4.927  -1.363   4.341  0.2159 -0.0620 -0.3232
   19BDTP    C921050   4.759  -1.364   3.824 -0.0405  0.0186 -0.2404
   19BDTP   C1021051   4.730  -1.456   3.729 -0.1299  0.0327 -0.2267
   19BDTP    S221052   4.752  -1.627   3.787 -0.1801  0.0222 -0.2385
   20FTM     S121053   4.978  -1.885   4.104  0.0934  0.1204  0.0672
   20FTM     C121054   4.883  -2.035   4.079 -0.3453  0.3385  0.4051
   20FTM     C221055   4.756  -2.004   4.041 -0.3417  0.6264  0.6255
   20FTM     C321056   4.726  -1.864   4.029 -0.0057  0.6934  0.5468
   20FTM     C421057   4.833  -1.786   4.059  0.2565  0.4488  0.2569
   20FTM     F121058   4.659  -2.100   4.015 -0.6424  0.8465  0.9114
   20FTM     C521059   4.940  -2.169   4.114 -0.2468  0.3441 -0.2780
   20FTM     C621060   4.900  -2.226   4.255 -0.2142  0.3009  0.0717
   20FTM     C721061   4.951  -2.370   4.285 -0.1844 -0.0912 -0.0932
   20FTM     C821062   4.872  -2.486   4.227 -0.0230 -0.9301  0.4339
   20FTM     C921063   4.929  -2.622   4.240 -0.1788 -0.2584  0.2519
   20FTM    C1021064   4.856  -2.718   4.156  0.4059  0.5090  0.4012
   20FTM    C1121065   4.900  -2.124   4.370  0.2242  0.0424 -0.5507
   20FTM    C1221066   5.038  -2.075   4.425 -0.1688 -0.6821  0.7582
   21FTM     S121067   4.992  -1.111   4.109  0.0886 -0.1162 -0.0874
   21FTM     C121068   4.898  -0.958   4.097 -0.2560 -0.3283 -0.1063
   21FTM     C221069   4.768  -0.986   4.067 -0.1851 -0.6220 -0.1473
   21FTM     C321070   4.735  -1.124   4.053  0.1340 -0.6979 -0.1665
   21FTM     C421071   4.843  -1.205   4.073  0.3132 -0.4546 -0.1390
   21FTM     F121072   4.671  -0.887   4.052 -0.4048 -0.8397 -0.1704
   21FTM     C521073   4.961  -0.820   4.101  0.0673  0.1510 -0.5225
   21FTM     C621074   5.047  -0.760   3.988  0.0851 -0.6344  0.6231
   21FTM     C721075   5.176  -0.836   3.946 -0.1043  1.0701 -0.1856
   21FTM     C821076   5.292  -0.831   4.054  0.1509 -0.1919 -0.3038
   21FTM     C921077   5.380  -0.950   4.043 -0.2327 -0.1642  0.8574
   21FTM    C1021078   5.473  -0.962   4.162 -0.6462  0.3383  0.5655
   21FTM    C1121079   4.976  -0.728   3.851 -0.1927 -0.3218 -0.4220
   21FTM    C1221080   4.847  -0.638   3.854  0.1332 -0.1027  0.0034
   22TPM     C121081   4.681  -1.436   3.599 -0.1712 -0.3913  0.1314
   22TPM     C221082   4.620  -1.325   3.549  0.0684 -0.3190 -0.0064
   22TPM     C321083   4.593  -1.332   3.408  0.2528 -0.3436 -0.0404
   22TPM     C421084   4.634  -1.448   3.350  0.1540 -0.4348  0.0715
   22TPM     S121085   4.711  -1.558   3.470 -0.1823 -0.4974  0.2297
   23BDD     C121086   4.561  -1.401   2.964 -0.3199 -0.0293  0.1347
   23BDD     C221087   4.652  -1.503   2.970 -0.2559  0.0281  0.1473
   23BDD     C321088   4.691  -1.537   3.106 -0.2027  0.0975  0.1495
   23BDD     C421089   4.630  -1.461   3.201 -0.2269  0.0920  0.1386
   23BDD     S121090   4.518  -1.341   3.127 -0.3181 -0.0010  0.1247
   23BDD     C521091   4.706  -1.573   2.851 -0.2413  0.0222  0.1577
   23BDD     C621092   4.788  -1.645   3.136 -0.1295  0.1671  0.1623
   23BDD     O121093   4.822  -1.674   3.253 -0.0836  0.2267  0.1642
   23BDD     O221094   4.672  -1.543   2.735 -0.2873 -0.0377  0.1558
   23BDD     C721095   4.842  -1.714   3.017 -0.1149  0.1611  0.1729
   23BDD     C821096   4.803  -1.680   2.882 -0.1682  0.0917  0.1706
   23BDD     C921097   4.865  -1.756   2.786 -0.1439  0.0975  0.1815
   23BDD     S221098   4.976  -1.877   2.860 -0.0527  0.1903  0.1953
   23BDD    C1021099   4.933  -1.816   3.023 -0.0507  0.2186  0.1853
   23BDD    C1121100   5.014  -1.875   3.135 -0.5745  0.2318 -0.2800
   23BDD    C1221101   4.990  -2.018   3.158 -0.2988  0.6784 -0.1687
   23BDD    C1321102   4.841  -2.058   3.183  0.2108 -0.2435 -0.6176
   23BDD    C1421103   4.766  -1.987   3.302 -0.1574  0.1789  0.2685
   23BDD    C1521104   4.620  -1.972   3.289  0.1033  0.2318 -0.2413
   23BDD    C1621105   4.558  -2.113   3.290  0.6384  0.1226  0.3257
   23BDD    C1721106   5.083  -2.077   3.260 -0.4621  0.0355 -0.0972
   23BDD    C1821107   5.075  -2.224   3.297  0.2883  0.1085 -0.3214
   23BDD    C1921108   4.869  -1.761   2.638  0.8872 -0.2684  0.0523
   23BDD    C2021109   4.995  -1.709   2.564  0.7553 -0.0090  0.0600
   23BDD    C2121110   4.984  -1.555   2.568  0.5748 -0.1829 -0.2299
   23BDD    C2221111   5.095  -1.480   2.488 -0.4220  0.6633 -0.1178
   23BDD    C2321112   5.097  -1.331   2.496  0.0321 -0.1787  0.4990
   23BDD    C2421113   5.180  -1.248   2.400  0.2190  0.6614  0.1645
   23BDD    C2521114   5.010  -1.777   2.418  0.5511 -0.2670  0.0452
   23BDD    C2621115   5.050  -1.917   2.422 -0.6393  0.2954  0.7455
   24TPM     C121116   4.489  -1.331   2.864 -0.1571  0.0745  0.0775
   24TPM     C221117   4.434  -1.387   2.752  0.2350  0.4592 -0.3120
   24TPM     C321118   4.358  -1.293   2.673  0.5406  0.7405 -0.2809
   24TPM     C421119   4.354  -1.167   2.724  0.3815  0.5702  0.1324
   24TPM     S121120   4.448  -1.156   2.878 -0.1708  0.0373  0.5174
   25BDTP    C121121   4.043  -0.655   2.535  0.0353 -0.1256  0.0106
   25BDTP    C221122   4.106  -0.611   2.655  0.0892 -0.0753 -0.0362
   25BDTP    C321123   4.187  -0.694   2.732  0.2422  0.0002 -0.1159
   25BDTP    C421124   4.207  -0.826   2.688  0.3479  0.0272 -0.1513
   25BDTP    C521125   4.143  -0.870   2.568  0.2940 -0.0229 -0.1047
   25BDTP    C621126   4.062  -0.787   2.492  0.1406 -0.0982 -0.0250
   25BDTP    C721127   4.286  -0.929   2.751  0.5117  0.1029 -0.2327
   25BDTP    C821128   4.286  -1.048   2.685  0.5827  0.1118 -0.2493
   25BDTP    S121129   4.185  -1.044   2.534  0.4517  0.0257 -0.1640
   25BDTP    C921130   3.963  -0.551   2.472 -0.1286 -0.2012  0.0919
   25BDTP   C1021131   3.964  -0.433   2.539 -0.1996 -0.2100  0.1085
   25BDTP    S221132   4.065  -0.436   2.690 -0.0688 -0.1239  0.0232
   26FTM     S121133   4.302  -0.474   2.879 -0.4590  0.0598 -0.0853
   26FTM     C121134   4.317  -0.501   3.056 -0.3688  0.0344 -0.0966
   26FTM     C221135   4.279  -0.628   3.087 -0.1304 -0.0443 -0.1253
   26FTM     C321136   4.238  -0.710   2.978 -0.0064 -0.0882 -0.1399
   26FTM     C421137   4.243  -0.644   2.859 -0.1549 -0.0420 -0.1218
   26FTM     F121138   4.281  -0.677   3.217 -0.0104 -0.0808 -0.1401
   26FTM     C521139   4.380  -0.397   3.144  0.1925  0.3321  0.0610
   26FTM     C621140   4.294  -0.304   3.235  0.2134 -0.6808  0.5451
   26FTM     C721141   4.244  -0.365   3.371 -0.7598  0.3063  0.3568
   26FTM     C821142   4.357  -0.419   3.455  0.2187  0.0629 -0.9454
   26FTM     C921143   4.331  -0.522   3.558  0.1940  0.3350  0.0591
   26FTM    C1021144   4.453  -0.581   3.627 -0.2619  0.5183  0.3147
   26FTM    C1121145   4.185  -0.222   3.167  0.4020  0.2460 -0.0445
   26FTM    C1221146   4.232  -0.126   3.061  0.1992 -0.3739  0.3659
   27FTM     S121147   4.030  -0.749   2.213  0.0694 -0.0916  0.1750
   27FTM     C121148   3.915  -0.858   2.129  0.1169  0.0614 -0.0897
   27FTM     C221149   3.860  -0.945   2.217  0.0293 -0.0689 -0.2702
   27FTM     C321150   3.904  -0.933   2.353 -0.0774 -0.2899 -0.2149
   27FTM     C421151   3.995  -0.833   2.369 -0.0713 -0.3308  0.0154
   27FTM     F121152   3.768  -1.042   2.181  0.0405  0.0045 -0.4961
   27FTM     C521153   3.891  -0.852   1.978 -0.1674  0.0782 -0.0485
   27FTM     C621154   3.860  -0.716   1.912 -0.1919  0.5274  0.1400
   27FTM     C721155   3.841  -0.719   1.758 -0.1548  0.2943  0.1910
   27FTM     C821156   3.942  -0.792   1.669  0.3456  0.1837 -0.0584
   27FTM     C921157   3.958  -0.737   1.526  0.8040 -0.2356  0.1201
   27FTM    C1021158   3.829  -0.725   1.443  0.2470  0.0591  0.2052
   27FTM    C1121159   3.752  -0.644   1.995 -0.4348 -0.0480  0.8799
   27FTM    C1221160   3.714  -0.497   1.952 -0.5097 -0.1695  0.0950
   28TPM     C121161   3.887  -0.314   2.517 -0.3021 -0.6021 -0.0263
   28TPM     C221162   3.911  -0.190   2.568  0.1607 -0.7198  0.0544
   28TPM     C321163   3.825  -0.087   2.514  0.3310 -0.4196  0.3457
   28TPM     C421164   3.737  -0.133   2.421 -0.0018 -0.0732  0.4869
   28TPM     S121165   3.754  -0.311   2.395 -0.5606 -0.0996  0.2614
   29BDD     C121166   3.535   0.140   2.225 -0.1786 -0.0830  0.1735
   29BDD     C221167   3.441   0.063   2.287 -0.2066 -0.0593  0.1608
   29BDD     C321168   3.499  -0.045   2.366 -0.2456 -0.0992  0.1351
   29BDD     C421169   3.635  -0.047   2.363 -0.2467 -0.1529  0.1284
   29BDD     S121170   3.702   0.085   2.261 -0.1991 -0.1570  0.1540
   29BDD     C521171   3.296   0.084   2.276 -0.1986  0.0009  0.1719
   29BDD     C621172   3.416  -0.141   2.442 -0.2803 -0.0830  0.1180
   29BDD     O121173   3.465  -0.233   2.510 -0.3139 -0.1173  0.0958
   29BDD     O221174   3.246   0.177   2.208 -0.1650  0.0354  0.1941
   29BDD     C721175   3.270  -0.119   2.431 -0.2723 -0.0226  0.1290
   29BDD     C821176   3.213  -0.012   2.352 -0.2334  0.0174  0.1548
   29BDD     C921177   3.076  -0.009   2.355 -0.2323  0.0710  0.1615
   29BDD     S221178   3.010  -0.141   2.457 -0.2800  0.0750  0.1359
   29BDD    C1021179   3.176  -0.197   2.493 -0.3005  0.0012  0.1165
   29BDD    C1121180   3.170  -0.310   2.591  0.0059 -0.0132  0.3432
   29BDD    C1221181   3.253  -0.438   2.564  0.5252  0.7784  0.2675
   29BDD    C1321182   3.260  -0.535   2.685  0.2572  0.2450 -0.0700
   29BDD    C1421183   3.333  -0.472   2.805  0.2738 -0.6317  0.1747
   29BDD    C1521184   3.320  -0.563   2.927 -0.4216 -0.0380 -0.0754
   29BDD    C1621185   3.379  -0.525   3.061 -0.0441  0.3015 -0.0241
   29BDD    C1721186   3.211  -0.513   2.431  0.0302 -0.7194  0.5370
   29BDD    C1821187   3.285  -0.632   2.381 -0.2640 -0.2148  0.1488
   29BDD    C1921188   2.970   0.099   2.321 -0.1881  0.3698  0.3341
   29BDD    C2021189   2.897   0.080   2.183 -0.1135  0.3303  0.1158
   29BDD    C2121190   2.974   0.088   2.049  0.3392  0.4771  0.5768
   29BDD    C2221191   2.912   0.044   1.909 -0.8362  0.2504  0.2724
   29BDD    C2321192   2.885  -0.109   1.892 -0.1008 -0.3549 -0.2329
   29BDD    C2421193   3.009  -0.199   1.895  0.3616 -0.3708  0.2388
   29BDD    C2521194   2.749   0.138   2.189 -0.0801 -0.2427  0.5698
   29BDD    C2621195   2.731   0.291   2.191 -0.0329 -0.0162 -0.1312
   30TPM     C121196   3.534   0.254   2.132 -0.1874 -0.0410 -0.0186
   30TPM     C221197   3.441   0.270   2.033  0.3085 -0.4199 -0.5546
   30TPM     C321198   3.476   0.371   1.936  0.8773 -0.9127 -0.8746
   30TPM     C421199   3.596   0.432   1.961  0.8153 -0.9096 -0.5826
   30TPM     S121200   3.673   0.367   2.111  0.0274 -0.2790  0.1248
   31BDTP    C121201   3.792   0.920   1.612  0.0206  0.0917  0.0382
   31BDTP    C221202   3.908   0.886   1.688 -0.0007  0.1377  0.0912
   31BDTP    C321203   3.909   0.784   1.782  0.0045  0.1194  0.0714
   31BDTP    C421204   3.791   0.712   1.803  0.0319  0.0526 -0.0044
   31BDTP    C521205   3.675   0.745   1.727  0.0532  0.0067 -0.0575
   31BDTP    C621206   3.674   0.847   1.633  0.0481  0.0249 -0.0376
   31BDTP    C721207   3.768   0.602   1.895  0.0422  0.0221 -0.0382
   31BDTP    C821208   3.642   0.552   1.891  0.0699 -0.0437 -0.1131
   31BDTP    S121209   3.534   0.637   1.772  0.0869 -0.0763 -0.1514
   31BDTP    C921210   3.815   1.029   1.520  0.0104  0.1222  0.0719
   31BDTP   C1021211   3.941   1.079   1.523 -0.0174  0.1881  0.1468
   31BDTP    S221212   4.049   0.994   1.643 -0.0344  0.2206  0.1852
   32FTM     S121213   4.110   0.906   1.957  0.2279  0.0423  0.2636
   32FTM     C121214   4.226   0.791   2.032  0.1962 -0.0291  0.2027
   32FTM     C221215   4.197   0.664   1.992  0.2394  0.0126  0.0353
   32FTM     C321216   4.086   0.649   1.903  0.2985  0.1006 -0.0536
   32FTM     C421217   4.028   0.768   1.874  0.3005  0.1271  0.0489
   32FTM     F121218   4.270   0.553   2.034  0.2279 -0.0263 -0.0472
   32FTM     C521219   4.326   0.835   2.139  0.8058  0.3933  0.1397
   32FTM     C621220   4.469   0.883   2.092 -0.2783 -0.1456 -0.2421
   32FTM     C721221   4.566   0.778   2.025  0.8935 -0.5490  0.0056
   32FTM     C821222   4.590   0.655   2.109  0.0186  0.2196 -0.8277
   32FTM     C921223   4.704   0.562   2.058 -0.0072  0.0536  0.0544
   32FTM    C1021224   4.833   0.627   2.032  0.0967 -0.0313 -0.3652
   32FTM    C1121225   4.465   1.009   2.008 -0.1705 -0.8377  0.1035
   32FTM    C1221226   4.410   1.135   2.069 -0.3657 -0.1184  0.5001
   33FTM     S121227   3.459   1.031   1.534 -0.0817 -0.2233 -0.3855
   33FTM     C121228   3.348   0.959   1.412 -0.0973  0.0084 -0.5097
   33FTM     C221229   3.381   0.829   1.390 -0.0748  0.0600 -0.7923
   33FTM     C321230   3.492   0.778   1.465 -0.0448 -0.0741 -0.9263
   33FTM     C421231   3.546   0.873   1.547 -0.0442 -0.2336 -0.7402
   33FTM     F121232   3.312   0.747   1.301 -0.0800  0.2318 -0.9464
   33FTM     C521233   3.226   1.038   1.365 -0.2037 -0.1186 -0.0511
   33FTM     C621234   3.237   1.147   1.254 -0.0338 -0.0042  0.4824
   33FTM     C721235   3.333   1.262   1.265 -0.9048  0.2049 -0.0030
   33FTM     C821236   3.483   1.246   1.235  0.2305 -0.6920  0.5545
   33FTM     C921237   3.516   1.210   1.094  0.6571  0.5092  0.4923
   33FTM    C1021238   3.660   1.200   1.064  0.0283  0.0538  0.7762
   33FTM    C1121239   3.102   1.193   1.205  0.4877  0.4628  0.3951
   33FTM    C1221240   3.085   1.256   1.061 -0.2807 -0.4481  0.2252
   34TPM     C121241   3.995   1.177   1.430 -0.2264  0.1694  0.0272
   34TPM     C221242   4.125   1.204   1.397 -0.2289 -0.2142 -0.3012
   34TPM     C321243   4.140   1.317   1.309 -0.1128 -0.2454 -0.3213
   34TPM     C421244   4.023   1.377   1.276 -0.0216  0.1145 -0.0080
   34TPM     S121245   3.882   1.295   1.353 -0.0759  0.5238  0.3391
   35BDD     C121246   4.108   1.655   1.012  0.1228  0.0451  0.1576
   35BDD     C221247   3.997   1.701   1.077  0.0656 -0.0255  0.1091
   35BDD     C321248   3.949   1.611   1.180  0.0411 -0.0848  0.0466
   35BDD     C421249   4.025   1.498   1.193  0.0800 -0.0585  0.0484
   35BDD     S121250   4.161   1.496   1.077  0.1498  0.0422  0.1284
   35BDD     C521251   3.930   1.829   1.045  0.0315 -0.0410  0.1184
   35BDD     C621252   3.830   1.640   1.262 -0.0200 -0.1653 -0.0126
   35BDD     O121253   3.789   1.563   1.352 -0.0412 -0.2165 -0.0665
   35BDD     O221254   3.971   1.906   0.956  0.0526  0.0101  0.1723
   35BDD     C721255   3.763   1.768   1.231 -0.0541 -0.1809 -0.0033
   35BDD     C821256   3.811   1.858   1.128 -0.0296 -0.1216  0.0592
   35BDD     C921257   3.735   1.971   1.114 -0.0684 -0.1479  0.0574
   35BDD     S221258   3.598   1.973   1.231 -0.1385 -0.2486 -0.0226
   35BDD    C1021259   3.651   1.814   1.296 -0.1113 -0.2515 -0.0518
   35BDD    C1121260   3.557   1.758   1.401 -0.2715  0.3225  0.2133
   35BDD    C1221261   3.410   1.731   1.348  0.0953  0.2013  0.3987
   35BDD    C1321262   3.391   1.658   1.209  0.1029 -0.8232 -0.8714
   35BDD    C1421263   3.251   1.654   1.143  0.1981 -0.3316  0.1407
   35BDD    C1521264   3.246   1.582   1.002 -0.6981  1.0207 -0.6422
   35BDD    C1621265   3.101   1.596   0.959 -0.3189 -0.3461  0.1448
   35BDD    C1721266   3.318   1.692   1.458 -0.9400 -0.1027 -0.8203
   35BDD    C1821267   3.320   1.554   1.518 -0.0917  0.2453 -0.2501
   35BDD    C1921268   3.729   2.091   1.022 -0.0234  0.4323 -0.6450
   35BDD    C2021269   3.615   2.072   0.921  0.0743 -0.3817  0.3138
   35BDD    C2121270   3.609   2.197   0.822 -0.0351  0.1382 -0.7292
   35BDD    C2221271   3.622   2.338   0.890  0.0339 -0.3114 -0.3747
   35BDD    C2321272   3.651   2.436   0.785  0.1224 -0.4689 -0.7641
   35BDD    C2421273   3.641   2.583   0.818  0.1661  0.4428 -0.3062
   35BDD    C2521274   3.604   1.932   0.847 -0.4841  0.3769  0.0090
   35BDD    C2621275   3.475   1.909   0.772  0.3364 -0.2006  0.1693
   36TPM     C121276   4.201   1.700   0.904  0.0331 -0.4542 -0.1408
   36TPM     C221277   4.175   1.797   0.812 -0.2066 -0.6406 -0.2763
   36TPM     C321278   4.279   1.812   0.713 -0.2512 -0.5383 -0.3083
   36TPM     C421279   4.383   1.725   0.729 -0.0458 -0.2740 -0.1973
   36TPM     S121280   4.358   1.618   0.872  0.2223 -0.1326 -0.0424
   37BDTP    C121281   4.901   1.618   0.392  0.0100 -0.1076  0.1951
   37BDTP    C221282   4.915   1.528   0.502 -0.0672 -0.2002  0.1302
   37BDTP    C321283   4.821   1.520   0.605 -0.0700 -0.1868  0.1288
   37BDTP    C421284   4.709   1.604   0.598  0.0073 -0.0769  0.1944
   37BDTP    C521285   4.695   1.693   0.488  0.0848  0.0157  0.2593
   37BDTP    C621286   4.788   1.701   0.385  0.0874  0.0023  0.2607
   37BDTP    C721287   4.599   1.613   0.692  0.0203 -0.0423  0.2063
   37BDTP    C821288   4.504   1.704   0.658  0.1026  0.0705  0.2761
   37BDTP    S121289   4.541   1.791   0.502  0.1755  0.1486  0.3366
   37BDTP    C921290   5.011   1.608   0.298 -0.0029 -0.1422  0.1832
   37BDTP   C1021291   5.106   1.518   0.332 -0.0854 -0.2550  0.1134
   37BDTP    S221292   5.069   1.431   0.488 -0.1581 -0.3332  0.0529
   38FTM     S121293   4.844   1.505   0.887  0.3087  0.0003  0.1441
   38FTM     C121294   4.831   1.340   0.957 -0.5211  0.1025  0.2434
   38FTM     C221295   4.830   1.247   0.858 -0.9815  0.0416  0.2991
   38FTM     C321296   4.840   1.298   0.724 -0.7234 -0.0851  0.2686
   38FTM     C421297   4.848   1.434   0.721 -0.0431 -0.1225  0.1869
   38FTM     F121298   4.820   1.111   0.882 -1.6639  0.0970  0.3810
   38FTM     C521299   4.834   1.311   1.102 -0.3408  0.0864 -0.6137
   38FTM     C621300   4.924   1.388   1.202 -0.0996  0.2147 -0.1343
   38FTM     C721301   4.873   1.358   1.340  0.3405  0.0623 -0.1932
   38FTM     C821302   4.921   1.438   1.466  0.6606  0.2014  0.4396
   38FTM     C921303   4.838   1.564   1.477  0.4824 -0.4355  0.3066
   38FTM    C1021304   4.910   1.679   1.547  0.3283  0.1040 -0.4657
   38FTM    C1121305   5.077   1.378   1.193  0.1708 -0.6570  0.2928
   38FTM    C1221306   5.153   1.417   1.068  0.0195 -0.1733  0.1671
   39FTM     S121307   4.627   1.770   0.154 -0.2237  0.1916  0.2992
   39FTM     C121308   4.667   1.929   0.079 -0.1091 -0.0390 -0.1341
   39FTM     C221309   4.774   1.984   0.142  0.1271 -0.0868 -0.4896
   39FTM     C321310   4.830   1.909   0.250  0.2309  0.0497 -0.4478
   39FTM     C421311   4.765   1.791   0.270  0.0689  0.2071 -0.0471
   39FTM     F121312   4.827   2.107   0.105  0.2632 -0.2570 -0.8740
   39FTM     C521313   4.554   1.978  -0.008 -0.4490 -0.1127 -0.3228
   39FTM     C621314   4.515   1.932  -0.146  0.0995 -0.3687  0.4545
   39FTM     C721315   4.443   2.027  -0.246  0.5037 -1.0821 -0.0907
   39FTM     C821316   4.496   2.173  -0.254 -0.1040 -0.2046  0.4509
   39FTM     C921317   4.419   2.250  -0.353 -0.3405  0.2267  0.9625
   39FTM    C1021318   4.459   2.394  -0.362 -0.2334  0.3608  0.1620
   39FTM    C1121319   4.487   1.787  -0.170 -0.3601  0.0640  0.0077
   39FTM    C1221320   4.520   1.727  -0.310 -0.3560 -0.0349 -0.9321
   40TPM     C121321   5.222   1.482   0.249  0.4115  0.1694 -0.0118
   40TPM     C221322   5.341   1.428   0.288  0.4930  0.2642 -0.1260
   40TPM     C321323   5.435   1.410   0.180  0.2398 -0.0717 -0.2968
   40TPM     C421324   5.388   1.451   0.059 -0.0349 -0.4226 -0.3128
   40TPM     S121325   5.220   1.516   0.071  0.0052 -0.3555 -0.1119
   41BDD     C121326   5.563   1.565  -0.272 -0.2098 -0.0906  0.1492
   41BDD     C221327   5.635   1.456  -0.231 -0.1827 -0.1154  0.0358
   41BDD     C321328   5.586   1.397  -0.109 -0.0889 -0.1760  0.0443
   41BDD     C421329   5.476   1.460  -0.058 -0.0459 -0.1966  0.1642
   41BDD     S121330   5.427   1.599  -0.160 -0.1198 -0.1414  0.2744
   41BDD     C521331   5.753   1.404  -0.303 -0.2419 -0.0843 -0.0842
   41BDD     C621332   5.649   1.279  -0.046 -0.0451 -0.2114 -0.0663
   41BDD     O121333   5.606   1.227   0.059  0.0359 -0.2637 -0.0589
   41BDD     O221334   5.796   1.456  -0.409 -0.3231 -0.0319 -0.0918
   41BDD     C721335   5.767   1.226  -0.118 -0.1045 -0.1804 -0.1864
   41BDD     C821336   5.817   1.286  -0.241 -0.1985 -0.1197 -0.1950
   41BDD     C921337   5.927   1.222  -0.292 -0.2414 -0.0992 -0.3150
   41BDD     S221338   5.975   1.083  -0.189 -0.1673 -0.1543 -0.4249
   41BDD    C1021339   5.840   1.118  -0.077 -0.0772 -0.2052 -0.2999
   41BDD    C1121340   5.825   1.022   0.034 -0.1642 -0.3989  0.2693
   41BDD    C1221341   5.812   0.875  -0.008 -0.5529  0.6053  0.3175
   41BDD    C1321342   5.704   0.846  -0.116 -0.0509  0.0560 -0.3394
   41BDD    C1421343   5.557   0.843  -0.067  0.2324 -0.1106 -0.3203
   41BDD    C1521344   5.462   0.804  -0.171  0.6861  0.7038 -0.0812
   41BDD    C1621345   5.320   0.804  -0.126  0.1984 -0.2615 -0.3783
   41BDD    C1721346   5.818   0.788   0.117 -0.4539  0.1536  0.1827
   41BDD    C1821347   5.831   0.638   0.096  0.1820  0.1857  0.0190
   41BDD    C1921348   5.997   1.228  -0.420 -0.5386  0.5387  0.3910
   41BDD    C2021349   6.153   1.239  -0.414  0.3993 -0.3303 -0.1087
   41BDD    C2121350   6.216   1.179  -0.535  0.2220  0.8715  0.3751
   41BDD    C2221351   6.361   1.124  -0.534 -0.5637  0.0115 -0.2209
   41BDD    C2321352   6.376   0.994  -0.458  0.4533 -0.1839 -1.4046
   41BDD    C2421353   6.520   0.937  -0.478 -0.0649  0.1121  0.3056
   41BDD    C2521354   6.207   1.377  -0.380  0.0478 -0.3097 -0.2320
   41BDD    C2621355   6.189   1.490  -0.482 -0.2258  0.2467  0.0296
   42TPM     C121356   5.552   1.648  -0.392  0.1698  0.2732 -0.3465
   42TPM     C221357   5.654   1.721  -0.445  0.0716  0.2330 -0.5920
   42TPM     C321358   5.611   1.815  -0.546 -0.1208  0.1757 -0.5639
   42TPM     C421359   5.476   1.812  -0.570 -0.1691  0.1724 -0.2967
   42TPM     S121360   5.393   1.690  -0.466  0.0261  0.2417 -0.0580
   43BDTP    C121361   5.190   2.059  -1.064  0.0286 -0.0907  0.0033
   43BDTP    C221362   5.082   1.994  -0.997 -0.0114  0.0986  0.1235
   43BDTP    C321363   5.098   1.925  -0.878 -0.0194  0.1566  0.1581
   43BDTP    C421364   5.227   1.920  -0.822  0.0136  0.0217  0.0703
   43BDTP    C521365   5.335   1.984  -0.888  0.0535 -0.1677 -0.0496
   43BDTP    C621366   5.319   2.053  -1.008  0.0615 -0.2256 -0.0844
   43BDTP    C721367   5.268   1.854  -0.699  0.0130  0.0484  0.0849
   43BDTP    C821368   5.400   1.866  -0.671  0.0499 -0.1097 -0.0172
   43BDTP    S121369   5.491   1.963  -0.796  0.0907 -0.3147 -0.1462
   43BDTP    C921370   5.149   2.124  -1.187  0.0292 -0.1174 -0.0112
   43BDTP   C1021371   5.017   2.112  -1.215 -0.0076  0.0407  0.0908
   43BDTP    S221372   4.926   2.016  -1.090 -0.0486  0.2457  0.2198
   44FTM     S121373   4.865   1.756  -0.890 -0.0439  0.0507  0.1567
   44FTM     C121374   4.764   1.757  -0.741  0.2107 -0.1463  0.3325
   44FTM     C221375   4.820   1.839  -0.648  0.3247 -0.2027  0.3140
   44FTM     C321376   4.942   1.904  -0.686  0.2238 -0.0986  0.1655
   44FTM     C421377   4.981   1.871  -0.812  0.0257  0.0421  0.0672
   44FTM     F121378   4.764   1.859  -0.522  0.5277 -0.3519  0.4306
   44FTM     C521379   4.635   1.687  -0.747 -0.4985  0.6234  0.2460
   44FTM     C621380   4.632   1.533  -0.753 -0.5260 -0.3111  0.0949
   44FTM     C721381   4.503   1.468  -0.798  0.4728  0.1207 -0.0662
   44FTM     C821382   4.442   1.506  -0.934  0.6108 -0.3210  0.0215
   44FTM     C921383   4.316   1.434  -0.988  0.3580  0.1482  0.0638
   44FTM    C1021384   4.205   1.415  -0.893  0.0810 -0.0158 -0.1056
   44FTM    C1121385   4.713   1.443  -0.654  0.5640 -0.2150  0.3830
   44FTM    C1221386   4.696   1.457  -0.502  0.1539 -0.4822 -0.0362
   45FTM     S121387   5.506   2.265  -0.961  0.2833  0.0272  0.0852
   45FTM     C121388   5.631   2.288  -1.089  0.1936  0.1404  0.0170
   45FTM     C221389   5.607   2.204  -1.193  0.1805  0.1580  0.0064
   45FTM     C321390   5.492   2.119  -1.181  0.2379  0.0861  0.0494
   45FTM     C421391   5.426   2.138  -1.063  0.2970  0.0111  0.0942
   45FTM     F121392   5.687   2.200  -1.306  0.1158  0.2401 -0.0436
   45FTM     C521393   5.750   2.386  -1.072 -0.2199  0.8399 -0.1717
   45FTM     C621394   5.891   2.333  -1.092 -0.3538  0.0625  0.7444
   45FTM     C721395   5.933   2.199  -1.023  0.3397 -0.2683 -0.0008
   45FTM     C821396   5.866   2.149  -0.893  0.0483  0.3008 -0.2158
   45FTM     C921397   5.933   2.023  -0.831  0.7392 -0.3794 -0.5770
   45FTM    C1021398   6.088   2.012  -0.826 -0.0010  0.4345  0.3994
   45FTM    C1121399   5.994   2.446  -1.069 -0.1654  0.3375 -0.4626
   45FTM    C1221400   5.997   2.570  -1.156 -0.6843 -0.0023  0.1740
   46TPM     C121401   4.948   2.179  -1.320 -0.1848  0.1571  0.4149
   46TPM     C221402   4.815   2.206  -1.331 -0.0978  0.7384  0.6831
   46TPM     C321403   4.781   2.287  -1.446  0.0105  0.7814  0.6812
   46TPM     C421404   4.889   2.322  -1.521  0.0059  0.2327  0.4121
   46TPM     S121405   5.042   2.255  -1.454 -0.1364 -0.3856  0.1376
   47BDD     C121406   4.931   2.620  -1.765  0.2652 -0.1904 -0.0051
   47BDD     C221407   4.825   2.548  -1.813  0.2185 -0.1177 -0.0120
   47BDD     C321408   4.795   2.429  -1.735  0.0745 -0.0491  0.0387
   47BDD     C421409   4.879   2.412  -1.628  0.0133 -0.0706  0.0834
   47BDD     S121410   5.001   2.544  -1.618  0.1320 -0.1781  0.0653
   47BDD     C521411   4.747   2.586  -1.933  0.3049 -0.1086 -0.0654
   47BDD     C621412   4.685   2.337  -1.769  0.0029  0.0352  0.0409
   47BDD     O121413   4.660   2.234  -1.702 -0.1214  0.0943  0.0845
   47BDD     O221414   4.773   2.688  -2.000  0.4292 -0.1677 -0.1091
   47BDD     C721415   4.607   2.375  -1.889  0.0890  0.0443 -0.0124
   47BDD     C821416   4.637   2.493  -1.967  0.2332 -0.0243 -0.0631
   47BDD     C921417   4.553   2.510  -2.074  0.2944 -0.0028 -0.1080
   47BDD     S221418   4.432   2.379  -2.084  0.1759  0.1047 -0.0896
   47BDD    C1021419   4.502   2.303  -1.937  0.0426  0.1171 -0.0194
   47BDD    C1121420   4.439   2.178  -1.884  0.6449  0.2560 -0.2408
   47BDD    C1221421   4.443   2.043  -1.965 -0.3585 -0.4498  0.1667
   47BDD    C1321422   4.340   1.943  -1.902 -0.0010  0.3399 -0.5047
   47BDD    C1421423   4.305   1.810  -1.979 -0.0794  0.1567 -0.3922
   47BDD    C1521424   4.194   1.731  -1.909 -0.0181 -0.0131  0.4196
   47BDD    C1621425   4.135   1.649  -2.023  0.1583  0.4857 -0.2612
   47BDD    C1721426   4.581   1.994  -2.010 -0.4916  0.0319 -0.4522
   47BDD    C1821427   4.679   1.954  -1.898 -0.4828 -0.2134  0.1838
   47BDD    C1921428   4.532   2.627  -2.167 -0.1002  0.5628 -0.0426
   47BDD    C2021429   4.408   2.714  -2.149  0.1942 -0.2569 -0.2696
   47BDD    C2121430   4.420   2.804  -2.021  0.2494 -0.1943 -0.4922
   47BDD    C2221431   4.332   2.928  -1.981 -0.3633 -0.2882  0.9451
   47BDD    C2321432   4.317   3.031  -2.093  0.2036  0.1266 -0.4852
   47BDD    C2421433   4.188   3.112  -2.100  0.1141 -0.2712  0.1189
   47BDD    C2521434   4.266   2.655  -2.167 -0.5213  0.2684 -0.2975
   47BDD    C2621435   4.229   2.585  -2.300  0.4429  0.2021 -0.3010
   48TPM     C121436   5.009   2.734  -1.812 -0.0888  0.1601 -0.2769
   48TPM     C221437   4.958   2.859  -1.824  0.2180  0.2865 -0.2818
   48TPM     C321438   5.059   2.962  -1.835  0.4702  0.0359 -0.3456
   48TPM     C421439   5.186   2.915  -1.831  0.3557 -0.2816 -0.3894
   48TPM     S121440   5.190   2.735  -1.813 -0.0829 -0.2886 -0.3530
   49BDTP    C121441   5.700   3.279  -1.899  0.1601 -0.0486 -0.1560
   49BDTP    C221442   5.754   3.164  -1.836  0.1401 -0.0083 -0.0654
   49BDTP    C321443   5.676   3.055  -1.800  0.1200  0.0359  0.0272
   49BDTP    C421444   5.538   3.059  -1.828  0.1197  0.0408  0.0305
   49BDTP    C521445   5.484   3.175  -1.892  0.1395  0.0005 -0.0603
   49BDTP    C621446   5.562   3.284  -1.927  0.1596 -0.0438 -0.1529
   49BDTP    C721447   5.438   2.959  -1.801  0.1007  0.0831  0.1175
   49BDTP    C821448   5.312   2.993  -1.840  0.1056  0.0764  0.0964
   49BDTP    S121449   5.304   3.157  -1.918  0.1345  0.0157 -0.0361
   49BDTP    C921450   5.800   3.380  -1.927  0.1787 -0.0910 -0.2431
   49BDTP   C1021451   5.925   3.346  -1.887  0.1740 -0.0843 -0.2222
   49BDTP    S221452   5.934   3.182  -1.810  0.1452 -0.0237 -0.0895
   50FTM     S121453   5.648   2.855  -1.588 -0.0565 -0.3610  0.1521
   50FTM     C121454   5.754   2.710  -1.605 -0.1039 -0.3717 -0.0563
   50FTM     C221455   5.840   2.728  -1.709 -0.0443 -0.2158  0.0176
   50FTM     C321456   5.828   2.851  -1.781  0.0396 -0.0819  0.2356
   50FTM     C421457   5.731   2.932  -1.729  0.0448 -0.1370  0.3315
   50FTM     F121458   5.933   2.632  -1.747 -0.0625 -0.1853 -0.1075
   50FTM     C521459   5.735   2.581  -1.524  0.1425 -0.2373 -0.0636
   50FTM     C621460   5.613   2.481  -1.541 -0.0148 -0.3458  0.0607
   50FTM     C721461   5.608   2.398  -1.675  0.1455 -0.1594 -0.2412
   50FTM     C821462   5.728   2.300  -1.697  0.2278 -0.3689 -0.1493
   50FTM     C921463   5.744   2.174  -1.615 -0.7659 -0.2682  0.3774
   50FTM    C1021464   5.635   2.074  -1.576  0.0933 -0.7042  0.6381
   50FTM    C1121465   5.476   2.516  -1.487  0.2646  0.6403  0.4557
   50FTM    C1221466   5.378   2.407  -1.461  0.1762 -0.1140  0.0197
   51FTM     S121467   5.542   3.569  -1.919  0.2777  0.1791 -0.2531
   51FTM     C121468   5.460   3.649  -2.058 -0.2706  0.1405  0.0436
   51FTM     C221469   5.411   3.556  -2.144 -0.4040  0.1189  0.1422
   51FTM     C321470   5.434   3.419  -2.108 -0.0951  0.1307 -0.0030
   51FTM     C421471   5.503   3.408  -1.990  0.2868  0.1624 -0.2202
   51FTM     F121472   5.343   3.588  -2.260 -0.8132  0.0871  0.3701
   51FTM     C521473   5.451   3.801  -2.068 -0.2071 -0.2935 -0.3072
   51FTM     C621474   5.539   3.891  -2.160 -0.7385  0.3110  0.5159
   51FTM     C721475   5.683   3.917  -2.123 -1.1595  0.2169 -0.2442
   51FTM     C821476   5.711   3.984  -1.988 -0.3852  0.3397  0.0318
   51FTM     C921477   5.635   4.114  -1.948  0.6511  0.2197  0.7009
   51FTM    C1021478   5.640   4.226  -2.050  0.0161  0.1422  0.1818
   51FTM    C1121479   5.518   3.887  -2.314 -0.0834  0.1091 -0.7593
   51FTM    C1221480   5.372   3.900  -2.363 -0.5114  0.3469  0.2743
   52TPM     C121481   6.035   3.417  -1.941 -0.1232  0.1504  0.1382
   52TPM     C221482   6.165   3.391  -1.909 -0.1661 -0.1149  0.1026
   52TPM     C321483   6.259   3.474  -1.980 -0.0061 -0.4158 -0.0446
   52TPM     C421484   6.201   3.564  -2.064  0.1588 -0.3801 -0.1212
   52TPM     S121485   6.021   3.549  -2.062  0.1244  0.0397 -0.0127
   53BDD     C121486   6.284   3.923  -2.199  0.0970 -0.0869 -0.0104
   53BDD     C221487   6.400   3.851  -2.217  0.0944 -0.0933 -0.0017
   53BDD     C321488   6.390   3.714  -2.171  0.0968 -0.0805  0.0373
   53BDD     C421489   6.268   3.682  -2.119  0.1015 -0.0645  0.0579
   53BDD     S121490   6.156   3.822  -2.124  0.1029 -0.0643  0.0299
   53BDD     C521491   6.523   3.907  -2.277  0.0894 -0.1115 -0.0292
   53BDD     C621492   6.503   3.619  -2.180  0.0948 -0.0846  0.0527
   53BDD     O121493   6.495   3.501  -2.141  0.0969 -0.0735  0.0863
   53BDD     O221494   6.531   4.026  -2.316  0.0873 -0.1225 -0.0629
   53BDD     C721495   6.627   3.675  -2.240  0.0896 -0.1027  0.0252
   53BDD     C821496   6.636   3.813  -2.286  0.0871 -0.1156 -0.0138
   53BDD     C921497   6.758   3.844  -2.338  0.0825 -0.1316 -0.0345
   53BDD     S221498   6.870   3.704  -2.333  0.0811 -0.1318 -0.0064
   53BDD    C1021499   6.742   3.604  -2.258  0.0869 -0.1091  0.0339
   53BDD    C1121500   6.785   3.457  -2.243  0.0315 -0.2050  0.4556
   53BDD    C1221501   6.834   3.410  -2.111 -0.2812  0.3017 -0.4664
   53BDD    C1321502   6.970   3.473  -2.056  0.4633 -0.4322  0.8114
   53BDD    C1421503   7.006   3.462  -1.910  0.1866 -0.2686 -0.6203
   53BDD    C1521504   7.137   3.527  -1.874 -0.1110  0.2230 -0.7911
   53BDD    C1621505   7.149   3.516  -1.721 -0.1932  1.0369  0.1203
   53BDD    C1721506   6.834   3.259  -2.081 -0.2365 -0.2324 -0.1667
   53BDD    C1821507   6.703   3.190  -2.101  0.5307  0.1570  0.0860
   53BDD    C1921508   6.813   3.959  -2.416 -0.2246 -0.1372 -0.2418
   53BDD    C2021509   6.829   3.936  -2.573 -0.0334  0.1946  0.0959
   53BDD    C2121510   6.713   3.878  -2.654  0.5110  0.2365 -0.0212
   53BDD    C2221511   6.591   3.967  -2.653  0.7394  0.0744 -0.2745
   53BDD    C2321512   6.472   3.883  -2.700 -0.1381  0.3330  0.5055
   53BDD    C2421513   6.341   3.964  -2.685 -0.0001  0.1867  0.5512
   53BDD    C2521514   6.898   4.032  -2.671  0.1454 -0.2473 -0.4440
   53BDD    C2621515   7.042   4.079  -2.643  0.0960  0.3689  0.6495
   54TPM     C121516   6.234   4.059  -2.227  0.1784  0.0844  0.5616
   54TPM     C221517   6.104   4.088  -2.197  0.3345  0.4007  0.9519
   54TPM     C321518   6.071   4.227  -2.212  0.5915  0.4610  0.9217
   54TPM     C421519   6.175   4.304  -2.254  0.6314  0.1908  0.5085
   54TPM     S121520   6.325   4.207  -2.277  0.3452 -0.1637  0.1226
   55BDTP    C121521   6.193   4.929  -2.327  0.1972  0.1272  0.1009
   55BDTP    C221522   6.053   4.906  -2.315  0.1831  0.2105  0.1003
   55BDTP    C321523   5.999   4.779  -2.298  0.1028  0.2340  0.0254
   55BDTP    C421524   6.088   4.670  -2.292  0.0327  0.1726 -0.0527
   55BDTP    C521525   6.228   4.693  -2.304  0.0466  0.0893 -0.0519
   55BDTP    C621526   6.281   4.820  -2.321  0.1270  0.0658  0.0230
   55BDTP    C721527   6.055   4.530  -2.274 -0.0565  0.1821 -0.1382
   55BDTP    C821528   6.163   4.448  -2.272 -0.1094  0.1111 -0.2009
   55BDTP    S121529   6.321   4.537  -2.293 -0.0536  0.0218 -0.1603
   55BDTP    C921530   6.225   5.070  -2.345  0.2865  0.1177  0.1866
   55BDTP   C1021531   6.117   5.152  -2.347  0.3393  0.1889  0.2491
   55BDTP    S221532   5.960   5.063  -2.327  0.2837  0.2780  0.2088
   56FTM     S121533   5.760   4.695  -2.170  0.0984  0.1398  0.0284
   56FTM     C121534   5.608   4.714  -2.265  0.1605 -0.1802 -0.1388
   56FTM     C221535   5.637   4.759  -2.390  0.1873  0.0845 -0.0376
   56FTM     C321536   5.776   4.781  -2.419  0.1615  0.5414  0.1712
   56FTM     C421537   5.856   4.752  -2.313  0.1138  0.6294  0.2319
   56FTM     F121538   5.540   4.784  -2.486  0.2364 -0.0710 -0.1280
   56FTM     C521539   5.473   4.678  -2.206 -0.4095  0.3516 -0.4324
   56FTM     C621540   5.456   4.734  -2.063 -0.0034  0.4048 -0.0965
   56FTM     C721541   5.338   4.670  -1.989 -0.7443 -0.0805 -0.3853
   56FTM     C821542   5.361   4.536  -1.916 -0.0322  0.0101  0.1087
   56FTM     C921543   5.258   4.497  -1.815  0.4041 -0.3630  1.0076
   56FTM    C1021544   5.281   4.371  -1.740  0.2593  0.3526 -0.0269
   56FTM    C1121545   5.463   4.885  -2.051 -0.3605 -0.2394 -0.6194
   56FTM    C1221546   5.337   4.972  -2.067 -0.4859  0.1300 -0.1847
   57FTM     S121547   6.514   4.933  -2.439  0.0185 -0.1687 -0.0663
   57FTM     C121548   6.667   4.925  -2.346  0.0843 -0.1207 -0.1702
   57FTM     C221549   6.647   4.859  -2.228  0.0986  0.1973  0.0126
   57FTM     C321550   6.514   4.812  -2.205  0.0598  0.4175  0.2393
   57FTM     C421551   6.429   4.843  -2.307  0.0145  0.2631  0.2295
   57FTM     F121552   6.748   4.838  -2.136  0.1473  0.3076 -0.0145
   57FTM     C521553   6.790   4.994  -2.409 -0.3721 -0.6352  0.6863
   57FTM     C621554   6.884   4.907  -2.495 -0.1379 -0.2383  0.8823
   57FTM     C721555   7.009   4.984  -2.555  0.1308  0.2957 -0.3978
   57FTM     C821556   7.105   5.045  -2.456  0.7372  0.7787  0.1673
   57FTM     C921557   7.160   4.956  -2.339 -0.5278 -0.2222  0.1784
   57FTM    C1021558   7.265   5.037  -2.278 -0.2029 -0.4707 -0.1147
   57FTM    C1121559   6.816   4.834  -2.616 -0.1995 -0.3613  0.4544
   57FTM    C1221560   6.733   4.907  -2.726 -0.2153  0.0607  0.3029
   58TPM     C121561   6.117   5.293  -2.375  0.0119 -0.3312  0.2282
   58TPM     C221562   6.021   5.384  -2.342  0.0199 -0.4187  0.4909
   58TPM     C321563   6.059   5.521  -2.364 -0.0787 -0.3712  0.6081
   58TPM     C421564   6.185   5.535  -2.415 -0.1618 -0.2478  0.4347
   58TPM     S121565   6.265   5.375  -2.439 -0.1218 -0.1810  0.1074
   59BDD     C121566   6.249   5.923  -2.451  0.1881  0.0108 -0.0736
   59BDD     C221567   6.366   5.872  -2.402  0.1756 -0.0186 -0.0740
   59BDD     C321568   6.365   5.728  -2.387  0.1198 -0.0126 -0.0211
   59BDD     C421569   6.247   5.671  -2.425  0.0903  0.0210  0.0188
   59BDD     S121570   6.129   5.794  -2.483  0.1309  0.0479 -0.0068
   59BDD     C521571   6.484   5.955  -2.367  0.2147 -0.0532 -0.1231
   59BDD     C621572   6.481   5.652  -2.336  0.0975 -0.0408 -0.0124
   59BDD     O121573   6.479   5.527  -2.323  0.0492 -0.0356  0.0333
   59BDD     O221574   6.485   6.079  -2.380  0.2630 -0.0583 -0.1687
   59BDD     C721575   6.598   5.734  -2.301  0.1364 -0.0753 -0.0613
   59BDD     C821576   6.600   5.879  -2.315  0.1922 -0.0812 -0.1142
   59BDD     C921577   6.718   5.936  -2.277  0.2216 -0.1148 -0.1541
   59BDD     S221578   6.835   5.813  -2.220  0.1814 -0.1416 -0.1284
   59BDD    C1021579   6.715   5.684  -2.251  0.1239 -0.1044 -0.0618
   59BDD    C1121580   6.768   5.545  -2.211  0.3046 -0.0148 -0.0461
   59BDD    C1221581   6.886   5.489  -2.289 -0.4781 -0.3013  0.3928
   59BDD    C1321582   7.032   5.533  -2.257 -0.4305  0.7222  0.0158
   59BDD    C1421583   7.072   5.559  -2.115 -0.5792 -0.6060  0.2625
   59BDD    C1521584   7.048   5.451  -2.013  0.0322  0.0718 -0.6942
   59BDD    C1621585   7.063   5.479  -1.865 -0.0590  0.2132 -0.5935
   59BDD    C1721586   6.869   5.457  -2.435  0.3848  0.7005  0.2369
   59BDD    C1821587   6.761   5.348  -2.458  0.0462  0.2901 -0.1005
   59BDD    C1921588   6.759   6.080  -2.260 -0.7580 -0.1571 -0.1784
   59BDD    C2021589   6.753   6.137  -2.113  0.5725 -0.3527  0.4269
   59BDD    C2121590   6.833   6.059  -2.004  0.1477  0.5170 -0.1762
   59BDD    C2221591   6.989   6.074  -2.032  0.0486  0.1955 -0.9381
   59BDD    C2321592   7.083   6.008  -1.931 -0.2154  0.2360  0.2747
   59BDD    C2421593   7.083   5.858  -1.928 -0.6645 -0.0511 -0.2481
   59BDD    C2521594   6.749   6.297  -2.111  0.1072  0.5465  0.3635
   59BDD    C2621595   6.643   6.359  -2.206  0.5468 -0.0615  0.0270
   60TPM     C121596   6.203   6.055  -2.485 -0.0293  0.1166 -0.0730
   60TPM     C221597   6.212   6.163  -2.401  0.3983  0.3293 -0.3859
   60TPM     C321598   6.139   6.278  -2.447  0.8337  0.4857 -0.7077
   60TPM     C421599   6.073   6.259  -2.565  0.7380  0.3923 -0.6399
   60TPM     S121600   6.100   6.092  -2.628  0.0858  0.0972 -0.1607
    1BDTP    C121601   7.314   6.506   6.976 -0.1587  0.3371 -0.2217
    1BDTP    C221602   7.224   6.474   6.869 -0.2180  0.1427 -0.1156
    1BDTP    C321603   7.242   6.364   6.786 -0.1979  0.0587 -0.0004
    1BDTP    C421604   7.353   6.281   6.810 -0.1152  0.1714  0.0112
    1BDTP    C521605   7.443   6.312   6.916 -0.0558  0.3659 -0.0948
    1BDTP    C621606   7.425   6.422   6.999 -0.0760  0.4499 -0.2102
    1BDTP    C721607   7.392   6.162   6.737 -0.0797  0.1159  0.1211
    1BDTP    C821608   7.505   6.103   6.783  0.0021  0.2576  0.1029
    1BDTP    S121609   7.578   6.190   6.925  0.0460  0.4811 -0.0560
    1BDTP    C921610   7.275   6.625   7.048 -0.1942  0.3926 -0.3316
    1BDTP   C1021611   7.162   6.684   7.002 -0.2761  0.2509 -0.3134
    1BDTP    S221612   7.089   6.597   6.860 -0.3200  0.0275 -0.1545
    2FTM     S121613   7.197   6.326   6.504 -0.1960 -0.4653 -0.0487
    2FTM     C121614   7.041   6.246   6.463 -0.4905  0.0828 -0.0282
    2FTM     C221615   6.966   6.230   6.575 -0.5929  0.4677 -0.0395
    2FTM     C321616   7.024   6.278   6.697 -0.4522  0.3623 -0.0638
    2FTM     C421617   7.147   6.333   6.677 -0.2347 -0.1191 -0.0718
    2FTM     F121618   6.841   6.170   6.575 -0.8204  0.9382 -0.0281
    2FTM     C521619   7.023   6.184   6.334 -0.3299  0.1151  0.4644
    2FTM     C621620   7.143   6.116   6.264 -0.2870  0.8609  0.3873
    2FTM     C721621   7.128   6.069   6.120  0.6306  0.0643  0.0316
    2FTM     C821622   7.079   6.169   6.013  0.0463 -0.0871  0.0733
    2FTM     C921623   7.169   6.301   6.009  0.1248  0.3817 -0.0867
    2FTM    C1021624   7.093   6.421   5.968  0.8701  0.1796 -0.1562
    2FTM    C1121625   7.233   6.008   6.345 -0.2622 -0.3290 -0.0820
    2FTM    C1221626   7.148   5.900   6.402  0.5975  0.9281  0.1088
    3FTM     S121627   7.596   6.627   7.104  0.2515  0.2967  0.3180
    3FTM     C121628   7.705   6.578   7.239 -0.1115  0.0383  0.5194
    3FTM     C221629   7.686   6.446   7.267 -0.3575  0.0409  0.3743
    3FTM     C321630   7.588   6.378   7.188 -0.2805  0.2389  0.1041
    3FTM     C421631   7.531   6.459   7.096  0.0347  0.3931  0.0405
    3FTM     F121632   7.756   6.380   7.367 -0.6667 -0.1363  0.4774
    3FTM     C521633   7.807   6.681   7.283 -0.5452  0.7488  1.0437
    3FTM     C621634   7.959   6.675   7.258 -0.0834  0.7737 -0.6648
    3FTM     C721635   7.998   6.705   7.118 -0.1139 -0.6988  0.1441
    3FTM     C821636   8.009   6.856   7.085 -0.2244  0.1557 -0.5227
    3FTM     C921637   8.090   6.948   7.171 -0.6791  0.4118 -0.2447
    3FTM    C1021638   8.067   7.094   7.137  0.1337  0.2911  0.0243
    3FTM    C1121639   8.040   6.556   7.303  0.0550  0.1486 -0.1672
    3FTM    C1221640   8.010   6.508   7.445 -0.3144 -0.3102 -0.2209
    4TPM     C121641   7.102   6.801   7.058  0.4607  0.2622 -0.2123
    4TPM     C221642   7.002   6.882   7.015  0.8442  0.6429 -0.3932
    4TPM     C321643   6.960   6.979   7.112  0.7093  0.4880 -0.2973
    4TPM     C421644   7.027   6.972   7.230  0.2231 -0.0109 -0.0433
    4TPM     S121645   7.151   6.840   7.228 -0.1045 -0.3262  0.0956
    5BDD     C121646   7.119   7.226   7.515 -0.0729  0.1151  0.0711
    5BDD     C221647   6.983   7.218   7.522 -0.0718  0.0818  0.0491
    5BDD     C321648   6.926   7.129   7.423 -0.0441  0.1684 -0.0459
    5BDD     C421649   7.020   7.070   7.342 -0.0243  0.2668 -0.0948
    5BDD     S121650   7.186   7.123   7.385 -0.0391  0.2575 -0.0254
    5BDD     C521651   6.900   7.292   7.619 -0.0964 -0.0310  0.1144
    5BDD     C621652   6.781   7.104   7.412 -0.0383  0.1508 -0.0848
    5BDD     O121653   6.731   7.027   7.326 -0.0143  0.2255 -0.1667
    5BDD     O221654   6.950   7.369   7.705 -0.1203 -0.1059  0.1963
    5BDD     C721655   6.698   7.179   7.509 -0.0628  0.0379 -0.0194
    5BDD     C821656   6.755   7.268   7.608 -0.0905 -0.0488  0.0756
    5BDD     C921657   6.661   7.327   7.689 -0.1104 -0.1471  0.1246
    5BDD     S221658   6.495   7.274   7.646 -0.0956 -0.1379  0.0551
    5BDD    C1021659   6.562   7.170   7.516 -0.0619  0.0045 -0.0415
    5BDD    C1121660   6.458   7.084   7.439 -0.8567 -0.5417 -0.2304
    5BDD    C1221661   6.357   7.144   7.350 -0.2008  0.2351  0.4238
    5BDD    C1321662   6.417   7.213   7.230  0.1139  0.2038  0.2814
    5BDD    C1421663   6.506   7.124   7.146  0.0496  0.4693 -0.2788
    5BDD    C1521664   6.559   7.190   7.024  0.5789 -0.9446 -0.2626
    5BDD    C1621665   6.662   7.105   6.967  0.0696  0.5327 -0.3989
    5BDD    C1721666   6.240   7.228   7.409  0.2997  0.2378  0.3787
    5BDD    C1821667   6.157   7.167   7.519  0.2403  0.9601 -0.4163
    5BDD    C1921668   6.661   7.442   7.791 -0.5109  0.3006 -0.0850
    5BDD    C2021669   6.596   7.400   7.930  0.2500 -0.4336  0.8157
    5BDD    C2121670   6.643   7.269   7.991 -0.2305 -0.7470 -0.1840
    5BDD    C2221671   6.552   7.201   8.099 -0.4617  0.0616  0.5379
    5BDD    C2321672   6.422   7.139   8.052  0.3175  0.5708  0.0426
    5BDD    C2421673   6.368   7.071   8.184  0.2989 -0.4009 -0.0998
    5BDD    C2521674   6.575   7.518   8.023  0.8157 -0.8143  0.8639
    5BDD    C2621675   6.699   7.575   8.092 -0.1360 -0.0601  0.2403
    6TPM     C121676   7.226   7.293   7.584 -0.0398 -0.1048  0.5087
    6TPM     C221677   7.240   7.295   7.719  0.3486 -0.4281  0.4760
    6TPM     C321678   7.369   7.343   7.763  0.5175 -0.6433  0.2232
    6TPM     C421679   7.452   7.378   7.661  0.2578 -0.4841  0.0630
    6TPM     S121680   7.374   7.352   7.500 -0.2237 -0.0467  0.2203
    7BDTP    C121681   8.032   7.597   7.729  0.0741  0.0317  0.0290
    7BDTP    C221682   8.014   7.602   7.587  0.1619 -0.1304  0.0117
    7BDTP    C321683   7.897   7.562   7.525  0.2127 -0.2327 -0.0178
    7BDTP    C421684   7.792   7.514   7.606  0.1751 -0.1726 -0.0311
    7BDTP    C521685   7.810   7.509   7.747  0.0874 -0.0107 -0.0139
    7BDTP    C621686   7.927   7.549   7.809  0.0366  0.0916  0.0156
    7BDTP    C721687   7.662   7.467   7.564  0.2148 -0.2559 -0.0612
    7BDTP    C821688   7.582   7.427   7.666  0.1616 -0.1652 -0.0676
    7BDTP    S121689   7.660   7.444   7.829  0.0540  0.0381 -0.0360
    7BDTP    C921690   8.162   7.644   7.771  0.0343  0.1148  0.0591
    7BDTP   C1021691   8.243   7.684   7.669  0.0875  0.0243  0.0652
    7BDTP    S221692   8.164   7.667   7.506  0.1954 -0.1792  0.0337
    8FTM     S121693   7.788   7.451   7.277  0.3421 -0.3787  0.0454
    8FTM     C121694   7.817   7.549   7.129 -0.4688  0.0230  0.1422
    8FTM     C221695   7.892   7.658   7.160 -0.6298  0.1484  0.0938
    8FTM     C321696   7.931   7.672   7.297 -0.1442 -0.0553 -0.0185
    8FTM     C421697   7.883   7.570   7.374  0.4067 -0.3464 -0.0577
    8FTM     F121698   7.930   7.753   7.066 -1.2265  0.4550  0.1487
    8FTM     C521699   7.761   7.504   7.002  0.0666 -0.3165  0.0864
    8FTM     C621700   7.817   7.556   6.865 -0.8752 -0.1968 -0.3745
    8FTM     C721701   7.720   7.557   6.748  0.1749 -0.0800  0.0624
    8FTM     C821702   7.651   7.428   6.712  0.3861 -0.4412  0.1847
    8FTM     C921703   7.550   7.447   6.600 -0.2576 -0.6453  0.2436
    8FTM    C1021704   7.437   7.345   6.605 -0.2876 -0.1969 -0.6553
    8FTM    C1121705   7.965   7.521   6.849  0.4675  0.1476  0.6753
    8FTM    C1221706   8.032   7.589   6.730 -0.1140  0.5135 -0.0076
    9FTM     S121707   8.062   7.626   8.056  0.1483 -0.2625  0.1577
    9FTM     C121708   8.019   7.526   8.200 -0.2739 -0.0745  0.1650
    9FTM     C221709   7.929   7.431   8.165 -0.3866  0.0615  0.0880
    9FTM     C321710   7.888   7.430   8.027 -0.1578  0.0284  0.0200
    9FTM     C421711   7.950   7.527   7.955  0.1398 -0.1382  0.0461
    9FTM     F121712   7.877   7.339   8.255 -0.7041  0.2240  0.0744
    9FTM     C521713   8.094   7.533   8.335  0.4204 -0.5483  0.1136
    9FTM     C621714   8.242   7.486   8.342  0.5654 -0.3372  0.3625
    9FTM     C721715   8.253   7.335   8.337 -0.2807 -0.2359  0.5923
    9FTM     C821716   8.202   7.266   8.464 -0.1973 -0.1172 -0.5961
    9FTM     C921717   8.227   7.117   8.465 -0.4590 -0.6189  0.5884
    9FTM    C1021718   8.168   7.026   8.356  0.1848  0.0733 -0.2023
    9FTM    C1121719   8.351   7.560   8.262  0.5446  0.0692 -0.1093
    9FTM    C1221720   8.354   7.713   8.223  0.1836 -0.4582  0.1072
   10TPM     C121721   8.376   7.741   7.690  0.0739  0.3119 -0.2181
   10TPM     C221722   8.450   7.805   7.595  0.0927  0.5716 -0.0311
   10TPM     C321723   8.577   7.855   7.644  0.0429  0.5227  0.1502
   10TPM     C421724   8.599   7.828   7.776 -0.0141  0.2257  0.1016
   10TPM     S121725   8.461   7.738   7.849 -0.0086 -0.0173 -0.1794
   11BDD     C121726   8.982   7.907   7.814  0.0259 -0.1438  0.0616
   11BDD     C221727   8.958   7.802   7.899 -0.0453 -0.1335  0.0547
   11BDD     C321728   8.819   7.760   7.902 -0.0801 -0.0197  0.0741
   11BDD     C421729   8.739   7.832   7.818 -0.0348  0.0552  0.0954
   11BDD     S121730   8.832   7.959   7.731  0.0541 -0.0117  0.0929
   11BDD     C521731   9.062   7.738   7.982 -0.0839 -0.2282  0.0302
   11BDD     C621732   8.771   7.649   7.987 -0.1566  0.0107  0.0706
   11BDD     O121733   8.652   7.612   7.989 -0.1867  0.1090  0.0871
   11BDD     O221734   9.182   7.775   7.980 -0.0539 -0.3264  0.0135
   11BDD     C721735   8.876   7.585   8.069 -0.1955 -0.0836  0.0458
   11BDD     C821736   9.014   7.627   8.067 -0.1607 -0.1976  0.0265
   11BDD     C921737   9.095   7.555   8.151 -0.2055 -0.2726  0.0052
   11BDD     S221738   9.002   7.428   8.238 -0.2948 -0.2055  0.0079
   11BDD    C1021739   8.852   7.481   8.155 -0.2663 -0.0734  0.0389
   11BDD    C1121740   8.727   7.411   8.208  0.1212  0.3563  0.1746
   11BDD    C1221741   8.702   7.264   8.163 -0.4926 -0.0633  0.0495
   11BDD    C1321742   8.685   7.244   8.009 -0.0995  0.2909 -0.2573
   11BDD    C1421743   8.709   7.101   7.953 -0.5138  0.5155  0.3986
   11BDD    C1521744   8.669   7.090   7.807 -0.2408  0.3925  0.9574
   11BDD    C1621745   8.520   7.079   7.780  0.3830 -0.2201  0.2598
   11BDD    C1721746   8.591   7.186   8.242  0.4538 -0.0965  0.6135
   11BDD    C1821747   8.592   7.184   8.391  0.1495  0.0721  0.8872
   11BDD    C1921748   9.234   7.555   8.207  0.0502 -0.0213 -0.1567
   11BDD    C2021749   9.262   7.634   8.333  0.5161  0.0567 -0.4438
   11BDD    C2121750   9.195   7.576   8.465 -0.1212 -0.1051  0.1542
   11BDD    C2221751   9.242   7.609   8.603 -0.0266  0.0002 -0.6259
   11BDD    C2321752   9.159   7.542   8.712  0.2070  0.0271 -0.6524
   11BDD    C2421753   9.205   7.579   8.859  0.2289  0.0514  0.0501
   11BDD    C2521754   9.277   7.787   8.328  0.0627  0.4462  0.0966
   11BDD    C2621755   9.373   7.843   8.228 -0.0092 -0.4146  0.3625
   12TPM     C121756   9.097   7.988   7.774 -0.1758  0.1644 -0.0809
   12TPM     C221757   9.197   8.022   7.860 -0.1440 -0.0281 -0.0392
   12TPM     C321758   9.286   8.122   7.807  0.1612 -0.3083 -0.0633
   12TPM     C421759   9.254   8.164   7.681  0.3621 -0.3295 -0.1234
   12TPM     S121760   9.107   8.080   7.619  0.1807  0.0051 -0.1543
   13BDTP    C121761   9.591   8.529   7.292 -0.2720  0.2630 -0.0305
   13BDTP    C221762   9.474   8.501   7.215 -0.0601 -0.1495 -0.2123
   13BDTP    C321763   9.370   8.423   7.263  0.0551 -0.3552 -0.2979
   13BDTP    C421764   9.382   8.368   7.392 -0.0436 -0.1445 -0.1998
   13BDTP    C521765   9.499   8.396   7.469 -0.2556  0.2682 -0.0180
   13BDTP    C621766   9.603   8.474   7.421 -0.3705  0.4739  0.0677
   13BDTP    C721767   9.287   8.284   7.462  0.0441 -0.2938 -0.2596
   13BDTP    C821768   9.327   8.247   7.586 -0.0906 -0.0165 -0.1332
   13BDTP    S121769   9.489   8.314   7.632 -0.3464  0.4723  0.0795
   13BDTP    C921770   9.686   8.613   7.222 -0.3595  0.4122  0.0293
   13BDTP   C1021771   9.646   8.649   7.098 -0.2253  0.1349 -0.0972
   13BDTP    S221772   9.484   8.583   7.052  0.0309 -0.3538 -0.3099
   14FTM     S121773   9.265   8.342   7.012  0.1651  0.2710 -0.3062
   14FTM     C121774   9.086   8.353   6.994  0.1504  0.1414 -0.2445
   14FTM     C221775   9.031   8.404   7.107  0.1059 -0.3276 -0.0509
   14FTM     C321776   9.122   8.437   7.213  0.0806 -0.6084  0.0588
   14FTM     C421777   9.252   8.410   7.179  0.1071 -0.3454 -0.0546
   14FTM     F121778   8.895   8.424   7.122  0.0849 -0.5305  0.0385
   14FTM     C521779   9.010   8.331   6.868  0.3912 -0.5765 -0.7130
   14FTM     C621780   9.029   8.220   6.765  0.6019  0.4574  0.0025
   14FTM     C721781   8.996   8.080   6.810 -0.1398  0.4186 -0.5613
   14FTM     C821782   8.869   8.043   6.879  0.1409  0.5615  0.2263
   14FTM     C921783   8.733   8.060   6.806 -0.5463  0.6689  0.1847
   14FTM    C1021784   8.622   7.976   6.861  0.2773 -0.2563 -0.3536
   14FTM    C1121785   9.167   8.226   6.711 -0.2034  0.6882  0.2318
   14FTM    C1221786   9.213   8.357   6.637 -0.0261 -0.1710 -0.2118
   15FTM     S121787   9.892   8.530   7.467 -0.1747 -0.1403 -0.2046
   15FTM     C121788   9.925   8.602   7.629 -0.1698 -0.3211 -0.1253
   15FTM     C221789   9.810   8.609   7.701 -0.1490 -0.5009 -0.0736
   15FTM     C321790   9.692   8.560   7.636 -0.1360 -0.5078 -0.0918
   15FTM     C421791   9.717   8.515   7.510 -0.1472 -0.3284 -0.1598
   15FTM     F121792   9.805   8.660   7.830 -0.1405 -0.6688 -0.0063
   15FTM     C521793  10.061   8.650   7.670  0.0618  0.3095 -0.1958
   15FTM     C621794  10.174   8.565   7.726  0.2486  0.3883 -0.3221
   15FTM     C721795  10.300   8.651   7.746  0.3841  0.7737  0.6053
   15FTM     C821796  10.379   8.697   7.625 -0.7920  0.1011  0.1256
   15FTM     C921797  10.311   8.778   7.517 -0.0996  0.1629  0.3982
   15FTM    C1021798  10.417   8.831   7.411  0.0558  0.0710 -0.0154
   15FTM    C1121799  10.143   8.463   7.837 -0.2610 -0.0853 -0.1657
   15FTM    C1221800  10.134   8.498   7.984 -0.8135 -0.2553  0.1868
   16TPM     C121801   9.707   8.746   7.007 -0.0152 -0.0541 -0.2470
   16TPM     C221802   9.829   8.741   6.946 -0.2059 -0.0744 -0.6313
   16TPM     C321803   9.859   8.858   6.868 -0.2925  0.0706 -0.4497
   16TPM     C421804   9.760   8.952   6.869 -0.1679  0.2008  0.0732
   16TPM     S121805   9.620   8.899   6.970  0.0701  0.1504  0.3790
   17BDD     C121806   9.713   9.238   6.607  0.0031 -0.1572 -0.0932
   17BDD     C221807   9.782   9.293   6.711 -0.0160 -0.0789 -0.1217
   17BDD     C321808   9.816   9.198   6.815  0.0788 -0.0279 -0.1054
   17BDD     C421809   9.771   9.071   6.789  0.1688 -0.0687 -0.0644
   17BDD     S121810   9.684   9.063   6.632  0.1411 -0.1731 -0.0436
   17BDD     C521811   9.821   9.436   6.718 -0.1221 -0.0477 -0.1650
   17BDD     C621812   9.891   9.236   6.937  0.0767  0.0589 -0.1307
   17BDD     O121813   9.920   9.153   7.026  0.1584  0.1028 -0.1165
   17BDD     O221814   9.792   9.518   6.629 -0.2039 -0.0918 -0.1791
   17BDD     C721815   9.929   9.378   6.944 -0.0295  0.0901 -0.1740
   17BDD     C821816   9.896   9.474   6.840 -0.1243  0.0391 -0.1904
   17BDD     C921817   9.941   9.600   6.866 -0.2143  0.0794 -0.2311
   17BDD     S221818  10.028   9.608   7.023 -0.1866  0.1840 -0.2521
   17BDD    C1021819   9.999   9.433   7.048 -0.0486  0.1683 -0.2025
   17BDD    C1121820  10.054   9.384   7.180 -0.2997 -0.6579 -0.2890
   17BDD    C1221821  10.189   9.311   7.155  0.0648 -0.1045  0.7218
   17BDD    C1321822  10.304   9.405   7.115  0.1640  0.3723 -0.0020
   17BDD    C1421823  10.354   9.507   7.220  0.5724  0.1812 -0.5141
   17BDD    C1521824  10.465   9.592   7.185 -0.5224 -0.1105 -0.2171
   17BDD    C1621825  10.532   9.683   7.289 -0.4330 -0.0644 -0.4154
   17BDD    C1721826  10.223   9.219   7.276  0.4035  0.3176  0.7190
   17BDD    C1821827  10.131   9.105   7.315  0.1126  0.0633 -0.5822
   17BDD    C1921828   9.938   9.734   6.799  0.0360  0.2839  0.3709
   17BDD    C2021829  10.031   9.749   6.677 -0.3409  0.4680 -0.0012
   17BDD    C2121830  10.184   9.713   6.688 -0.1857 -0.4982  0.5113
   17BDD    C2221831  10.273   9.795   6.781 -0.0315 -0.0250 -0.3052
   17BDD    C2321832  10.326   9.929   6.733 -0.6348 -0.4865  0.3916
   17BDD    C2421833  10.421   9.930   6.610  0.0436  0.0016  0.0236
   17BDD    C2521834   9.991   9.877   6.600 -0.1851  0.5532  0.2433
   17BDD    C2621835  10.049   9.886   6.459 -0.5328 -0.0222  0.0951
   18TPM     C121836   9.635   9.295   6.499 -0.0046  0.2582  0.3188
   18TPM     C221837   9.691   9.380   6.409 -0.2739  0.5572  0.4326
   18TPM     C321838   9.609   9.402   6.292 -0.3366  0.4442  0.4549
   18TPM     C421839   9.492   9.333   6.293 -0.1152  0.0594  0.3582
   18TPM     S121840   9.474   9.234   6.443  0.1925 -0.1928  0.2303
   19BDTP    C121841   9.103   9.365   5.793 -0.0188  0.1237  0.0533
   19BDTP    C221842   9.092   9.228   5.834 -0.0720  0.1340  0.0720
   19BDTP    C321843   9.161   9.176   5.942 -0.1059  0.1259  0.0896
   19BDTP    C421844   9.245   9.262   6.015 -0.0865  0.1073  0.0890
   19BDTP    C521845   9.256   9.399   5.975 -0.0331  0.0973  0.0703
   19BDTP    C621846   9.187   9.451   5.866  0.0007  0.1055  0.0526
   19BDTP    C721847   9.326   9.231   6.131 -0.1138  0.0964  0.1054
   19BDTP    C821848   9.397   9.336   6.179 -0.0844  0.0787  0.1000
   19BDTP    S121849   9.371   9.489   6.084 -0.0174  0.0737  0.0736
   19BDTP    C921850   9.022   9.396   5.678  0.0088  0.1349  0.0368
   19BDTP   C1021851   8.951   9.291   5.629 -0.0207  0.1526  0.0421
   19BDTP    S221852   8.977   9.138   5.724 -0.0879  0.1575  0.0686
   20FTM     S121853   9.291   8.921   5.997 -0.2117  0.1317 -0.2428
   20FTM     C121854   9.183   8.788   6.053 -0.1721  0.1217 -0.1887
   20FTM     C221855   9.053   8.829   6.049 -0.1905  0.0520 -0.2874
   20FTM     C321856   9.031   8.963   6.003 -0.2358  0.0033 -0.4077
   20FTM     C421857   9.147   9.027   5.971 -0.2529  0.0369 -0.4012
   20FTM     F121858   8.947   8.748   6.086 -0.1671  0.0279 -0.2743
   20FTM     C521859   9.246   8.660   6.110  0.1812 -0.0976 -0.3540
   20FTM     C621860   9.338   8.657   6.238  0.4531 -0.0335  0.2420
   20FTM     C721861   9.387   8.518   6.288  0.0538 -0.2856 -0.6596
   20FTM     C821862   9.295   8.395   6.276 -0.0470  0.9037 -0.1265
   20FTM     C921863   9.371   8.264   6.322  0.2523 -0.3911  0.3573
   20FTM    C1021864   9.301   8.132   6.284  0.2269  0.0469 -0.6662
   20FTM    C1121865   9.304   8.733   6.366  0.4929 -0.1666  0.3648
   20FTM    C1221866   9.302   8.887   6.355 -0.1812 -0.1378 -0.0546
   21FTM     S121867   9.333   9.666   5.735  0.1852  0.2905 -0.1027
   21FTM     C121868   9.259   9.829   5.754 -0.3728  0.0639 -0.2928
   21FTM     C221869   9.149   9.820   5.833 -0.1311 -0.1643  0.0254
   21FTM     C321870   9.116   9.690   5.882  0.4873 -0.1765  0.4267
   21FTM     C421871   9.204   9.595   5.839  0.7273  0.0497  0.4154
   21FTM     F121872   9.071   9.930   5.866 -0.4559 -0.3757 -0.0281
   21FTM     C521873   9.326   9.958   5.708  0.1512 -0.7772  0.0309
   21FTM     C621874   9.374  10.060   5.815  0.1952  0.0166  0.8482
   21FTM     C721875   9.455  10.018   5.938  0.0132 -0.4971 -0.0242
   21FTM     C821876   9.558   9.905   5.927 -0.3155 -0.0642 -0.3787
   21FTM     C921877   9.649   9.872   6.039 -0.7103  0.8431  0.5986
   21FTM    C1021878   9.596   9.878   6.184 -0.3912  0.3258  0.0143
   21FTM    C1121879   9.414  10.200   5.762 -0.4999 -0.6598 -0.2208
   21FTM    C1221880   9.320  10.281   5.668 -0.2162  1.2426  0.1801
   22TPM     C121881   8.853   9.286   5.527  0.2542 -0.0013  0.2015
   22TPM     C221882   8.799   9.384   5.450  0.8678  0.2308  0.0622
   22TPM     C321883   8.707   9.336   5.351  0.6862  0.6530  0.0246
   22TPM     C421884   8.689   9.201   5.352 -0.0661  0.7423  0.1350
   22TPM     S121885   8.790   9.123   5.480 -0.6078  0.2972  0.2965
   23BDD     C121886   8.452   8.921   5.211  0.1482  0.0456  0.1997
   23BDD     C221887   8.461   9.014   5.111  0.1161  0.0064  0.1607
   23BDD     C321888   8.541   9.130   5.147  0.1593  0.0033  0.0763
   23BDD     C421889   8.592   9.124   5.274  0.2233  0.0397  0.0521
   23BDD     S121890   8.543   8.973   5.357  0.2346  0.0811  0.1336
   23BDD     C521891   8.396   9.000   4.979  0.0448 -0.0293  0.1996
   23BDD     C621892   8.563   9.243   5.054  0.1349 -0.0362  0.0226
   23BDD     O121893   8.632   9.343   5.085  0.1721 -0.0391 -0.0502
   23BDD     O221894   8.327   8.899   4.948  0.0076 -0.0265  0.2724
   23BDD     C721895   8.498   9.228   4.922  0.0634 -0.0718  0.0614
   23BDD     C821896   8.419   9.112   4.886  0.0203 -0.0684  0.1458
   23BDD     C921897   8.368   9.118   4.759 -0.0441 -0.1049  0.1700
   23BDD     S221898   8.416   9.269   4.676 -0.0549 -0.1460  0.0885
   23BDD    C1021899   8.507   9.321   4.822  0.0312 -0.1106  0.0224
   23BDD    C1121900   8.573   9.454   4.802  0.5513 -0.0000  0.1204
   23BDD    C1221901   8.657   9.468   4.670  0.1219  0.1701 -0.3331
   23BDD    C1321902   8.789   9.384   4.669 -0.1870  0.2161  0.0840
   23BDD    C1421903   8.877   9.395   4.545 -0.3616 -0.0270  0.0591
   23BDD    C1521904   8.981   9.289   4.507 -0.1159  0.4147 -0.0222
   23BDD    C1621905   8.944   9.138   4.509  0.3969 -0.0463 -0.7768
   23BDD    C1721906   8.664   9.606   4.607 -0.3745 -1.1066 -0.2765
   23BDD    C1821907   8.745   9.720   4.677 -0.2230  0.1189  0.0240
   23BDD    C1921908   8.291   9.023   4.672  0.6622 -0.6343  0.0370
   23BDD    C2021909   8.376   8.953   4.567 -0.4378  0.5337 -0.1615
   23BDD    C2121910   8.500   8.875   4.618  0.3314  0.8768 -0.5546
   23BDD    C2221911   8.485   8.754   4.711  0.5452 -0.4421 -0.6824
   23BDD    C2321912   8.610   8.683   4.749 -0.4756 -0.7743 -0.5893
   23BDD    C2421913   8.569   8.566   4.834 -0.2843  0.2166 -0.3719
   23BDD    C2521914   8.300   8.862   4.465  0.5604  0.0424 -0.0932
   23BDD    C2621915   8.172   8.916   4.398 -0.5087 -0.4887  0.2440
   24TPM     C121916   8.394   8.785   5.220 -0.0912 -0.0232 -0.3817
   24TPM     C221917   8.295   8.757   5.309 -0.3388  0.0675 -0.6243
   24TPM     C321918   8.251   8.620   5.306 -0.3655  0.0765 -0.6423
   24TPM     C421919   8.316   8.543   5.213 -0.1383 -0.0071 -0.4139
   24TPM     S121920   8.440   8.640   5.123  0.1291 -0.1048 -0.1561
   25BDTP    C121921   8.231   7.924   5.109  0.1571  0.0458  0.0353
   25BDTP    C221922   8.283   7.971   4.985  0.0699  0.1316  0.0303
   25BDTP    C321923   8.317   8.103   4.963  0.0174  0.1543  0.0848
   25BDTP    C421924   8.299   8.195   5.068  0.0525  0.0892  0.1472
   25BDTP    C521925   8.247   8.148   5.192  0.1397  0.0033  0.1521
   25BDTP    C621926   8.213   8.015   5.214  0.1924 -0.0191  0.0975
   25BDTP    C721927   8.328   8.337   5.069  0.0106  0.0976  0.2106
   25BDTP    C821928   8.300   8.398   5.187  0.0620  0.0226  0.2621
   25BDTP    S121929   8.233   8.285   5.312  0.1702 -0.0679  0.2376
   25BDTP    C921930   8.202   7.782   5.108  0.1991  0.0377 -0.0283
   25BDTP   C1021931   8.230   7.720   4.991  0.1478  0.1124 -0.0798
   25BDTP    S221932   8.297   7.834   4.865  0.0394  0.2035 -0.0554
   26FTM     S121933   8.243   8.142   4.691 -0.0128  0.4706 -0.1637
   26FTM     C121934   8.360   8.228   4.585  0.2338 -0.0583 -0.3255
   26FTM     C221935   8.476   8.250   4.654  0.4416 -0.5965 -0.4915
   26FTM     C321936   8.480   8.203   4.789  0.4225 -0.6301 -0.5025
   26FTM     C421937   8.363   8.143   4.825  0.1924 -0.0996 -0.3398
   26FTM     F121938   8.585   8.315   4.598  0.6621 -1.0912 -0.6431
   26FTM     C521939   8.328   8.246   4.441 -0.2884  0.0643  0.1223
   26FTM     C621940   8.334   8.381   4.365 -0.1343 -0.0921 -0.3365
   26FTM     C721941   8.471   8.441   4.345 -0.5954 -0.2083 -0.1485
   26FTM     C821942   8.554   8.351   4.251  0.4148  0.4436 -0.4225
   26FTM     C921943   8.703   8.371   4.270 -0.6436 -0.3401 -0.4929
   26FTM    C1021944   8.784   8.306   4.160  0.8994 -0.2863 -0.3552
   26FTM    C1121945   8.236   8.490   4.409 -0.5292 -0.6456  0.1496
   26FTM    C1221946   8.089   8.459   4.432  0.1262  0.6123 -0.2307
   27FTM     S121947   8.270   7.972   5.484  0.1726 -0.1070  0.0130
   27FTM     C121948   8.135   7.922   5.593  0.2444 -0.0932  0.1084
   27FTM     C221949   8.020   7.913   5.522  0.1502  0.1203  0.2303
   27FTM     C321950   8.029   7.943   5.382  0.0203  0.2823  0.2563
   27FTM     C421951   8.155   7.977   5.345  0.0141  0.1895  0.1508
   27FTM     F121952   7.899   7.876   5.579  0.1770  0.1819  0.3256
   27FTM     C521953   8.160   7.879   5.735 -0.1621 -0.1171  0.0004
   27FTM     C621954   8.163   7.984   5.854  0.2677  0.5308  0.0364
   27FTM     C721955   8.266   8.090   5.842 -0.1079 -0.2113 -0.6401
   27FTM     C821956   8.410   8.049   5.897  0.3333  0.4961  0.3432
   27FTM     C921957   8.517   8.159   5.898  0.9975 -0.3492  0.0761
   27FTM    C1021958   8.657   8.106   5.925  0.3251  0.4027 -0.8324
   27FTM    C1121959   8.025   8.044   5.899 -0.1760  0.6618 -0.3038
   27FTM    C1221960   7.913   7.952   5.941  0.1043  0.2866  0.5452
   28TPM     C121961   8.205   7.581   4.956 -0.4157  0.2029 -0.2134
   28TPM     C221962   8.210   7.474   5.040 -1.0102  0.3047 -0.0378
   28TPM     C321963   8.187   7.348   4.974 -0.8326  0.2503  0.0027
   28TPM     C421964   8.164   7.359   4.840 -0.1029  0.1068 -0.1420
   28TPM     S121965   8.170   7.531   4.786  0.4206  0.0287 -0.3424
   29BDD     C121966   8.146   6.993   4.699 -0.2174  0.1002 -0.0276
   29BDD     C221967   8.201   7.066   4.597 -0.1850  0.0612 -0.0385
   29BDD     C321968   8.219   7.207   4.630 -0.0153  0.0347 -0.0182
   29BDD     C421969   8.178   7.238   4.757  0.0797  0.0540  0.0077
   29BDD     S121970   8.114   7.095   4.843 -0.0374  0.1067  0.0087
   29BDD     C521971   8.238   7.010   4.465 -0.3092  0.0467 -0.0681
   29BDD     C621972   8.277   7.304   4.535  0.0470 -0.0089 -0.0253
   29BDD     O121973   8.292   7.425   4.564  0.1936 -0.0319 -0.0079
   29BDD     O221974   8.222   6.889   4.437 -0.4559  0.0697 -0.0855
   29BDD     C721975   8.314   7.248   4.404 -0.0768 -0.0235 -0.0548
   29BDD     C821976   8.296   7.108   4.370 -0.2470  0.0031 -0.0751
   29BDD     C921977   8.337   7.076   4.244 -0.3417 -0.0162 -0.1012
   29BDD     S221978   8.401   7.220   4.158 -0.2246 -0.0690 -0.1020
   29BDD    C1021979   8.369   7.321   4.302 -0.0446 -0.0627 -0.0657
   29BDD    C1121980   8.399   7.470   4.284 -0.7939 -0.5577  0.0379
   29BDD    C1221981   8.551   7.514   4.289  0.3180 -0.1852  0.2396
   29BDD    C1321982   8.620   7.475   4.160 -0.4010 -0.2360  0.9628
   29BDD    C1421983   8.758   7.550   4.134  0.0758 -0.1277 -0.1093
   29BDD    C1521984   8.882   7.481   4.193  0.4656  0.1239 -0.1081
   29BDD    C1621985   9.004   7.573   4.176  0.2693 -0.4866 -0.0962
   29BDD    C1721986   8.625   7.501   4.419 -0.4468  0.0004 -0.5537
   29BDD    C1821987   8.682   7.365   4.466  0.6709  0.1003 -0.4740
   29BDD    C1921988   8.344   6.948   4.164  0.1621 -0.5556 -0.4338
   29BDD    C2021989   8.238   6.937   4.057  1.2555  0.3441 -0.4458
   29BDD    C2121990   8.090   6.920   4.107  0.2470  0.0744  0.4363
   29BDD    C2221991   8.057   6.787   4.174  0.5335 -0.7752  0.4511
   29BDD    C2321992   7.918   6.803   4.243 -0.3182 -0.2195  0.3305
   29BDD    C2421993   7.863   6.668   4.287  0.5098 -0.3581 -0.0214
   29BDD    C2521994   8.292   6.854   3.936  0.5212  0.3495  0.0184
   29BDD    C2621995   8.213   6.847   3.804 -0.0937 -0.1490 -0.7350
   30TPM     C121996   8.115   6.857   4.721 -0.6574 -0.0432 -0.1918
   30TPM     C221997   8.048   6.782   4.629 -0.5789 -0.2452 -0.0877
   30TPM     C321998   7.995   6.659   4.682 -0.3258 -0.2953  0.0505
   30TPM     C421999   8.023   6.639   4.814 -0.2115 -0.1314  0.0514
   30TPM     S122000   8.118   6.776   4.883 -0.4163  0.1007 -0.1232
   31BDTP    C122001   7.838   6.158   5.164 -0.0861  0.0819  0.0006
   31BDTP    C222002   7.944   6.214   5.241 -0.0918  0.0745  0.0135
   31BDTP    C322003   8.016   6.326   5.201 -0.0587  0.0513  0.0073
   31BDTP    C422004   7.981   6.386   5.079 -0.0182  0.0343 -0.0126
   31BDTP    C522005   7.875   6.331   5.002 -0.0125  0.0417 -0.0256
   31BDTP    C622006   7.803   6.219   5.041 -0.0456  0.0648 -0.0195
   31BDTP    C722007   8.041   6.503   5.017  0.0205  0.0093 -0.0224
   31BDTP    C822008   7.985   6.538   4.898  0.0548 -0.0025 -0.0418
   31BDTP    S122009   7.849   6.427   4.848  0.0426  0.0165 -0.0507
   31BDTP    C922010   7.778   6.042   5.225 -0.1251  0.1068  0.0103
   31BDTP   C1022011   7.834   6.007   5.344 -0.1593  0.1186  0.0298
   31BDTP    S222012   7.970   6.118   5.394 -0.1469  0.0996  0.0385
   32FTM     S122013   8.124   6.562   5.322 -0.1097 -0.1251 -0.2117
   32FTM     C122014   8.276   6.548   5.418 -0.2795 -0.1427  0.0577
   32FTM     C222015   8.318   6.418   5.418  0.0052 -0.0551 -0.3389
   32FTM     C322016   8.237   6.325   5.346  0.3638  0.0293 -0.8638
   32FTM     C422017   8.129   6.385   5.289  0.3536  0.0053 -0.8695
   32FTM     F122018   8.433   6.377   5.484 -0.0422 -0.0460 -0.2503
   32FTM     C522019   8.332   6.673   5.491 -0.0625 -0.3978  0.1958
   32FTM     C622020   8.262   6.726   5.620  0.8483 -0.4686  0.0183
   32FTM     C722021   8.342   6.829   5.702 -0.0398 -0.6748  0.1566
   32FTM     C822022   8.377   6.954   5.621 -0.2370 -0.1798  0.1782
   32FTM     C922023   8.465   7.052   5.695  0.4308 -0.2946 -0.0395
   32FTM    C1022024   8.476   7.181   5.618  0.8913 -0.3812  0.7257
   32FTM    C1122025   8.113   6.758   5.601  0.2202  0.3688 -0.5922
   32FTM    C1222026   8.033   6.817   5.711 -0.5344 -0.5522 -0.6745
   33FTM     S122027   7.520   6.218   4.939 -0.2469 -0.1096 -0.2985
   33FTM     C122028   7.497   6.096   4.809  0.4354 -0.4398 -0.1163
   33FTM     C222029   7.616   6.034   4.782  0.6679 -0.2130  0.3630
   33FTM     C322030   7.729   6.078   4.859  0.3377  0.2210  0.6115
   33FTM     C422031   7.696   6.175   4.948 -0.1643  0.3299  0.3130
   33FTM     F122032   7.629   5.935   4.686  1.1936 -0.3848  0.6047
   33FTM     C522033   7.363   6.075   4.747  0.1550  0.1251  0.3935
   33FTM     C622034   7.309   6.176   4.645 -0.1903  0.3328  0.5333
   33FTM     C722035   7.168   6.139   4.596 -0.2860 -0.0428  0.3909
   33FTM     C822036   7.058   6.123   4.702  0.6169 -0.0354  0.0767
   33FTM     C922037   6.940   6.063   4.624  1.3221  0.1142  0.1978
   33FTM    C1022038   6.827   6.027   4.720  0.2929 -0.1207  0.0993
   33FTM    C1122039   7.405   6.246   4.543  0.1916 -0.0661 -0.4970
   33FTM    C1222040   7.476   6.167   4.431  0.5455  0.1807 -0.0656
   34TPM     C122041   7.798   5.895   5.426 -0.0293 -0.2762 -0.3822
   34TPM     C222042   7.700   5.801   5.408  0.1862 -0.4737 -0.5494
   34TPM     C322043   7.697   5.701   5.511  0.1333 -0.4054 -0.4839
   34TPM     C422044   7.793   5.717   5.607 -0.1227 -0.1561 -0.2668
   34TPM     S122045   7.895   5.862   5.574 -0.3182  0.0133 -0.1272
   35BDD     C122046   7.966   5.515   5.901  0.0885  0.1326  0.1470
   35BDD     C222047   7.838   5.466   5.896  0.0923  0.1180  0.1926
   35BDD     C322048   7.758   5.524   5.789  0.0294  0.1531  0.2583
   35BDD     C422049   7.826   5.616   5.714 -0.0214  0.1936  0.2619
   35BDD     S122050   7.995   5.636   5.772  0.0058  0.1910  0.1831
   35BDD     C522051   7.785   5.365   5.990  0.1540  0.0713  0.1775
   35BDD     C622052   7.618   5.486   5.766  0.0222  0.1448  0.3153
   35BDD     O122053   7.549   5.535   5.674 -0.0321  0.1751  0.3719
   35BDD     O222054   7.854   5.316   6.082  0.2081  0.0410  0.1209
   35BDD     C722055   7.564   5.384   5.860  0.0838  0.0982  0.3000
   35BDD     C822056   7.644   5.327   5.966  0.1466  0.0632  0.2342
   35BDD     C922057   7.576   5.235   6.042  0.1975  0.0225  0.2307
   35BDD     S222058   7.408   5.215   5.984  0.1703  0.0252  0.3095
   35BDD    C1022059   7.437   5.336   5.855  0.0876  0.0838  0.3456
   35BDD    C1122060   7.314   5.364   5.760  0.2844 -0.2930 -0.2129
   35BDD    C1222061   7.286   5.263   5.648 -0.0242  0.3815 -0.1519
   35BDD    C1322062   7.144   5.275   5.579 -0.0056  0.0368 -0.7948
   35BDD    C1422063   7.003   5.252   5.651  0.5478  0.0998  0.6430
   35BDD    C1522064   7.007   5.160   5.777  0.0703 -0.2858 -0.3116
   35BDD    C1622065   6.876   5.140   5.852 -1.0027 -0.1527 -0.5392
   35BDD    C1722066   7.400   5.244   5.549  0.0381 -0.2554  0.8137
   35BDD    C1822067   7.404   5.333   5.428 -0.4714 -0.0439  0.2297
   35BDD    C1922068   7.615   5.149   6.158  0.1814  0.5359 -0.4673
   35BDD    C2022069   7.641   5.000   6.122  0.2073 -0.4274  0.0195
   35BDD    C2122070   7.648   4.898   6.239  0.8172 -0.2567 -0.0064
   35BDD    C2222071   7.544   4.897   6.353  0.5386 -0.3916  0.2177
   35BDD    C2322072   7.389   4.882   6.315 -1.0558  0.3466  0.6387
   35BDD    C2422073   7.345   4.738   6.278 -0.1969 -0.3133  0.0799
   35BDD    C2522074   7.743   4.969   6.011  0.0173 -0.2871 -0.0312
   35BDD    C2622075   7.885   5.000   6.045 -0.4260  0.1730  0.2307
   36TPM     C122076   8.085   5.505   5.988  0.2037 -0.0631 -0.6375
   36TPM     C222077   8.134   5.386   6.033  0.1178 -0.0464 -0.4983
   36TPM     C322078   8.267   5.394   6.088 -0.0963  0.0274  0.0169
   36TPM     C422079   8.319   5.520   6.085 -0.1728  0.0667  0.2708
   36TPM     S122080   8.204   5.638   6.012  0.0201  0.0133 -0.1246
   37BDTP    C122081   8.848   5.770   6.321 -0.2131 -0.1671  0.0277
   37BDTP    C222082   8.895   5.656   6.250 -0.1500 -0.0783 -0.0730
   37BDTP    C322083   8.810   5.569   6.182 -0.0985 -0.0461 -0.1795
   37BDTP    C422084   8.672   5.596   6.185 -0.1099 -0.1040 -0.1872
   37BDTP    C522085   8.625   5.710   6.257 -0.1729 -0.1925 -0.0865
   37BDTP    C622086   8.710   5.797   6.324 -0.2242 -0.2248  0.0198
   37BDTP    C722087   8.566   5.521   6.123 -0.0646 -0.0853 -0.2880
   37BDTP    C822088   8.442   5.572   6.144 -0.0899 -0.1549 -0.2682
   37BDTP    S122089   8.443   5.723   6.245 -0.1752 -0.2538 -0.1192
   37BDTP    C922090   8.955   5.846   6.383 -0.2584 -0.1856  0.1284
   37BDTP   C1022091   9.079   5.795   6.362 -0.2329 -0.1159  0.1087
   37BDTP    S222092   9.077   5.644   6.261 -0.1477 -0.0172 -0.0404
   38FTM     S122093   8.799   5.285   6.134 -0.2080  0.3580 -0.2999
   38FTM     C122094   8.915   5.224   6.010  0.1086  0.1844  0.0786
   38FTM     C222095   8.994   5.326   5.967  0.4900  0.0405  0.4271
   38FTM     C322096   8.970   5.454   6.026  0.5572  0.0561  0.4214
   38FTM     C422097   8.868   5.450   6.118  0.2166  0.2174  0.0563
   38FTM     F122098   9.093   5.309   5.872  0.8006 -0.1137  0.7724
   38FTM     C522099   8.895   5.085   5.957  0.2446  0.1687  0.3088
   38FTM     C622100   8.879   4.964   6.060 -0.3505  0.1183  0.5222
   38FTM     C722101   8.842   4.830   5.995 -1.0305  0.0660 -0.3339
   38FTM     C822102   8.727   4.802   5.902  0.1656 -0.2191 -0.1782
   38FTM     C922103   8.589   4.829   5.960 -0.3678 -0.2415  0.5046
   38FTM    C1022104   8.479   4.787   5.862  0.0466 -0.0035 -0.4832
   38FTM    C1122105   8.977   4.956   6.182 -0.2693 -0.1955 -0.2837
   38FTM    C1222106   9.119   4.907   6.153 -0.1177 -0.1870  0.1329
   39FTM     S122107   8.721   6.084   6.389  0.1418 -0.0410  0.0165
   39FTM     C122108   8.601   6.140   6.510  0.3185 -0.2016  0.2678
   39FTM     C222109   8.522   6.036   6.549  0.4206 -0.2679  0.2983
   39FTM     C322110   8.550   5.909   6.488  0.3693 -0.1996  0.1318
   39FTM     C422111   8.654   5.916   6.399  0.2228 -0.0768 -0.0309
   39FTM     F122112   8.420   6.049   6.642  0.5670 -0.3946  0.4784
   39FTM     C522113   8.597   6.279   6.562 -0.4840 -0.2495 -0.2776
   39FTM     C622114   8.558   6.395   6.473 -0.6468 -0.0273  0.3035
   39FTM     C722115   8.571   6.534   6.542 -0.2851  0.0028 -0.3734
   39FTM     C822116   8.538   6.654   6.442 -0.5454  0.1507  0.3669
   39FTM     C922117   8.518   6.784   6.516  0.1749 -0.3055 -0.4307
   39FTM    C1022118   8.513   6.892   6.414 -0.6711 -0.2408 -0.1024
   39FTM    C1122119   8.429   6.371   6.382  0.0692 -0.0286 -0.5436
   39FTM    C1222120   8.298   6.388   6.451  0.3653  0.5541 -0.4248
   40TPM     C122121   9.202   5.854   6.408  0.0322 -0.4809  0.1547
   40TPM     C222122   9.330   5.814   6.382 -0.0119 -0.7460  0.3328
   40TPM     C322123   9.430   5.894   6.450  0.0722 -0.6723  0.1240
   40TPM     C422124   9.377   5.994   6.526  0.1807 -0.3511 -0.2136
   40TPM     S122125   9.197   5.995   6.519  0.1852 -0.1149 -0.2942
   41BDD     C122126   9.679   6.181   6.689 -0.3642 -0.0762 -0.1054
   41BDD     C222127   9.570   6.240   6.746 -0.3283 -0.0641 -0.0490
   41BDD     C322128   9.444   6.185   6.700 -0.3572 -0.0954  0.0657
   41BDD     C422129   9.459   6.085   6.608 -0.4145 -0.1309  0.0951
   41BDD     S122130   9.632   6.052   6.574 -0.4366 -0.1277 -0.0190
   41BDD     C522131   9.578   6.349   6.845 -0.2661 -0.0234 -0.0987
   41BDD     C622132   9.313   6.234   6.749 -0.3266 -0.0888  0.1420
   41BDD     O122133   9.204   6.187   6.709 -0.3512 -0.1159  0.2409
   41BDD     O222134   9.687   6.397   6.885 -0.2413  0.0036 -0.1976
   41BDD     C722135   9.321   6.343   6.848 -0.2642 -0.0480  0.0925
   41BDD     C822136   9.447   6.398   6.894 -0.2356 -0.0168 -0.0224
   41BDD     C922137   9.432   6.499   6.986 -0.1781  0.0186 -0.0520
   41BDD     S222138   9.259   6.531   7.020 -0.1558  0.0154  0.0620
   41BDD    C1022139   9.212   6.403   6.905 -0.2284 -0.0360  0.1487
   41BDD    C1122140   9.061   6.384   6.889 -0.3760 -0.1540  0.0290
   41BDD    C1222141   8.962   6.502   6.848 -0.9724  0.8004 -0.5172
   41BDD    C1322142   8.973   6.551   6.709 -0.1526 -0.0862  0.5782
   41BDD    C1422143   8.951   6.450   6.590 -0.4417 -0.3564 -0.3320
   41BDD    C1522144   8.978   6.517   6.452 -0.0555  0.3356 -0.3237
   41BDD    C1622145   8.954   6.420   6.340 -0.2001  0.1210 -0.4663
   41BDD    C1722146   8.824   6.468   6.898  0.3561 -0.7229  0.6036
   41BDD    C1822147   8.707   6.570   6.885 -0.4517 -0.2824  0.4729
   41BDD    C1922148   9.519   6.609   7.043 -0.0373  0.3779 -0.7317
   41BDD    C2022149   9.532   6.611   7.200  0.3925 -0.7293  0.0619
   41BDD    C2122150   9.628   6.502   7.242  0.8803 -0.1133 -0.9259
   41BDD    C2222151   9.778   6.530   7.218 -0.2180  0.4311 -0.1745
   41BDD    C2322152   9.869   6.408   7.217  0.2508 -0.3756  0.4868
   41BDD    C2422153  10.014   6.432   7.177  0.6288  0.0869 -0.4279
   41BDD    C2522154   9.563   6.749   7.267 -0.2648  0.2125 -0.6405
   41BDD    C2622155   9.473   6.868   7.229 -0.0758 -0.0851  0.5264
   42TPM     C122156   9.823   6.200   6.695 -0.2044 -0.2752 -0.1323
   42TPM     C222157   9.881   6.199   6.819 -0.2136 -0.3740 -0.1289
   42TPM     C322158  10.022   6.169   6.816 -0.2063 -0.3386 -0.1457
   42TPM     C422159  10.071   6.147   6.690 -0.1916 -0.2128 -0.1618
   42TPM     S122160   9.942   6.163   6.565 -0.1857 -0.1285 -0.1571
   43BDTP    C122161  10.670   6.195   6.505 -0.0296  0.0354 -0.1354
   43BDTP    C222162  10.618   6.096   6.416 -0.0270  0.0350 -0.1366
   43BDTP    C322163  10.487   6.051   6.422 -0.0271  0.0349 -0.1401
   43BDTP    C422164  10.403   6.105   6.522 -0.0299  0.0350 -0.1426
   43BDTP    C522165  10.456   6.203   6.611 -0.0325  0.0350 -0.1413
   43BDTP    C622166  10.586   6.248   6.604 -0.0323  0.0355 -0.1378
   43BDTP    C722167  10.265   6.073   6.548 -0.0306  0.0348 -0.1462
   43BDTP    C822168  10.210   6.142   6.651 -0.0335  0.0348 -0.1478
   43BDTP    S122169  10.328   6.257   6.730 -0.0358  0.0352 -0.1448
   43BDTP    C922170  10.809   6.226   6.478 -0.0289  0.0354 -0.1316
   43BDTP   C1022171  10.863   6.157   6.375 -0.0260  0.0353 -0.1301
   43BDTP    S222172  10.746   6.042   6.297 -0.0236  0.0349 -0.1331
   44FTM     S122173  10.487   5.981   6.147 -0.1458  0.2225 -0.1408
   44FTM     C122174  10.395   5.833   6.100  0.1062 -0.0282  0.1410
   44FTM     C222175  10.331   5.782   6.209  0.7517 -0.3322  0.3831
   44FTM     C322176  10.351   5.852   6.333  1.0816 -0.3875  0.3648
   44FTM     C422177  10.431   5.961   6.318  0.6755 -0.1168  0.1000
   44FTM     F122178  10.252   5.668   6.204  1.0821 -0.5786  0.6360
   44FTM     C522179  10.404   5.769   5.958 -0.4493  0.0222 -0.6768
   44FTM     C622180  10.548   5.733   5.916  0.4943  0.1596 -0.0188
   44FTM     C722181  10.632   5.636   6.000  0.0592 -0.5650  0.1673
   44FTM     C822182  10.686   5.692   6.131  0.3505  0.0476 -0.5182
   44FTM     C922183  10.750   5.581   6.213 -0.4731 -0.1261 -0.5117
   44FTM    C1022184  10.825   5.626   6.336  0.3812  0.5608 -0.4081
   44FTM    C1122185  10.537   5.685   5.770  0.0075 -0.0449 -0.2999
   44FTM    C1222186  10.664   5.660   5.696 -0.6818  0.0571  0.0730
   45FTM     S122187  10.533   6.511   6.704 -0.1115  0.0072  0.2374
   45FTM     C122188  10.645   6.572   6.831  0.0583  0.2969 -0.0478
   45FTM     C222189  10.744   6.481   6.852  0.3879  0.5820 -0.3468
   45FTM     C322190  10.739   6.362   6.772  0.5251  0.5925 -0.3717
   45FTM     C422191  10.632   6.362   6.688  0.2930  0.3058 -0.0824
   45FTM     F122192  10.846   6.501   6.944  0.5849  0.8508 -0.6154
   45FTM     C522193  10.614   6.700   6.903 -0.0289 -0.1870 -0.2560
   45FTM     C622194  10.480   6.704   6.969 -0.3030  0.1358  0.6076
   45FTM     C722195  10.449   6.847   7.015 -0.7057  0.4967 -0.4911
   45FTM     C822196  10.421   6.945   6.903  0.8789  0.4820  1.0251
   45FTM     C922197  10.373   7.071   6.962  0.5350 -0.5476  0.2816
   45FTM    C1022198  10.317   7.166   6.848  0.0401  0.5674 -0.0654
   45FTM    C1122199  10.448   6.596   7.068 -0.3593  1.1840  0.1197
   45FTM    C1222200  10.535   6.571   7.194 -0.4753 -0.2074 -0.3683
   46TPM     C122201  10.994   6.169   6.316  0.1410 -0.2590 -0.0218
   46TPM     C222202  11.054   6.082   6.228  0.0488 -0.0699 -0.2748
   46TPM     C322203  11.179   6.131   6.176 -0.0495  0.0824 -0.3705
   46TPM     C422204  11.214   6.254   6.223 -0.0323  0.0092 -0.1907
   46TPM     S122205  11.092   6.318   6.338  0.1106 -0.2594  0.1159
   47BDD     C122206  11.439   6.543   6.099 -0.0977 -0.0673 -0.1102
   47BDD     C222207  11.521   6.433   6.101 -0.0898 -0.0598 -0.0081
   47BDD     C322208  11.454   6.311   6.141 -0.0703 -0.0192  0.1513
   47BDD     C422209  11.321   6.329   6.169 -0.0636  0.0038  0.1685
   47BDD     S122210  11.271   6.500   6.147 -0.0812 -0.0238 -0.0136
   47BDD     C522211  11.665   6.437   6.066 -0.1000 -0.0899 -0.0534
   47BDD     C622212  11.523   6.181   6.150 -0.0590 -0.0048  0.2807
   47BDD     O122213  11.465   6.076   6.184 -0.0421  0.0303  0.4182
   47BDD     O222214  11.723   6.543   6.032 -0.1168 -0.1249 -0.1909
   47BDD     C722215  11.667   6.185   6.115 -0.0691 -0.0347  0.2354
   47BDD     C822216  11.734   6.307   6.075 -0.0887 -0.0753  0.0761
   47BDD     C922217  11.867   6.289   6.047 -0.0954 -0.0983  0.0589
   47BDD     S222218  11.917   6.118   6.069 -0.0776 -0.0708  0.2410
   47BDD    C1022219  11.749   6.076   6.117 -0.0612 -0.0273  0.3375
   47BDD    C1122220  11.735   5.930   6.152  0.0196  0.6346  0.0290
   47BDD    C1222221  11.750   5.891   6.302  0.3696  0.2105  0.5930
   47BDD    C1322222  11.858   5.960   6.385 -0.3869 -0.1145 -0.4286
   47BDD    C1422223  11.817   6.097   6.449 -0.1245 -0.1497  0.3062
   47BDD    C1522224  11.930   6.158   6.525  0.2648  0.0272 -0.6371
   47BDD    C1622225  11.912   6.298   6.574  0.2491 -0.0749  0.2347
   47BDD    C1722226  11.608   5.862   6.372  0.0204 -0.2994 -0.1424
   47BDD    C1822227  11.610   5.794   6.512 -0.1562 -0.2951 -0.0768
   47BDD    C1922228  11.970   6.380   5.982  0.2017 -0.0964 -0.4982
   47BDD    C2022229  11.980   6.368   5.822  0.1546 -0.5116  0.2279
   47BDD    C2122230  11.858   6.405   5.740 -0.2546  0.2833 -0.7139
   47BDD    C2222231  11.871   6.420   5.587  0.2286 -0.2180 -0.2826
   47BDD    C2322232  11.948   6.541   5.533 -0.1197 -0.3599 -0.3080
   47BDD    C2422233  11.894   6.584   5.398 -0.2031 -0.3763  0.4821
   47BDD    C2522234  12.067   6.252   5.768 -0.1095  0.0050 -0.2495
   47BDD    C2622235  12.204   6.226   5.832 -0.2943 -0.2255 -0.5284
   48TPM     C122236  11.451   6.692   6.074 -0.0223  0.3325 -0.4783
   48TPM     C222237  11.339   6.769   6.087 -0.0752  0.2991 -0.7224
   48TPM     C322238  11.361   6.908   6.055  0.0090  0.3464 -0.4678
   48TPM     C422239  11.489   6.936   6.017  0.1259  0.4157 -0.0295
   48TPM     S122240  11.593   6.788   6.019  0.1390  0.4270  0.0965
   49BDTP    C122241  11.659   7.530   5.912 -0.0181 -0.0260  0.0179
   49BDTP    C222242  11.759   7.455   5.843 -0.0123 -0.1043  0.1116
   49BDTP    C322243  11.761   7.316   5.843 -0.0536 -0.1053  0.2104
   49BDTP    C422244  11.661   7.248   5.914 -0.1032 -0.0249  0.2177
   49BDTP    C522245  11.562   7.323   5.983 -0.1090  0.0535  0.1240
   49BDTP    C622246  11.559   7.462   5.983 -0.0676  0.0543  0.0249
   49BDTP    C722247  11.643   7.105   5.928 -0.1518 -0.0095  0.3115
   49BDTP    C822248  11.536   7.070   6.004 -0.1933  0.0757  0.2929
   49BDTP    S122249  11.443   7.213   6.067 -0.1766  0.1482  0.1539
   49BDTP    C922250  11.677   7.673   5.897  0.0306 -0.0414 -0.0759
   49BDTP   C1022251  11.784   7.708   5.822  0.0720 -0.1265 -0.0572
   49BDTP    S222252  11.877   7.565   5.758  0.0554 -0.1992  0.0814
   50FTM     S122253  11.831   7.128   5.636  0.1030 -0.0198 -0.0277
   50FTM     C122254  12.008   7.103   5.614  0.1249  0.1892 -0.0984
   50FTM     C222255  12.078   7.177   5.704  0.0676  0.1366 -0.0106
   50FTM     C322256  11.999   7.257   5.794  0.0046 -0.0643  0.1140
   50FTM     C422257  11.866   7.243   5.772  0.0140 -0.1691  0.1216
   50FTM     F122258  12.216   7.177   5.711  0.0686  0.2677 -0.0376
   50FTM     C522259  12.057   7.015   5.509  0.0983  0.3767  0.6143
   50FTM     C622260  12.139   7.056   5.389  0.2155 -0.1248  0.0772
   50FTM     C722261  12.086   7.178   5.312 -0.5865  0.5732 -0.1373
   50FTM     C822262  12.107   7.327   5.366  1.0047  0.0091  0.2114
   50FTM     C922263  12.240   7.394   5.389  0.2041  0.0014 -0.4147
   50FTM    C1022264  12.234   7.513   5.482 -0.1128 -0.2865 -0.0008
   50FTM    C1122265  12.164   6.929   5.305 -0.3161 -0.2889 -0.0629
   50FTM    C1222266  12.266   6.950   5.194 -0.2888  0.1793  0.0838
   51FTM     S122267  11.476   7.528   6.249  0.0266  0.4454 -0.0164
   51FTM     C122268  11.347   7.652   6.267 -0.5570 -0.1600  0.0622
   51FTM     C222269  11.300   7.688   6.145 -1.0432 -0.6211  0.1062
   51FTM     C322270  11.360   7.623   6.032 -0.9927 -0.5337  0.0821
   51FTM     C422271  11.456   7.534   6.069 -0.4502  0.0121  0.0175
   51FTM     F122272  11.200   7.783   6.128 -1.5627 -1.1495  0.1709
   51FTM     C522273  11.315   7.690   6.409  0.5091 -0.3402 -0.1540
   51FTM     C622274  11.177   7.668   6.468  0.0628 -0.6994  0.6754
   51FTM     C722275  11.133   7.521   6.483 -0.0953 -0.6408 -0.0986
   51FTM     C822276  11.209   7.421   6.560  0.4859  0.3522  0.1899
   51FTM     C922277  11.229   7.458   6.702 -0.6641 -0.1293 -0.0892
   51FTM    C1022278  11.156   7.384   6.805 -0.2540  0.1327  0.2697
   51FTM    C1122279  11.061   7.761   6.425 -0.3156  0.5515  0.2245
   51FTM    C1222280  11.086   7.912   6.400  0.0935 -0.0104 -0.4674
   52TPM     C122281  11.792   7.847   5.770  0.0172  0.3143 -0.2945
   52TPM     C222282  11.843   7.891   5.651 -0.0280  0.4269 -0.2730
   52TPM     C322283  11.827   8.032   5.630 -0.0165  0.4511 -0.1235
   52TPM     C422284  11.765   8.097   5.732  0.0372  0.3570 -0.0311
   52TPM     S122285  11.719   7.983   5.865  0.0780  0.2294 -0.1263
   53BDD     C122286  11.822   8.485   5.709  0.0291  0.1946 -0.2955
   53BDD     C222287  11.694   8.469   5.752  0.0474  0.2170 -0.2334
   53BDD     C322288  11.655   8.330   5.770  0.0795  0.2289 -0.0714
   53BDD     C422289  11.755   8.242   5.740  0.0851  0.2148 -0.0126
   53BDD     S122290  11.904   8.326   5.687  0.0506  0.1860 -0.1557
   53BDD     C522291  11.601   8.581   5.779  0.0361  0.2289 -0.3206
   53BDD     C622292  11.521   8.290   5.817  0.1034  0.2539  0.0190
   53BDD     O122293  11.488   8.170   5.832  0.1310  0.2642  0.1587
   53BDD     O222294  11.634   8.701   5.764  0.0085  0.2186 -0.4603
   53BDD     C722295  11.429   8.402   5.844  0.0920  0.2656 -0.0683
   53BDD     C822296  11.467   8.541   5.826  0.0600  0.2534 -0.2303
   53BDD     C922297  11.367   8.629   5.856  0.0543  0.2673 -0.2892
   53BDD     S222298  11.218   8.545   5.909  0.0888  0.2962 -0.1461
   53BDD    C1022299  11.300   8.387   5.888  0.1104  0.2880 -0.0061
   53BDD    C1122300  11.210   8.266   5.909 -0.0296  0.0013  0.1686
   53BDD    C1222301  11.153   8.231   6.058  0.0577  0.1231  0.1874
   53BDD    C1322302  11.257   8.218   6.168 -0.2739 -0.5965 -0.4105
   53BDD    C1422303  11.375   8.128   6.142  0.3758  0.3837  0.3723
   53BDD    C1522304  11.449   8.107   6.274 -0.2306 -0.1770 -0.3612
   53BDD    C1622305  11.565   8.000   6.254  0.1910  0.4272  0.2425
   53BDD    C1722306  11.019   8.291   6.106  0.4234 -0.3295  0.1542
   53BDD    C1822307  10.897   8.278   6.009 -0.4057 -0.4537  0.4186
   53BDD    C1922308  11.350   8.780   5.853 -0.8471  0.0350  0.3951
   53BDD    C2022309  11.279   8.839   5.734 -0.5004 -0.4263 -0.0780
   53BDD    C2122310  11.307   8.992   5.729 -0.1549  0.3200  0.4071
   53BDD    C2222311  11.459   9.028   5.723 -0.7881  0.2044 -0.4287
   53BDD    C2322312  11.542   8.992   5.600 -0.3086  0.2853  0.6037
   53BDD    C2422313  11.683   9.044   5.614 -0.0199 -0.2345 -0.4181
   53BDD    C2522314  11.136   8.793   5.699 -0.2791  0.6249 -0.1152
   53BDD    C2622315  11.070   8.849   5.575 -0.1431  0.3917  0.0816
   54TPM     C122316  11.916   8.591   5.700  0.0441 -0.0064 -0.3975
   54TPM     C222317  11.909   8.692   5.609  0.1045 -0.0334 -0.4323
   54TPM     C322318  12.024   8.779   5.610  0.0827 -0.0048 -0.3471
   54TPM     C422319  12.119   8.743   5.701  0.0057  0.0438 -0.2477
   54TPM     S122320  12.070   8.597   5.794 -0.0457  0.0576 -0.2536
   55BDTP    C122321  12.616   9.076   5.892  0.1836 -0.1576 -0.0429
   55BDTP    C222322  12.576   9.141   5.772  0.0638  0.0384  0.1029
   55BDTP    C322323  12.471   9.096   5.694  0.0047  0.1490  0.1178
   55BDTP    C422324  12.402   8.980   5.736  0.0664  0.0629 -0.0176
   55BDTP    C522325  12.442   8.915   5.856  0.1862 -0.1328 -0.1634
   55BDTP    C622326  12.548   8.960   5.934  0.2452 -0.2434 -0.1782
   55BDTP    C722327  12.290   8.914   5.671  0.0237  0.1487 -0.0311
   55BDTP    C822328  12.245   8.804   5.736  0.1047  0.0281 -0.1785
   55BDTP    S122329  12.338   8.768   5.888  0.2463 -0.2108 -0.3203
   55BDTP    C922330  12.728   9.141   5.957  0.2263 -0.2429 -0.0292
   55BDTP   C1022331  12.773   9.252   5.892  0.1453 -0.1223  0.1179
   55BDTP    S222332  12.680   9.288   5.740  0.0038  0.1160  0.2599
   56FTM     S122333  12.254   9.207   5.533  0.1963 -0.5150  0.2331
   56FTM     C122334  12.304   9.285   5.378  0.1414 -0.1248  0.4103
   56FTM     C222335  12.439   9.275   5.363  0.1264 -0.1578  0.2985
   56FTM     C322336  12.509   9.208   5.468  0.1559 -0.4802  0.0739
   56FTM     C422337  12.426   9.165   5.567  0.1949 -0.7019  0.0116
   56FTM     F122338  12.506   9.326   5.253  0.0850  0.1023  0.3929
   56FTM     C522339  12.207   9.368   5.307 -0.1843 -0.2149  0.9305
   56FTM     C622340  12.116   9.293   5.206 -0.7103 -0.1951  0.6972
   56FTM     C722341  12.022   9.390   5.127 -0.1992  0.3752  0.0267
   56FTM     C822342  12.098   9.496   5.038  0.5475 -0.3189 -0.7956
   56FTM     C922343  12.197   9.445   4.936 -0.5573 -0.3445 -0.2542
   56FTM    C1022344  12.261   9.556   4.853  0.0423  0.1701  0.2108
   56FTM    C1122345  12.042   9.164   5.255  0.0835  0.4035  0.5231
   56FTM    C1222346  11.935   9.171   5.363 -0.0055  0.0253 -0.2026
   57FTM     S122347  12.754   8.867   6.102  0.3118 -0.4062  0.3248
   57FTM     C122348  12.705   8.804   6.264 -0.3899  0.1633  0.3431
   57FTM     C222349  12.570   8.806   6.275 -0.4304  0.4756 -0.1397
   57FTM     C322350  12.497   8.855   6.161  0.0696  0.2959 -0.5436
   57FTM     C422351  12.580   8.892   6.060  0.5073 -0.1700 -0.3639
   57FTM     F122352  12.503   8.764   6.389 -0.9228  0.9437 -0.2447
   57FTM     C522353  12.805   8.733   6.354  0.2825  0.3681 -0.1215
   57FTM     C622354  12.920   8.817   6.426 -0.3848  0.3936  0.3266
   57FTM     C722355  12.864   8.921   6.523 -0.1876  0.1137  0.1057
   57FTM     C822356  12.782   8.887   6.646  0.0406 -0.6130  0.1990
   57FTM     C922357  12.832   8.764   6.731  0.1471 -0.4306  0.1801
   57FTM    C1022358  12.742   8.711   6.839 -0.1775 -0.1713 -0.4510
   57FTM    C1122359  13.034   8.856   6.333 -0.4352  0.1041 -0.3582
   57FTM    C1222360  13.120   8.752   6.258  0.1480  0.2447  0.0843
   58TPM     C122361  12.876   9.340   5.940 -0.3005  0.2700  0.1126
   58TPM     C222362  12.895   9.467   5.895 -0.4517  0.4055  0.4287
   58TPM     C322363  13.007   9.535   5.955 -0.2668  0.2346  0.2786
   58TPM     C422364  13.074   9.458   6.046  0.0252 -0.0309 -0.1521
   58TPM     S122365  13.000   9.295   6.063  0.0900 -0.0863 -0.4036
   59BDD     C122366  13.318   9.501   6.355 -0.0381 -0.3367 -0.1566
   59BDD     C222367  13.347   9.607   6.273 -0.0355 -0.3016 -0.1097
   59BDD     C322368  13.268   9.609   6.151 -0.0271 -0.2520 -0.1143
   59BDD     C422369  13.180   9.505   6.142 -0.0235 -0.2507 -0.1644
   59BDD     S122370  13.191   9.397   6.284 -0.0302 -0.3107 -0.2096
   59BDD     C522371  13.448   9.711   6.305 -0.0407 -0.3119 -0.0590
   59BDD     C622372  13.282   9.715   6.049 -0.0232 -0.2081 -0.0688
   59BDD     O122373  13.215   9.717   5.944 -0.0159 -0.1655 -0.0727
   59BDD     O222374  13.515   9.709   6.410 -0.0479 -0.3543 -0.0551
   59BDD     C722375  13.383   9.818   6.080 -0.0283 -0.2186 -0.0181
   59BDD     C822376  13.462   9.816   6.202 -0.0367 -0.2680 -0.0135
   59BDD     C922377  13.550   9.921   6.212 -0.0404 -0.2697  0.0367
   59BDD     S222378  13.539  10.029   6.069 -0.0336 -0.2093  0.0816
   59BDD    C1022379  13.412   9.924   5.999 -0.0257 -0.1833  0.0286
   59BDD    C1122380  13.359   9.963   5.867  0.2424 -0.0880  0.6475
   59BDD    C1222381  13.245  10.066   5.853 -0.4393 -0.5969 -0.0722
   59BDD    C1322382  13.119  10.042   5.935 -0.9661  0.4098 -0.0008
   59BDD    C1422383  13.007  10.140   5.939  0.2967 -0.1656 -0.2820
   59BDD    C1522384  12.896  10.099   6.035  0.2410 -0.1999  0.0738
   59BDD    C1622385  12.799  10.212   6.070  0.1084 -0.1572 -0.2516
   59BDD    C1722386  13.223  10.103   5.705  0.4843  0.1787  0.1185
   59BDD    C1822387  13.332  10.180   5.631 -0.3114 -0.3822  0.2962
   59BDD    C1922388  13.632   9.968   6.330 -0.1718 -0.3261 -0.5891
   59BDD    C2022389  13.780  10.003   6.312 -0.2380  0.2116 -0.4577
   59BDD    C2122390  13.825  10.059   6.452 -0.8871 -0.2556 -0.4012
   59BDD    C2222391  13.974  10.107   6.467 -0.2221 -0.5843 -0.2126
   59BDD    C2322392  14.027  10.205   6.357 -0.6388 -0.0203 -0.2948
   59BDD    C2422393  14.178  10.218   6.340 -0.3389  0.5988  0.2641
   59BDD    C2522394  13.877   9.885   6.259  0.4718 -0.5747 -0.3477
   59BDD    C2622395  13.883   9.845   6.114  0.3364  0.0871 -0.7914
   60TPM     C122396  13.362   9.455   6.484  0.3036 -0.0855 -0.2084
   60TPM     C222397  13.493   9.453   6.522  0.2454 -0.2339 -0.0075
   60TPM     C322398  13.521   9.360   6.628 -0.0442 -0.1779  0.1212
   60TPM     C422399  13.412   9.291   6.672 -0.2067  0.0132  0.0183
   60TPM     S122400  13.263   9.339   6.582 -0.0050  0.1378 -0.2510
    1BDTP    C122401   3.541   6.202   8.668 -0.1541  0.1423  0.0119
    1BDTP    C222402   3.456   6.283   8.587 -0.1408  0.1149 -0.0298
    1BDTP    C322403   3.415   6.410   8.625 -0.1493  0.1267 -0.0784
    1BDTP    C422404   3.461   6.460   8.749 -0.1719  0.1677 -0.0865
    1BDTP    C522405   3.546   6.379   8.829 -0.1851  0.1954 -0.0451
    1BDTP    C622406   3.586   6.252   8.791 -0.1767  0.1833  0.0039
    1BDTP    C722407   3.432   6.589   8.809 -0.1844  0.1870 -0.1340
    1BDTP    C822408   3.491   6.608   8.929 -0.2060  0.2272 -0.1292
    1BDTP    S122409   3.591   6.466   8.983 -0.2137  0.2462 -0.0653
    1BDTP    C922410   3.569   6.073   8.608 -0.1417  0.1230  0.0591
    1BDTP   C1022411   3.511   6.054   8.487 -0.1200  0.0829  0.0546
    1BDTP    S222412   3.411   6.196   8.433 -0.1123  0.0640 -0.0092
    2FTM     S122413   3.400   6.668   8.496 -0.1530  0.0588  0.1215
    2FTM     C122414   3.257   6.693   8.390 -0.2972 -0.1369  0.2693
    2FTM     C222415   3.179   6.582   8.390 -0.1236 -0.2584  0.3169
    2FTM     C322416   3.225   6.472   8.471  0.1260 -0.2081  0.2429
    2FTM     C422417   3.342   6.501   8.534  0.1442 -0.0427  0.1353
    2FTM     F122418   3.061   6.572   8.318 -0.1804 -0.4225  0.4301
    2FTM     C522419   3.227   6.815   8.310 -0.0856 -0.3619  0.9688
    2FTM     C622420   3.233   6.832   8.157  0.6325  0.0053  0.7294
    2FTM     C722421   3.182   6.965   8.098 -0.3514  0.0870  0.4939
    2FTM     C822422   3.032   6.993   8.098 -0.0134  0.0629  0.2813
    2FTM     C922423   2.995   7.118   8.028  0.0098  0.0940  0.0920
    2FTM    C1022424   2.850   7.106   8.004  0.6860 -0.1484  0.2933
    2FTM    C1122425   3.369   6.786   8.102  0.6182  0.2946  0.3353
    2FTM    C1222426   3.385   6.747   7.948  0.3829  0.3447 -0.2700
    3FTM     S122427   3.803   6.067   8.825 -0.1706  0.1011 -0.2177
    3FTM     C122428   3.833   6.005   8.992  0.1803  0.1478 -0.2623
    3FTM     C222429   3.745   6.062   9.079  0.2312  0.0198 -0.1268
    3FTM     C322430   3.651   6.155   9.023  0.0059 -0.1194  0.0172
    3FTM     C422431   3.668   6.169   8.888 -0.2250 -0.0971 -0.0097
    3FTM     F122432   3.744   6.034   9.214  0.4848  0.0206 -0.1249
    3FTM     C522433   3.936   5.910   9.024 -0.3122 -1.1446 -0.3122
    3FTM     C622434   3.927   5.765   9.054 -0.4848  0.2973  0.1855
    3FTM     C722435   3.891   5.675   8.928  0.2016 -0.3147 -1.2634
    3FTM     C822436   3.996   5.668   8.817 -0.6179 -0.1790  0.3191
    3FTM     C922437   4.127   5.611   8.868 -0.5509 -0.2787 -0.5153
    3FTM    C1022438   4.254   5.600   8.776  0.3884  0.4395  0.1372
    3FTM    C1122439   3.841   5.736   9.183  0.1467 -0.1013 -0.8221
    3FTM    C1222440   3.807   5.593   9.230 -0.4170  0.7294  0.0947
    4TPM     C122441   3.531   5.942   8.396  0.1172 -0.0521  0.0209
    4TPM     C222442   3.539   5.809   8.425  0.2100 -0.0445  0.0291
    4TPM     C322443   3.561   5.726   8.309  0.0385 -0.0575  0.0057
    4TPM     C422444   3.569   5.796   8.193 -0.1850 -0.0752 -0.0204
    4TPM     S122445   3.549   5.973   8.219 -0.1965 -0.0769 -0.0178
    5BDD     C122446   3.754   5.743   7.850  0.0409 -0.0069  0.0924
    5BDD     C222447   3.680   5.629   7.869  0.0622 -0.0161  0.1199
    5BDD     C322448   3.605   5.629   7.994 -0.0204  0.0457  0.0706
    5BDD     C422449   3.623   5.743   8.068 -0.1037  0.1009  0.0061
    5BDD     S122450   3.735   5.858   7.987 -0.0841  0.0796  0.0027
    5BDD     C522451   3.676   5.516   7.774  0.1593 -0.0818  0.1926
    5BDD     C622452   3.519   5.516   8.035 -0.0140  0.0473  0.0892
    5BDD     O122453   3.455   5.516   8.142 -0.0853  0.1005  0.0467
    5BDD     O222454   3.740   5.516   7.667  0.2307 -0.1348  0.2352
    5BDD     C722455   3.515   5.404   7.940  0.0831 -0.0185  0.1620
    5BDD     C822456   3.589   5.404   7.815  0.1659 -0.0801  0.2112
    5BDD     C922457   3.572   5.290   7.741  0.2490 -0.1352  0.2757
    5BDD     S222458   3.460   5.175   7.822  0.2295 -0.1139  0.2791
    5BDD    C1022459   3.441   5.290   7.959  0.1045 -0.0275  0.1895
    5BDD    C1122460   3.345   5.249   8.065  0.0364  0.0983  0.3702
    5BDD    C1222461   3.212   5.329   8.082 -0.2167  1.1579  0.6075
    5BDD    C1322462   3.128   5.337   7.954 -0.2606  0.1341  0.3309
    5BDD    C1422463   3.036   5.458   7.951  0.2891 -0.5477 -0.1927
    5BDD    C1522464   3.099   5.605   7.962  0.1294  0.2763  0.0328
    5BDD    C1622465   3.216   5.651   7.872  0.1130  0.1754  0.2015
    5BDD    C1722466   3.131   5.315   8.211  0.5208 -0.1266 -0.2419
    5BDD    C1822467   3.189   5.364   8.345  0.2288  0.3465 -0.4618
    5BDD    C1922468   3.628   5.261   7.603 -0.9215  0.1357 -0.0164
    5BDD    C2022469   3.539   5.188   7.509  0.3179 -0.4903 -0.4259
    5BDD    C2122470   3.626   5.132   7.397  0.6604  0.0917  0.0725
    5BDD    C2222471   3.754   5.055   7.418  0.0220  0.1614 -0.3627
    5BDD    C2322472   3.804   5.014   7.285 -0.1354 -0.4697 -0.3038
    5BDD    C2422473   3.952   4.969   7.305 -0.1939 -0.3010  0.4359
    5BDD    C2522474   3.422   5.268   7.452 -0.6841 -1.1571  0.2421
    5BDD    C2622475   3.331   5.191   7.350  0.1653 -0.1603 -0.6144
    6TPM     C122476   3.831   5.797   7.739 -0.0498 -0.1578 -0.3406
    6TPM     C222477   3.934   5.733   7.676 -0.0030 -0.0898 -0.3327
    6TPM     C322478   4.012   5.819   7.591 -0.0832 -0.0495 -0.3655
    6TPM     C422479   3.968   5.948   7.588 -0.1911 -0.0866 -0.3982
    6TPM     S122480   3.823   5.972   7.694 -0.2000 -0.1762 -0.3901
    7BDTP    C122481   4.074   6.450   7.226  0.0137 -0.2415 -0.3953
    7BDTP    C222482   4.136   6.345   7.152 -0.0497 -0.2711 -0.4073
    7BDTP    C322483   4.143   6.214   7.198 -0.0746 -0.2676 -0.3937
    7BDTP    C422484   4.085   6.185   7.322 -0.0355 -0.2333 -0.3672
    7BDTP    C522485   4.022   6.289   7.396  0.0281 -0.2036 -0.3551
    7BDTP    C622486   4.016   6.420   7.351  0.0531 -0.2072 -0.3687
    7BDTP    C722487   4.079   6.057   7.390 -0.0508 -0.2232 -0.3493
    7BDTP    C822488   4.016   6.060   7.510 -0.0025 -0.1878 -0.3248
    7BDTP    S122489   3.955   6.226   7.554  0.0690 -0.1624 -0.3209
    7BDTP    C922490   4.079   6.578   7.158  0.0292 -0.2517 -0.4132
    7BDTP   C1022491   4.143   6.574   7.038 -0.0191 -0.2871 -0.4376
    7BDTP    S222492   4.204   6.409   6.995 -0.0906 -0.3124 -0.4415
    8FTM     S122493   4.173   5.937   7.108  0.0956 -0.0486  0.0820
    8FTM     C122494   4.336   5.897   7.045  0.0508 -0.0650 -0.0235
    8FTM     C222495   4.412   6.009   7.038  0.0751 -0.0811 -0.0212
    8FTM     C322496   4.349   6.131   7.080  0.1285 -0.0817  0.0607
    8FTM     C422497   4.221   6.110   7.121  0.1459 -0.0655  0.1230
    8FTM     F122498   4.543   6.009   6.992  0.0501 -0.0963 -0.0933
    8FTM     C522499   4.384   5.762   7.005  0.1085 -0.0823  0.0241
    8FTM     C622500   4.329   5.664   6.905 -0.6970 -0.1345  0.5463
    8FTM     C722501   4.210   5.593   6.955 -0.5941  0.1143 -0.8952
    8FTM     C822502   4.185   5.454   6.899  0.0836  1.0699  0.6048
    8FTM     C922503   4.078   5.376   6.979  0.2152  0.6501 -0.5675
    8FTM    C1022504   4.144   5.272   7.077 -0.0519  0.3832  0.2268
    8FTM    C1122505   4.299   5.715   6.765 -0.4614  0.0612 -0.1112
    8FTM    C1222506   4.396   5.802   6.684 -0.1130  0.1963 -0.8455
    9FTM     S122507   4.022   6.676   7.480 -0.2030 -0.0020 -0.1648
    9FTM     C122508   3.865   6.736   7.546 -0.3034 -0.0362 -0.3703
    9FTM     C222509   3.768   6.643   7.526 -0.2304 -0.1087 -0.3898
    9FTM     C322510   3.808   6.523   7.460 -0.0952 -0.1414 -0.2495
    9FTM     C422511   3.940   6.523   7.428 -0.0636 -0.0923 -0.1184
    9FTM     F122512   3.637   6.662   7.566 -0.2818 -0.1498 -0.5360
    9FTM     C522513   3.856   6.874   7.604  0.3274  0.5885 -0.0089
    9FTM     C622514   3.915   6.902   7.743 -0.9322  0.5731  0.7025
    9FTM     C722515   3.868   7.030   7.812  0.0539  0.3030  0.3075
    9FTM     C822516   3.719   7.033   7.848 -0.1420  0.0774  0.3912
    9FTM     C922517   3.670   7.171   7.890  0.7298  0.1729  0.1730
    9FTM    C1022518   3.514   7.169   7.885 -0.0425  0.2357  0.2504
    9FTM    C1122519   4.059   6.847   7.768  0.0364 -0.3469 -0.2300
    9FTM    C1222520   4.174   6.931   7.719  0.0527 -0.1789 -0.0225
   10TPM     C122521   4.186   6.692   6.965  0.6490  0.0812  0.0836
   10TPM     C222522   4.203   6.818   7.013  0.8267  0.0449  0.1163
   10TPM     C322523   4.254   6.911   6.915  0.6073  0.0839  0.0391
   10TPM     C422524   4.275   6.855   6.792  0.2619  0.1497 -0.0525
   10TPM     S122525   4.232   6.680   6.791  0.1868  0.1679 -0.0484
   11BDD     C122526   4.536   6.930   6.508  0.1076 -0.1302 -0.1895
   11BDD     C222527   4.487   7.053   6.543  0.1247 -0.1218 -0.1948
   11BDD     C322528   4.386   7.048   6.647  0.1558 -0.0995 -0.1632
   11BDD     C422529   4.359   6.921   6.690  0.1622 -0.0911 -0.1343
   11BDD     S122530   4.458   6.799   6.603  0.1296 -0.1104 -0.1442
   11BDD     C522531   4.532   7.180   6.482  0.1128 -0.1341 -0.2294
   11BDD     C622532   4.320   7.169   6.699  0.1782 -0.0875 -0.1631
   11BDD     O122533   4.233   7.165   6.789  0.2050 -0.0682 -0.1359
   11BDD     O222534   4.620   7.184   6.392  0.0859 -0.1534 -0.2564
   11BDD     C722535   4.365   7.296   6.638  0.1664 -0.0998 -0.1973
   11BDD     C822536   4.466   7.301   6.534  0.1353 -0.1221 -0.2289
   11BDD     C922537   4.494   7.428   6.491  0.1291 -0.1305 -0.2578
   11BDD     S222538   4.394   7.550   6.578  0.1616 -0.1111 -0.2477
   11BDD    C1022539   4.316   7.419   6.673  0.1836 -0.0916 -0.2027
   11BDD    C1122540   4.209   7.461   6.772  0.0013 -0.9860 -0.1126
   11BDD    C1222541   4.058   7.435   6.738 -0.0067  0.7299  0.4789
   11BDD    C1322542   3.947   7.441   6.848 -0.4989  0.4068  0.0180
   11BDD    C1422543   3.963   7.340   6.960 -0.2586  0.1590  0.1175
   11BDD    C1522544   3.877   7.367   7.082  0.3932 -0.1095 -0.0193
   11BDD    C1622545   3.918   7.486   7.168  0.4155 -0.0775  0.2836
   11BDD    C1722546   4.019   7.477   6.589 -0.3454  0.1855 -0.3929
   11BDD    C1822547   3.993   7.627   6.556 -0.4551 -0.1068 -0.9025
   11BDD    C1922548   4.603   7.492   6.407  0.6315 -0.5194  0.0346
   11BDD    C2022549   4.590   7.470   6.253 -0.5742  0.2153 -0.0367
   11BDD    C2122550   4.452   7.513   6.203 -0.1484  0.6107  0.0994
   11BDD    C2222551   4.431   7.527   6.056 -0.1228 -0.0225 -0.1494
   11BDD    C2322552   4.435   7.399   5.970  0.0839 -0.2858  0.4060
   11BDD    C2422553   4.401   7.423   5.819 -0.5130 -0.1685 -0.3003
   11BDD    C2522554   4.723   7.514   6.178  0.4814  0.1571  0.1950
   11BDD    C2622555   4.758   7.663   6.176  0.0097  0.0387  0.0755
   12TPM     C122556   4.632   6.869   6.412 -0.4718 -0.3742 -0.2183
   12TPM     C222557   4.678   6.933   6.301 -0.3657 -0.2942 -0.1296
   12TPM     C322558   4.772   6.855   6.224  0.0588 -0.0608  0.1471
   12TPM     C422559   4.798   6.733   6.277  0.2761  0.0369  0.2692
   12TPM     S122560   4.705   6.705   6.429 -0.0405 -0.1597  0.0424
   13BDTP    C122561   5.188   6.309   6.024 -0.0851 -0.1402  0.0601
   13BDTP    C222562   5.137   6.236   6.136 -0.0912 -0.1570  0.0463
   13BDTP    C322563   5.045   6.290   6.225 -0.0628 -0.1547  0.0745
   13BDTP    C422564   5.001   6.422   6.202 -0.0269 -0.1351  0.1184
   13BDTP    C522565   5.052   6.494   6.091 -0.0209 -0.1183  0.1321
   13BDTP    C622566   5.144   6.440   6.002 -0.0491 -0.1205  0.1039
   13BDTP    C722567   4.906   6.498   6.280  0.0067 -0.1290  0.1535
   13BDTP    C822568   4.883   6.623   6.233  0.0373 -0.1087  0.1925
   13BDTP    S122569   4.979   6.662   6.083  0.0280 -0.0944  0.1903
   13BDTP    C922570   5.283   6.232   5.947 -0.1186 -0.1460  0.0250
   13BDTP   C1022571   5.306   6.107   5.994 -0.1494 -0.1663 -0.0141
   13BDTP    S222572   5.210   6.069   6.143 -0.1400 -0.1807 -0.0118
   14FTM     S122573   4.837   6.182   6.386  0.0087 -0.0403 -0.0325
   14FTM     C122574   4.889   6.079   6.524 -0.1149 -0.4743 -0.3040
   14FTM     C222575   5.025   6.076   6.531 -0.1206 -0.5375 -0.2248
   14FTM     C322576   5.095   6.151   6.431 -0.0310 -0.2590  0.0453
   14FTM     C422577   5.011   6.214   6.345  0.0455  0.0269  0.1773
   14FTM     F122578   5.094   6.004   6.628 -0.2069 -0.8513 -0.3923
   14FTM     C522579   4.782   6.039   6.622  0.1726 -0.8571  0.1634
   14FTM     C622580   4.804   5.936   6.729  0.4018  0.3726  0.1417
   14FTM     C722581   4.870   5.984   6.863 -0.2129  0.0294  0.6883
   14FTM     C822582   4.849   6.136   6.901 -0.6783  0.3264  0.3703
   14FTM     C922583   4.890   6.145   7.043 -0.5148 -0.3803  0.7561
   14FTM    C1022584   4.883   6.291   7.081  0.6087 -0.4554 -0.0812
   14FTM    C1122585   4.816   5.793   6.678 -0.3965  0.0910 -0.2571
   14FTM    C1222586   4.808   5.675   6.781  0.0362 -0.0022  0.3574
   15FTM     S122587   5.360   6.546   5.841  0.0002  0.2047 -0.2916
   15FTM     C122588   5.310   6.632   5.690  0.0250 -0.1389 -0.4976
   15FTM     C222589   5.174   6.635   5.681  0.0263 -0.1475 -0.5219
   15FTM     C322590   5.102   6.573   5.789  0.0085  0.1068 -0.3853
   15FTM     C422591   5.186   6.520   5.883 -0.0070  0.3166 -0.2516
   15FTM     F122592   5.107   6.695   5.576  0.0436 -0.3858 -0.6696
   15FTM     C522593   5.409   6.689   5.594  0.0959 -0.9112 -0.5103
   15FTM     C622594   5.521   6.785   5.639  0.1243  0.8581  0.9951
   15FTM     C722595   5.615   6.828   5.520  0.3884  0.2734  0.1390
   15FTM     C822596   5.689   6.720   5.443  0.2199  0.3484  0.2053
   15FTM     C922597   5.657   6.716   5.293 -0.4410 -0.2830  0.7489
   15FTM    C1022598   5.733   6.607   5.221  1.1047 -0.1850  0.2652
   15FTM    C1122599   5.484   6.897   5.739  0.1489 -0.4460 -0.1702
   15FTM    C1222600   5.384   6.998   5.687 -0.2625  0.1588  0.1056
   16TPM     C122601   5.398   6.005   5.951  0.3126  0.4452 -0.1511
   16TPM     C222602   5.429   5.894   6.025  0.1993  0.6429  0.1954
   16TPM     C322603   5.520   5.804   5.959 -0.0412  0.2487  0.3954
   16TPM     C422604   5.559   5.846   5.835 -0.1118 -0.2498  0.2015
   16TPM     S122605   5.483   6.003   5.791  0.1224 -0.2598 -0.2522
   17BDD     C122606   5.756   5.530   5.701 -0.0306 -0.0461 -0.1890
   17BDD     C222607   5.752   5.615   5.594 -0.0201 -0.0260 -0.1734
   17BDD     C322608   5.681   5.739   5.621 -0.0106 -0.0253 -0.1529
   17BDD     C422609   5.632   5.747   5.749 -0.0141 -0.0447 -0.1530
   17BDD     S122610   5.672   5.599   5.843 -0.0292 -0.0654 -0.1788
   17BDD     C522611   5.812   5.586   5.462 -0.0185 -0.0070 -0.1769
   17BDD     C622612   5.664   5.845   5.520  0.0017 -0.0055 -0.1339
   17BDD     O122613   5.603   5.952   5.544  0.0098 -0.0049 -0.1161
   17BDD     O222614   5.873   5.479   5.438 -0.0267 -0.0076 -0.1947
   17BDD     C722615   5.725   5.816   5.388  0.0031  0.0136 -0.1374
   17BDD     C822616   5.795   5.692   5.361 -0.0064  0.0129 -0.1580
   17BDD     C922617   5.844   5.684   5.233 -0.0030  0.0323 -0.1580
   17BDD     S222618   5.805   5.832   5.139  0.0123  0.0529 -0.1321
   17BDD    C1022619   5.720   5.901   5.281  0.0137  0.0336 -0.1221
   17BDD    C1122620   5.661   6.032   5.249  0.3201  0.0169  0.0548
   17BDD    C1222621   5.748   6.160   5.231  0.0899 -0.2403 -0.8976
   17BDD    C1322622   5.696   6.266   5.135  0.6533  0.6682  0.6666
   17BDD    C1422623   5.660   6.204   4.993 -0.0452  0.0363  0.4533
   17BDD    C1522624   5.640   6.303   4.878 -0.6984 -0.4588 -0.9255
   17BDD    C1622625   5.645   6.225   4.748  0.2097 -0.3249  0.6916
   17BDD    C1722626   5.793   6.206   5.373  0.5313  0.1644  0.6140
   17BDD    C1822627   5.883   6.324   5.388 -0.3129 -0.2103 -0.4457
   17BDD    C1922628   5.933   5.589   5.157  0.2115  0.3531  0.1594
   17BDD    C2022629   5.863   5.468   5.085 -0.6692 -0.0216  0.2705
   17BDD    C2122630   5.955   5.350   5.056  0.0924 -0.4417 -0.0012
   17BDD    C2222631   6.043   5.301   5.169  0.8718  0.4766  0.3718
   17BDD    C2322632   6.143   5.200   5.113 -0.3384 -0.4738  0.3751
   17BDD    C2422633   6.270   5.184   5.195  0.3249 -0.1403 -0.2105
   17BDD    C2522634   5.768   5.516   4.973  0.0734  0.0896 -0.3182
   17BDD    C2622635   5.661   5.424   4.922  0.1529 -0.3034  0.9125
   18TPM     C122636   5.797   5.387   5.729  0.1549 -0.0353  0.3856
   18TPM     C222637   5.769   5.325   5.847 -0.0242 -0.4984  0.1030
   18TPM     C322638   5.802   5.185   5.848 -0.1013 -0.5223 -0.4227
   18TPM     C422639   5.855   5.140   5.730  0.0190 -0.0772 -0.5412
   18TPM     S122640   5.868   5.273   5.609  0.2407  0.4101  0.0065
   19BDTP    C122641   6.093   4.579   5.561  0.1689  0.0800  0.0248
   19BDTP    C222642   6.038   4.553   5.690  0.1222  0.1169  0.0122
   19BDTP    C322643   5.971   4.650   5.763  0.1601  0.1584 -0.0083
   19BDTP    C422644   5.958   4.778   5.707  0.2481  0.1640 -0.0168
   19BDTP    C522645   6.013   4.804   5.578  0.2946  0.1271 -0.0043
   19BDTP    C622646   6.080   4.707   5.505  0.2569  0.0854  0.0163
   19BDTP    C722647   5.893   4.895   5.764  0.3009  0.2041 -0.0375
   19BDTP    C822648   5.896   5.005   5.686  0.3842  0.1988 -0.0412
   19BDTP    S122649   5.983   4.977   5.528  0.4071  0.1426 -0.0188
   19BDTP    C922650   6.158   4.463   5.503  0.1160  0.0399  0.0454
   19BDTP   C1022651   6.154   4.352   5.582  0.0329  0.0453  0.0491
   19BDTP    S222652   6.068   4.380   5.740  0.0099  0.1013  0.0266
   20FTM     S122653   5.769   4.471   5.876 -0.0143 -0.1234  0.1174
   20FTM     C122654   5.725   4.497   6.049 -0.0289  0.1405  0.0742
   20FTM     C222655   5.799   4.599   6.101  0.0435  0.1484 -0.0442
   20FTM     C322656   5.893   4.661   6.011  0.1129 -0.0454 -0.1068
   20FTM     C422657   5.890   4.605   5.887  0.0932 -0.2070 -0.0341
   20FTM     F122658   5.787   4.642   6.232  0.0510  0.3316 -0.1029
   20FTM     C522659   5.613   4.419   6.114 -0.3927  0.0935 -0.1159
   20FTM     C622660   5.462   4.439   6.080 -0.1583  0.1434 -0.0240
   20FTM     C722661   5.403   4.377   5.945 -0.3939  0.2138 -0.2876
   20FTM     C822662   5.402   4.220   5.930 -0.5222 -0.2622  0.1779
   20FTM     C922663   5.346   4.136   6.044 -0.4557  0.1736  0.0232
   20FTM    C1022664   5.374   3.993   6.018  0.6763 -0.0453 -0.1230
   20FTM    C1122665   5.379   4.562   6.135  0.0002 -0.1977  0.1291
   20FTM    C1222666   5.235   4.528   6.139 -0.0222 -0.0842  0.1248
   21FTM     S122667   6.306   4.707   5.332 -0.0743 -0.2830  0.1102
   21FTM     C122668   6.275   4.746   5.158  0.0562 -0.1444  0.1172
   21FTM     C222669   6.144   4.779   5.141  0.1324  0.1615  0.0974
   21FTM     C322670   6.062   4.775   5.258  0.0952  0.3035  0.0759
   21FTM     C422671   6.132   4.739   5.369 -0.0132  0.0995  0.0795
   21FTM     F122672   6.090   4.813   5.018  0.2408  0.3313  0.0975
   21FTM     C522673   6.394   4.748   5.067  0.4274  0.2216  0.7700
   21FTM     C622674   6.469   4.618   5.028  0.2149 -0.4274 -1.0225
   21FTM     C722675   6.592   4.645   4.945 -0.0417  0.6348  0.5608
   21FTM     C822676   6.687   4.757   4.990 -0.3058 -0.5655  0.1544
   21FTM     C922677   6.805   4.773   4.891 -0.2063 -0.0100 -0.4073
   21FTM    C1022678   6.890   4.644   4.867 -0.3811  0.4087 -0.0059
   21FTM    C1122679   6.372   4.504   4.988  0.4383 -0.4278 -0.1326
   21FTM    C1222680   6.411   4.360   5.015 -0.2190  0.0421  0.1209
   22TPM     C122681   6.210   4.223   5.553  0.3951 -0.0014 -0.0167
   22TPM     C222682   6.209   4.111   5.631  0.1465 -0.1397 -0.2140
   22TPM     C322683   6.288   4.003   5.579 -0.2854 -0.3101 -0.5254
   22TPM     C422684   6.350   4.032   5.461 -0.3661 -0.3017 -0.5654
   22TPM     S122685   6.312   4.199   5.406  0.1005 -0.0764 -0.2104
   23BDD     C122686   6.667   3.819   5.387  0.0412  0.0076 -0.0696
   23BDD     C222687   6.574   3.782   5.294  0.0107 -0.0075 -0.0334
   23BDD     C322688   6.448   3.853   5.306 -0.0234 -0.0836  0.0657
   23BDD     C422689   6.447   3.944   5.408 -0.0184 -0.1255  0.1033
   23BDD     S122690   6.604   3.947   5.496  0.0291 -0.0725  0.0174
   23BDD     C522691   6.598   3.678   5.191  0.0119  0.0476 -0.0882
   23BDD     C622692   6.334   3.828   5.216 -0.0596 -0.1120  0.1193
   23BDD     O122693   6.226   3.890   5.227 -0.0889 -0.1777  0.2048
   23BDD     O222694   6.706   3.617   5.181  0.0412  0.1133 -0.1737
   23BDD     C722695   6.357   3.725   5.113 -0.0582 -0.0570  0.0646
   23BDD     C822696   6.483   3.654   5.101 -0.0242  0.0192 -0.0345
   23BDD     C922697   6.484   3.562   4.999 -0.0292  0.0611 -0.0721
   23BDD     S222698   6.328   3.560   4.911 -0.0768  0.0081  0.0138
   23BDD    C1022699   6.265   3.687   5.020 -0.0888 -0.0720  0.1010
   23BDD    C1122700   6.118   3.719   5.002  0.0414  0.0394  0.4620
   23BDD    C1222701   6.005   3.617   5.019  0.2778  0.5087 -0.1905
   23BDD    C1322702   5.994   3.490   4.922  0.1428  0.1577 -0.2470
   23BDD    C1422703   5.972   3.515   4.772 -0.0634  0.2440 -0.1489
   23BDD    C1522704   5.874   3.626   4.730  0.3209  0.1417 -1.2535
   23BDD    C1622705   5.793   3.576   4.614 -0.5500 -0.2556  0.0206
   23BDD    C1722706   6.000   3.570   5.165 -0.3835 -0.3368  0.1309
   23BDD    C1822707   5.877   3.494   5.216 -0.2113 -0.7614 -0.2977
   23BDD    C1922708   6.595   3.478   4.947  0.4902  0.3478  0.5040
   23BDD    C2022709   6.577   3.323   4.953  0.1047 -0.5319  0.3066
   23BDD    C2122710   6.587   3.264   5.098 -0.3932 -0.7484  0.1058
   23BDD    C2222711   6.722   3.288   5.172  0.0342  0.3620  1.2315
   23BDD    C2322712   6.728   3.215   5.297  0.0220  0.1997  0.0577
   23BDD    C2422713   6.868   3.229   5.357 -0.3832 -0.3536 -0.3056
   23BDD    C2522714   6.455   3.270   4.869  0.0940 -0.1147 -0.0839
   23BDD    C2622715   6.454   3.118   4.859 -0.6232  0.3235 -0.2587
   24TPM     C122716   6.808   3.793   5.406 -0.2157 -0.3026 -0.2742
   24TPM     C222717   6.891   3.896   5.438 -0.5273 -0.0266 -0.3370
   24TPM     C322718   7.030   3.858   5.448 -0.4562  0.3194  0.0682
   24TPM     C422719   7.052   3.725   5.424 -0.0903  0.3073  0.4406
   24TPM     S122720   6.898   3.639   5.386  0.1951 -0.1456  0.3066
   25BDTP    C122721   7.603   3.453   5.544 -0.0811 -0.1324  0.0697
   25BDTP    C222722   7.510   3.347   5.564 -0.2190 -0.0202  0.0271
   25BDTP    C322723   7.373   3.362   5.545 -0.2003  0.1679  0.0434
   25BDTP    C422724   7.326   3.488   5.503 -0.0387  0.2497  0.1048
   25BDTP    C522725   7.419   3.594   5.482  0.0989  0.1376  0.1476
   25BDTP    C622726   7.556   3.578   5.502  0.0806 -0.0506  0.1313
   25BDTP    C722727   7.189   3.528   5.476  0.0112  0.4415  0.1323
   25BDTP    C822728   7.175   3.657   5.437  0.1775  0.4783  0.1930
   25BDTP    S122729   7.334   3.746   5.429  0.2943  0.2751  0.2238
   25BDTP    C922730   7.740   3.413   5.570 -0.1310 -0.3241  0.0423
   25BDTP   C1022731   7.753   3.284   5.609 -0.2973 -0.3609 -0.0184
   25BDTP    S222732   7.595   3.195   5.618 -0.4142 -0.1579 -0.0491
   26FTM     S122733   7.294   3.089   5.501  0.0353  0.1016  0.1201
   26FTM     C122734   7.148   3.034   5.589  0.2316 -0.1217  0.3076
   26FTM     C222735   7.098   3.135   5.665  0.0380 -0.1265  0.1881
   26FTM     C322736   7.169   3.260   5.658 -0.2671  0.0390 -0.0507
   26FTM     C422737   7.277   3.253   5.575 -0.3088  0.1751 -0.1164
   26FTM     F122738   6.985   3.122   5.744  0.1256 -0.2813  0.2879
   26FTM     C522739   7.099   2.903   5.551 -0.3535  0.9347  0.0244
   26FTM     C622740   7.009   2.816   5.633 -0.0640 -0.5891 -0.4415
   26FTM     C722741   6.859   2.843   5.624  0.1832  0.2058 -0.2136
   26FTM     C822742   6.795   2.842   5.481 -0.1083 -0.3072 -0.7628
   26FTM     C922743   6.655   2.880   5.486  0.0700  0.0834  0.4796
   26FTM    C1022744   6.600   2.889   5.345  0.2811 -0.0455  0.1268
   26FTM    C1122745   7.066   2.771   5.772  0.0305 -0.4738 -0.1418
   26FTM    C1222746   7.000   2.671   5.857  0.2525 -0.3315  0.3862
   27FTM     S122747   7.673   3.745   5.298 -0.0727 -0.0102 -0.1413
   27FTM     C122748   7.781   3.876   5.358 -0.0379 -0.0122 -0.1998
   27FTM     C222749   7.792   3.869   5.493  0.1904 -0.1320 -0.2229
   27FTM     C322750   7.718   3.764   5.557  0.3480 -0.2272 -0.1968
   27FTM     C422751   7.649   3.688   5.468  0.2371 -0.1788 -0.1525
   27FTM     F122752   7.869   3.957   5.567  0.2698 -0.1624 -0.2689
   27FTM     C522753   7.864   3.944   5.255 -0.0823  0.5436  0.1547
   27FTM     C622754   7.929   3.862   5.134  0.4185 -0.8760 -0.1354
   27FTM     C722755   7.834   3.844   5.016  0.7369  0.3485 -0.9304
   27FTM     C822756   7.803   3.973   4.938  0.2367  1.0727  0.3084
   27FTM     C922757   7.687   3.958   4.837 -0.3044  0.5499 -0.1533
   27FTM    C1022758   7.673   4.082   4.756  0.1678  0.3538  0.6498
   27FTM    C1122759   8.002   3.731   5.167 -0.3401  0.2440 -0.4461
   27FTM    C1222760   8.110   3.719   5.278 -0.1644  0.0974 -0.3179
   28TPM     C122761   7.883   3.222   5.644 -0.0547  0.1112  0.1345
   28TPM     C222762   7.900   3.097   5.695 -0.1948  0.0857  0.1169
   28TPM     C322763   8.037   3.062   5.720 -0.2527  0.0206  0.3467
   28TPM     C422764   8.125   3.161   5.689 -0.1568 -0.0035  0.5395
   28TPM     S122765   8.041   3.307   5.625  0.0153  0.0546  0.4450
   29BDD     C122766   8.503   3.253   5.748  0.0010  0.2608 -0.0416
   29BDD     C222767   8.498   3.117   5.758 -0.0358  0.2580 -0.0949
   29BDD     C322768   8.364   3.062   5.740 -0.0629  0.3071 -0.0428
   29BDD     C422769   8.270   3.158   5.716 -0.0464  0.3466  0.0496
   29BDD     S122770   8.341   3.323   5.715  0.0043  0.3249  0.0776
   29BDD     C522771   8.616   3.031   5.785 -0.0472  0.2102 -0.1957
   29BDD     C622772   8.336   2.918   5.747 -0.1040  0.3133 -0.0863
   29BDD     O122773   8.221   2.871   5.731 -0.1273  0.3556 -0.0414
   29BDD     O222774   8.731   3.078   5.800 -0.0241  0.1678 -0.2407
   29BDD     C722775   8.454   2.832   5.773 -0.1156  0.2654 -0.1870
   29BDD     C822776   8.587   2.887   5.792 -0.0889  0.2162 -0.2393
   29BDD     C922777   8.682   2.791   5.815 -0.1054  0.1768 -0.3315
   29BDD     S222778   8.611   2.626   5.816 -0.1558  0.1985 -0.3595
   29BDD    C1022779   8.449   2.696   5.783 -0.1526  0.2627 -0.2403
   29BDD    C1122780   8.336   2.607   5.750  0.1416 -0.2819  0.3701
   29BDD    C1222781   8.297   2.587   5.608 -0.1726  0.0573 -0.4862
   29BDD    C1322782   8.176   2.492   5.601 -0.3666  0.1543  0.5702
   29BDD    C1422783   8.040   2.513   5.675 -0.1702  0.5517 -0.0285
   29BDD    C1522784   7.976   2.650   5.685 -0.0487  0.4779 -0.5210
   29BDD    C1622785   7.830   2.658   5.661 -0.6277  0.9554 -0.0489
   29BDD    C1722786   8.414   2.555   5.511 -0.2604  0.5178 -0.0550
   29BDD    C1822787   8.384   2.590   5.370 -0.3759  0.3160  0.0395
   29BDD    C1922788   8.834   2.788   5.832  0.4665  0.2796  0.6790
   29BDD    C2022789   8.919   2.800   5.698 -0.3581 -0.3369  0.0937
   29BDD    C2122790   9.070   2.801   5.714 -0.3064  0.8264 -0.1088
   29BDD    C2222791   9.167   2.860   5.607  0.0616  0.0559  0.1025
   29BDD    C2322792   9.153   3.008   5.566 -0.4675 -0.0830 -0.9767
   29BDD    C2422793   9.116   3.113   5.673  0.0561  0.2470 -0.0136
   29BDD    C2522794   8.864   2.740   5.569  0.4852 -0.0558 -0.3994
   29BDD    C2622795   8.875   2.592   5.540 -0.3384  0.0971 -0.0618
   30TPM     C122796   8.611   3.349   5.765 -0.2533 -0.0608 -0.4461
   30TPM     C222797   8.594   3.450   5.855 -0.6156  0.3381 -0.9463
   30TPM     C322798   8.712   3.530   5.876 -0.7050  0.4460 -0.8504
   30TPM     C422799   8.819   3.491   5.801 -0.4112  0.1293 -0.2772
   30TPM     S122800   8.779   3.348   5.698  0.0049 -0.3333  0.1898
   31BDTP    C122801   9.375   3.769   5.725 -0.1037  0.1136  0.2080
   31BDTP    C222802   9.342   3.719   5.596  0.0434  0.0066  0.2115
   31BDTP    C322803   9.226   3.646   5.570  0.0653 -0.0027  0.1372
   31BDTP    C422804   9.139   3.621   5.678 -0.0641  0.0984  0.0559
   31BDTP    C522805   9.172   3.671   5.807 -0.2112  0.2055  0.0523
   31BDTP    C622806   9.287   3.744   5.832 -0.2333  0.2147  0.1266
   31BDTP    C722807   9.014   3.548   5.676 -0.0699  0.1103 -0.0297
   31BDTP    C822808   8.952   3.541   5.796 -0.2127  0.2196 -0.0963
   31BDTP    S122809   9.043   3.626   5.929 -0.3600  0.3231 -0.0600
   31BDTP    C922810   9.500   3.842   5.727 -0.0980  0.1018  0.2935
   31BDTP   C1022811   9.562   3.849   5.606  0.0448 -0.0076  0.3600
   31BDTP    S222812   9.470   3.764   5.474  0.1921 -0.1111  0.3236
   32FTM     S122813   9.169   3.412   5.404 -0.1086  0.1166  0.1434
   32FTM     C122814   9.145   3.448   5.229 -0.7644  0.1705  0.2405
   32FTM     C222815   9.163   3.581   5.207 -0.7508  0.1608  0.1953
   32FTM     C322816   9.197   3.661   5.321 -0.2420  0.1122  0.0849
   32FTM     C422817   9.204   3.586   5.435  0.1464  0.0836  0.0443
   32FTM     F122818   9.151   3.639   5.081 -1.1983  0.1956  0.2511
   32FTM     C522819   9.128   3.338   5.128 -0.3584 -0.4225  0.4512
   32FTM     C622820   8.992   3.320   5.067 -0.3730 -0.0357  0.2143
   32FTM     C722821   8.868   3.305   5.158 -0.3293 -0.0475  0.2135
   32FTM     C822822   8.890   3.191   5.264  0.2978  0.1873  0.0214
   32FTM     C922823   8.767   3.186   5.354  0.5258 -0.2014  0.0907
   32FTM    C1022824   8.760   3.072   5.441 -0.5152  0.4661  0.0051
   32FTM    C1122825   8.969   3.414   4.951 -0.1109 -0.0473 -0.0781
   32FTM    C1222826   8.878   3.366   4.835  0.7580  0.2094 -0.1091
   33FTM     S122827   9.204   3.854   6.092 -0.1536 -0.5215  0.0842
   33FTM     C122828   9.332   3.844   6.219  0.1807  0.1557 -0.1873
   33FTM     C222829   9.444   3.788   6.167  0.3529  0.6894 -0.4086
   33FTM     C322830   9.438   3.750   6.029  0.2382  0.6066 -0.3817
   33FTM     C422831   9.318   3.778   5.973 -0.0305 -0.0110 -0.1310
   33FTM     F122832   9.559   3.767   6.242  0.6242  1.2849 -0.6492
   33FTM     C522833   9.308   3.881   6.357 -0.6714  0.0069  0.5621
   33FTM     C622834   9.205   3.807   6.444 -0.8726  0.4905 -0.6258
   33FTM     C722835   9.142   3.869   6.568 -0.6713  0.6657  0.2389
   33FTM     C822836   9.087   4.007   6.555 -0.2597 -0.2232  0.0869
   33FTM     C922837   8.950   4.014   6.494 -0.5674 -0.2209  0.6206
   33FTM    C1022838   8.914   4.160   6.469 -0.2564  0.4709 -0.4939
   33FTM    C1122839   9.226   3.655   6.469  0.0640 -0.2610 -0.2938
   33FTM    C1222840   9.335   3.620   6.573  0.5448 -0.6716 -0.1896
   34TPM     C122841   9.679   3.912   5.555 -0.2126 -0.4124  0.1329
   34TPM     C222842   9.764   3.997   5.621 -0.5896 -0.0836  0.2016
   34TPM     C322843   9.881   4.032   5.545 -0.7728  0.5549  0.2061
   34TPM     C422844   9.886   3.975   5.421 -0.5355  0.7128  0.1408
   34TPM     S122845   9.742   3.871   5.391 -0.0584  0.0623  0.0681
   35BDD     C122846  10.098   3.980   5.092 -0.2168 -0.1572 -0.0508
   35BDD     C222847  10.190   4.001   5.192 -0.2095 -0.0746 -0.0753
   35BDD     C322848  10.131   4.005   5.325 -0.2158  0.1491 -0.0834
   35BDD     C422849   9.995   3.986   5.324 -0.2279  0.2341 -0.0650
   35BDD     S122850   9.932   3.962   5.158 -0.2321  0.0397 -0.0362
   35BDD     C522851  10.335   4.019   5.169 -0.1964 -0.1986 -0.0923
   35BDD     C622852  10.211   4.027   5.447 -0.2097  0.2707 -0.1091
   35BDD     O122853  10.160   4.030   5.561 -0.2152  0.4637 -0.1160
   35BDD     O222854  10.385   4.016   5.054 -0.1909 -0.3916 -0.0854
   35BDD     C722855  10.356   4.045   5.423 -0.1966  0.1467 -0.1261
   35BDD     C822856  10.415   4.042   5.291 -0.1903 -0.0771 -0.1180
   35BDD     C922857  10.550   4.060   5.291 -0.1783 -0.1619 -0.1366
   35BDD     S222858  10.613   4.084   5.457 -0.1740  0.0326 -0.1653
   35BDD    C1022859  10.447   4.067   5.523 -0.1893  0.2294 -0.1507
   35BDD    C1122860  10.438   4.092   5.669  0.0212 -0.2402 -1.0876
   35BDD    C1222861  10.490   3.990   5.780 -0.5370  0.0526  0.5143
   35BDD    C1322862  10.428   3.849   5.778 -0.6363  0.4047  0.2868
   35BDD    C1422863  10.280   3.836   5.782  0.6866  0.5835 -0.1194
   35BDD    C1522864  10.205   3.899   5.899 -0.0336  0.0588 -0.1965
   35BDD    C1622865  10.049   3.895   5.880  0.0371 -0.1924 -0.0367
   35BDD    C1722866  10.646   3.988   5.795  0.6859  1.0274 -0.2794
   35BDD    C1822867  10.716   3.902   5.906 -0.6044 -0.4977  0.5240
   35BDD    C1922868  10.648   4.076   5.176  0.0936  0.1997 -0.3909
   35BDD    C2022869  10.715   4.218   5.151  0.9183  0.0082 -0.0331
   35BDD    C2122870  10.614   4.331   5.121 -0.7005 -0.0919 -0.1839
   35BDD    C2222871  10.660   4.474   5.109 -0.1087 -0.0973 -0.0901
   35BDD    C2322872  10.534   4.558   5.119 -0.0465  0.2853  0.3075
   35BDD    C2422873  10.561   4.713   5.138  0.9073 -0.5141  0.0313
   35BDD    C2522874  10.845   4.204   5.071  0.0303 -0.1163 -0.3740
   35BDD    C2622875  10.844   4.159   4.926 -0.0552 -0.3180  0.4134
   36TPM     C122876  10.104   3.957   4.948  0.0159 -0.2784  0.1195
   36TPM     C222877  10.180   4.033   4.864  0.6045 -0.5952  0.3549
   36TPM     C322878  10.163   4.000   4.725  0.7606 -0.3948  0.2884
   36TPM     C422879  10.074   3.900   4.702  0.2910  0.0745  0.0023
   36TPM     S122880  10.004   3.837   4.857 -0.3899  0.3019 -0.2069
   37BDTP    C122881   9.825   3.670   4.171  0.1193 -0.0318 -0.0141
   37BDTP    C222882   9.931   3.752   4.123  0.1033 -0.0060 -0.0055
   37BDTP    C322883  10.014   3.825   4.207  0.1107 -0.0255  0.0041
   37BDTP    C422884   9.992   3.816   4.346  0.1350 -0.0728  0.0051
   37BDTP    C522885   9.885   3.735   4.394  0.1510 -0.0987 -0.0033
   37BDTP    C622886   9.802   3.662   4.310  0.1436 -0.0791 -0.0128
   37BDTP    C722887  10.064   3.882   4.452  0.1468 -0.1006  0.0142
   37BDTP    C822888  10.018   3.854   4.577  0.1706 -0.1454  0.0129
   37BDTP    S122889   9.876   3.741   4.576  0.1814 -0.1588  0.0002
   37BDTP    C922890   9.752   3.605   4.065  0.1075 -0.0041 -0.0230
   37BDTP   C1022891   9.798   3.633   3.940  0.0837  0.0408 -0.0219
   37BDTP    S222892   9.940   3.746   3.941  0.0729  0.0543 -0.0090
   38FTM     S122893  10.064   4.023   4.013 -0.0195  0.0318  0.0912
   38FTM     C122894  10.227   4.101   4.012  0.0378 -0.0901 -0.1386
   38FTM     C222895  10.304   4.047   4.110  0.1595 -0.1953 -0.2906
   38FTM     C322896  10.243   3.945   4.190  0.2144 -0.1876 -0.2391
   38FTM     C422897  10.115   3.920   4.152  0.1319 -0.0728 -0.0410
   38FTM     F122898  10.435   4.088   4.133  0.2286 -0.3047 -0.4858
   38FTM     C522899  10.268   4.202   3.900 -0.2426  0.0584  0.2242
   38FTM     C622900  10.266   4.355   3.922  0.2285  0.4472 -0.1956
   38FTM     C722901  10.116   4.399   3.915  0.1960 -0.0812  0.5675
   38FTM     C822902  10.045   4.396   3.777 -0.3177 -0.0651  0.0900
   38FTM     C922903  10.095   4.501   3.679  0.2216 -0.4552 -0.5420
   38FTM    C1022904  10.006   4.498   3.553 -0.1149 -0.4794  0.3524
   38FTM    C1122905  10.353   4.424   4.033 -0.2331  0.8765 -0.3761
   38FTM    C1222906  10.504   4.398   4.027 -0.0114  0.4082 -0.4381
   39FTM     S122907   9.535   3.561   4.305 -0.0166  0.0989  0.3367
   39FTM     C122908   9.505   3.418   4.409  0.0138  0.1166  0.3702
   39FTM     C222909   9.618   3.384   4.476  0.1569 -0.1425  0.0048
   39FTM     C322910   9.733   3.466   4.452  0.2494 -0.3651 -0.3158
   39FTM     C422911   9.706   3.566   4.363  0.1747 -0.2736 -0.1918
   39FTM     F122912   9.625   3.277   4.564  0.2129 -0.1934 -0.0612
   39FTM     C522913   9.374   3.345   4.414 -0.2499 -0.6484 -0.0247
   39FTM     C622914   9.270   3.409   4.512 -0.0155  0.1618  0.0955
   39FTM     C722915   9.118   3.391   4.487  0.2750  0.5218  0.2616
   39FTM     C822916   9.071   3.415   4.352  0.6277  0.8885  0.1619
   39FTM     C922917   8.914   3.414   4.347 -0.0290  0.4259  0.2734
   39FTM    C1022918   8.843   3.273   4.341 -0.0844 -0.0391  0.1652
   39FTM    C1122919   9.318   3.427   4.654 -0.1738 -0.5903  0.0816
   39FTM    C1222920   9.302   3.306   4.747  0.0542  0.2138 -0.5867
   40TPM     C122921   9.738   3.586   3.820  0.0725  0.0492 -0.2910
   40TPM     C222922   9.794   3.604   3.697  0.0547 -0.4243 -0.3740
   40TPM     C322923   9.723   3.538   3.591 -0.2168 -0.4705 -0.1655
   40TPM     C422924   9.613   3.469   3.633 -0.4061 -0.0321  0.0764
   40TPM     S122925   9.591   3.482   3.812 -0.2549  0.4770  0.0596
   41BDD     C122926   9.447   3.149   3.483 -0.1758  0.1398 -0.0678
   41BDD     C222927   9.477   3.226   3.374 -0.1259  0.0993 -0.0826
   41BDD     C322928   9.545   3.349   3.407 -0.0200  0.0480 -0.1088
   41BDD     C422929   9.567   3.365   3.541  0.0094  0.0502 -0.1138
   41BDD     S122930   9.502   3.227   3.635 -0.0939  0.1165 -0.0858
   41BDD     C522931   9.444   3.188   3.235 -0.1736  0.1064 -0.0730
   41BDD     C622932   9.587   3.447   3.304  0.0484 -0.0011 -0.1281
   41BDD     O122933   9.646   3.554   3.333  0.1397 -0.0455 -0.1507
   41BDD     O222934   9.385   3.081   3.206 -0.2649  0.1506 -0.0504
   41BDD     C722935   9.554   3.410   3.165  0.0005  0.0058 -0.1187
   41BDD     C822936   9.485   3.286   3.132 -0.1051  0.0570 -0.0924
   41BDD     C922937   9.464   3.270   2.998 -0.1349  0.0550 -0.0875
   41BDD     S222938   9.528   3.409   2.904 -0.0318 -0.0113 -0.1155
   41BDD    C1022939   9.584   3.486   3.056  0.0501 -0.0347 -0.1334
   41BDD    C1122940   9.667   3.613   3.040 -0.5219 -0.3835 -0.3737
   41BDD    C1222941   9.621   3.747   3.102  0.1743 -0.2579 -0.4064
   41BDD    C1322942   9.471   3.774   3.081 -0.0831  0.0921 -0.3571
   41BDD    C1422943   9.426   3.783   2.941  0.0822 -0.6011 -0.0180
   41BDD    C1522944   9.279   3.806   2.910  0.3554 -0.0526 -0.3113
   41BDD    C1622945   9.180   3.714   2.972  0.3088  0.6035  0.2290
   41BDD    C1722946   9.716   3.863   3.065 -0.1711 -0.4693 -0.0686
   41BDD    C1822947   9.858   3.874   3.121 -0.2711  0.2337 -0.1436
   41BDD    C1922948   9.406   3.159   2.913 -0.0003 -0.0434  0.6350
   41BDD    C2022949   9.257   3.173   2.884  0.3077 -0.0131  0.2712
   41BDD    C2122950   9.218   3.052   2.796 -0.2015  0.1593  0.1695
   41BDD    C2222951   9.247   2.907   2.844  0.2746  0.1819  0.0246
   41BDD    C2322952   9.197   2.883   2.993  0.1233 -0.1671 -0.1580
   41BDD    C2422953   9.244   2.758   3.060  0.1099 -0.1881  0.1337
   41BDD    C2522954   9.210   3.318   2.842 -0.3504  0.1731 -0.3371
   41BDD    C2622955   9.061   3.346   2.832  0.8089 -0.0403  0.5787
   42TPM     C122956   9.353   3.041   3.509  0.2894 -0.2547  0.6060
   42TPM     C222957   9.354   2.926   3.435  0.6096 -0.2653  0.6236
   42TPM     C322958   9.266   2.825   3.486  0.3507 -0.2402  0.2295
   42TPM     C422959   9.198   2.861   3.598 -0.1664 -0.2105 -0.0884
   42TPM     S122960   9.240   3.029   3.649 -0.3690 -0.2119  0.0865
   43BDTP    C122961   8.711   2.577   3.879 -0.0288 -0.1326  0.0628
   43BDTP    C222962   8.822   2.527   3.953 -0.0272 -0.2131  0.0051
   43BDTP    C322963   8.953   2.562   3.925 -0.0217 -0.2471 -0.0123
   43BDTP    C422964   8.976   2.652   3.820 -0.0174 -0.1996  0.0290
   43BDTP    C522965   8.866   2.703   3.746 -0.0191 -0.1191  0.0866
   43BDTP    C622966   8.734   2.667   3.773 -0.0248 -0.0851  0.1040
   43BDTP    C722967   9.104   2.703   3.773 -0.0112 -0.2217  0.0211
   43BDTP    C822968   9.094   2.789   3.668 -0.0081 -0.1624  0.0694
   43BDTP    S122969   8.922   2.817   3.615 -0.0134 -0.0703  0.1317
   43BDTP    C922970   8.584   2.526   3.926 -0.0353 -0.1104  0.0707
   43BDTP   C1022971   8.593   2.440   4.030 -0.0379 -0.1697  0.0224
   43BDTP    S222972   8.765   2.412   4.083 -0.0332 -0.2618 -0.0400
   44FTM     S122973   9.047   2.513   4.204  0.0763  0.2013  0.3502
   44FTM     C122974   9.211   2.439   4.211  0.0321  0.0982  0.3039
   44FTM     C222975   9.262   2.428   4.086 -0.0608 -0.0485  0.2782
   44FTM     C322976   9.180   2.475   3.979 -0.1023 -0.0886  0.2930
   44FTM     C422977   9.060   2.524   4.024 -0.0388  0.0313  0.3310
   44FTM     F122978   9.388   2.375   4.061 -0.1140 -0.1550  0.2402
   44FTM     C522979   9.271   2.398   4.348  0.2819 -0.3629  0.0858
   44FTM     C622980   9.350   2.510   4.426  0.6164 -0.5123  0.3685
   44FTM     C722981   9.272   2.637   4.451  0.1010  0.1255 -0.7023
   44FTM     C822982   9.164   2.621   4.552  0.5867  0.3745  0.2520
   44FTM     C922983   9.078   2.747   4.570 -0.1379 -0.0763  0.1090
   44FTM    C1022984   8.962   2.718   4.657  0.1612 -0.1152  0.9522
   44FTM    C1122985   9.484   2.542   4.368 -0.1093 -0.3991  0.0313
   44FTM    C1222986   9.591   2.427   4.375  0.7157 -0.1563 -0.1090
   45FTM     S122987   8.594   2.897   3.704 -0.2961 -0.1715  0.1600
   45FTM     C122988   8.460   2.875   3.586 -0.3465 -0.0749  0.1993
   45FTM     C222989   8.447   2.744   3.553 -0.5493 -0.0858  0.3165
   45FTM     C322990   8.539   2.654   3.617 -0.6742 -0.1682  0.3816
   45FTM     C422991   8.624   2.719   3.701 -0.5640 -0.2219  0.3117
   45FTM     F122992   8.352   2.697   3.464 -0.6335 -0.0220  0.3721
   45FTM     C522993   8.385   2.999   3.546  0.2510  0.2278 -0.2678
   45FTM     C622994   8.356   3.018   3.397 -0.0488  0.7010 -0.0775
   45FTM     C722995   8.269   3.140   3.374 -0.6544  0.3499  0.5735
   45FTM     C822996   8.123   3.103   3.397 -0.0871 -0.2712 -0.8308
   45FTM     C922997   8.038   3.221   3.425  0.3032 -0.0285  0.5848
   45FTM    C1022998   7.891   3.178   3.439 -0.5741  0.1926  0.3739
   45FTM    C1122999   8.493   3.022   3.312  0.2946  0.1010 -0.5272
   45FTM    C1223000   8.487   3.033   3.158  0.4222 -0.1678 -0.6233
   46TPM     C123001   8.487   2.350   4.076  0.3729 -0.1882  0.0014
   46TPM     C223002   8.356   2.361   4.043  0.3703  0.3069  0.1596
   46TPM     C323003   8.278   2.243   4.074 -0.0179  0.5621  0.1701
   46TPM     C423004   8.351   2.143   4.130 -0.3113  0.2615  0.0200
   46TPM     S123005   8.524   2.189   4.149 -0.1187 -0.3720 -0.1475
   47BDD     C123006   8.094   1.852   4.208 -0.1668 -0.2758  0.0495
   47BDD     C223007   8.198   1.827   4.293 -0.1395 -0.2328  0.0286
   47BDD     C323008   8.306   1.923   4.282 -0.1369 -0.2462 -0.0644
   47BDD     C423009   8.282   2.020   4.189 -0.1626 -0.2991 -0.1131
   47BDD     S123010   8.124   1.998   4.108 -0.1912 -0.3359 -0.0458
   47BDD     C523011   8.202   1.714   4.388 -0.1147 -0.1780  0.0933
   47BDD     C623012   8.428   1.916   4.365 -0.1092 -0.2059 -0.1017
   47BDD     O123013   8.521   1.999   4.356 -0.1068 -0.2173 -0.1818
   47BDD     O223014   8.108   1.630   4.397 -0.1171 -0.1665  0.1736
   47BDD     C723015   8.432   1.803   4.460 -0.0842 -0.1509 -0.0368
   47BDD     C823016   8.324   1.706   4.471 -0.0870 -0.1377  0.0561
   47BDD     C923017   8.347   1.609   4.564 -0.0610 -0.0847  0.1049
   47BDD     S223018   8.505   1.632   4.645 -0.0323 -0.0479  0.0375
   47BDD    C1023019   8.536   1.778   4.545 -0.0565 -0.1080 -0.0577
   47BDD    C1123020   8.661   1.858   4.580 -0.1428  0.1863 -0.1418
   47BDD    C1223021   8.811   1.807   4.557  0.0349  0.2876  0.3038
   47BDD    C1323022   8.856   1.815   4.411 -0.3955  0.3955 -0.3034
   47BDD    C1423023   8.846   1.941   4.329 -0.0257 -0.2783  0.0265
   47BDD    C1523024   8.904   1.921   4.192  0.0397 -0.3023  0.0214
   47BDD    C1623025   8.949   2.053   4.136 -0.2296  0.0422 -0.0937
   47BDD    C1723026   8.840   1.685   4.635  0.3729 -0.2692  0.0534
   47BDD    C1823027   8.978   1.633   4.644  0.1026 -0.0358  0.2868
   47BDD    C1923028   8.273   1.484   4.605 -0.2747 -0.2542 -0.1168
   47BDD    C2023029   8.243   1.478   4.749  1.0244 -0.6321  0.7552
   47BDD    C2123030   8.208   1.336   4.785 -0.5410  0.3993 -0.1875
   47BDD    C2223031   8.181   1.315   4.936 -0.1924 -0.4417 -0.5353
   47BDD    C2323032   8.190   1.164   4.984 -0.7446 -0.1448  0.1251
   47BDD    C2423033   8.330   1.097   4.976  1.0176 -0.0642  0.0820
   47BDD    C2523034   8.171   1.605   4.805 -0.2526  0.1419 -0.6110
   47BDD    C2623035   8.024   1.617   4.779 -0.2640  0.3121  0.2326
   48TPM     C123036   7.964   1.788   4.172 -0.2022 -0.0975  0.2469
   48TPM     C223037   7.891   1.705   4.251 -0.0702 -0.6184 -0.1708
   48TPM     C323038   7.761   1.672   4.197  0.0693 -0.7324 -0.4385
   48TPM     C423039   7.736   1.731   4.077  0.0438 -0.2984 -0.2250
   48TPM     S123040   7.875   1.833   4.022 -0.1600  0.2926  0.3351
   49BDTP    C123041   7.241   1.787   3.696 -0.1545 -0.0254  0.1475
   49BDTP    C223042   7.213   1.665   3.764 -0.1113 -0.0747  0.0772
   49BDTP    C323043   7.296   1.613   3.863 -0.1178 -0.0772  0.0814
   49BDTP    C423044   7.413   1.685   3.895 -0.1692 -0.0287  0.1585
   49BDTP    C523045   7.441   1.807   3.827 -0.2122  0.0207  0.2288
   49BDTP    C623046   7.358   1.859   3.729 -0.2057  0.0231  0.2247
   49BDTP    C723047   7.514   1.651   3.994 -0.1855 -0.0211  0.1779
   49BDTP    C823048   7.615   1.740   4.002 -0.2382  0.0308  0.2584
   49BDTP    S123049   7.597   1.880   3.888 -0.2742  0.0775  0.3210
   49BDTP    C923050   7.140   1.821   3.598 -0.1380 -0.0329  0.1281
   49BDTP   C1023051   7.039   1.732   3.589 -0.0857 -0.0849  0.0476
   49BDTP    S223052   7.057   1.592   3.704 -0.0495 -0.1316 -0.0149
   50FTM     S123053   7.374   1.363   3.994  0.3111 -0.2054 -0.2866
   50FTM     C123054   7.244   1.284   4.090  0.1941 -0.2715 -0.4983
   50FTM     C223055   7.126   1.349   4.071  0.2345 -0.2079 -0.5324
   50FTM     C323056   7.130   1.461   3.983  0.3560 -0.1063 -0.3990
   50FTM     C423057   7.255   1.483   3.932  0.4103 -0.0917 -0.2582
   50FTM     F123058   7.008   1.310   4.132  0.1638 -0.2378 -0.6864
   50FTM     C523059   7.266   1.165   4.177 -0.9857  0.0868 -0.8306
   50FTM     C623060   7.333   1.186   4.313  0.1942  0.0036 -0.4165
   50FTM     C723061   7.258   1.289   4.400 -0.0756 -0.1244 -0.8677
   50FTM     C823062   7.119   1.251   4.455 -1.1860 -0.3913  0.2369
   50FTM     C923063   7.053   1.382   4.493  0.0244  0.1851 -0.3651
   50FTM    C1023064   6.911   1.358   4.515  0.3569  0.7472  0.0898
   50FTM    C1123065   7.484   1.215   4.326 -0.8294 -0.0469  0.4452
   50FTM    C1223066   7.589   1.122   4.273 -0.6548 -0.0304 -0.3218
   51FTM     S123067   7.320   2.142   3.743  0.0457 -0.2539 -0.0312
   51FTM     C123068   7.429   2.238   3.636 -0.1207 -0.4180 -0.3496
   51FTM     C223069   7.504   2.154   3.560 -0.2269 -0.5354 -0.3266
   51FTM     C323070   7.483   2.014   3.580 -0.1867 -0.5056 -0.0665
   51FTM     C423071   7.387   1.989   3.675 -0.0447 -0.3607  0.1159
   51FTM     F123072   7.597   2.199   3.468 -0.3670 -0.6768 -0.5400
   51FTM     C523073   7.416   2.392   3.641  0.2022 -0.1536  0.0583
   51FTM     C623074   7.415   2.489   3.526  0.2699  0.0929  0.4881
   51FTM     C723075   7.387   2.637   3.558 -0.7292 -0.3810 -0.6849
   51FTM     C823076   7.473   2.707   3.667 -0.4049 -0.1338  0.0184
   51FTM     C923077   7.623   2.718   3.640 -0.1388 -0.1172 -0.0402
   51FTM    C1023078   7.698   2.825   3.727 -0.0306  0.6289 -0.5001
   51FTM    C1123079   7.348   2.426   3.395  0.0178  0.1713 -0.1095
   51FTM    C1223080   7.383   2.496   3.262  0.2267  0.0705  0.4162
   52TPM     C123081   6.921   1.744   3.500  0.0334  0.6143 -0.5000
   52TPM     C223082   6.897   1.825   3.393 -0.3861  0.3224 -0.6286
   52TPM     C323083   6.759   1.824   3.351 -0.4517 -0.2004 -0.4203
   52TPM     C423084   6.679   1.742   3.425 -0.0823 -0.3071 -0.1329
   52TPM     S123085   6.772   1.660   3.556  0.3807  0.2487 -0.1026
   53BDD     C123086   6.371   1.535   3.313  0.1699 -0.2463 -0.0016
   53BDD     C223087   6.341   1.664   3.280  0.1922 -0.2421 -0.0055
   53BDD     C323088   6.444   1.759   3.318  0.2439 -0.2690 -0.0798
   53BDD     C423089   6.552   1.700   3.379  0.2602 -0.2933 -0.1315
   53BDD     S123090   6.531   1.523   3.394  0.2120 -0.2842 -0.0907
   53BDD     C523091   6.216   1.705   3.213  0.1669 -0.2131  0.0588
   53BDD     C623092   6.433   1.904   3.292  0.2754 -0.2695 -0.0968
   53BDD     O123093   6.522   1.986   3.324  0.3198 -0.2927 -0.1608
   53BDD     O223094   6.127   1.624   3.181  0.1224 -0.1900  0.1228
   53BDD     C723095   6.308   1.945   3.224  0.2502 -0.2406 -0.0325
   53BDD     C823096   6.205   1.850   3.187  0.1985 -0.2138  0.0418
   53BDD     C923097   6.097   1.909   3.125  0.1822 -0.1895  0.0935
   53BDD     S223098   6.118   2.086   3.111  0.2305 -0.1985  0.0526
   53BDD    C1023099   6.278   2.074   3.191  0.2725 -0.2365 -0.0363
   53BDD    C1123100   6.346   2.213   3.196 -0.2344  0.2268 -0.4546
   53BDD    C1223101   6.468   2.243   3.109 -0.5783  0.0517  0.7460
   53BDD    C1323102   6.516   2.387   3.133  0.1286 -0.3183 -0.3169
   53BDD    C1423103   6.574   2.410   3.272  0.0614 -1.5827 -0.6551
   53BDD    C1523104   6.623   2.564   3.295 -0.0315  0.7363 -0.4731
   53BDD    C1623105   6.659   2.576   3.438  0.0999  0.1586 -0.5136
   53BDD    C1723106   6.452   2.206   2.956  0.2669  0.5033  0.4225
   53BDD    C1823107   6.554   2.225   2.847  0.4776 -0.2519 -0.3035
   53BDD    C1923108   5.966   1.860   3.073  0.1357  0.2680  0.2314
   53BDD    C2023109   5.856   1.845   3.173 -0.0930  0.1859 -1.0432
   53BDD    C2123110   5.820   1.969   3.263 -0.3948 -0.1004  0.4344
   53BDD    C2223111   5.713   1.949   3.372 -0.5363 -0.5156 -0.5182
   53BDD    C2323112   5.693   2.061   3.468  0.4655 -0.2443  0.0790
   53BDD    C2423113   5.611   2.030   3.590 -0.0449  0.3457 -0.1829
   53BDD    C2523114   5.747   1.751   3.115  0.5322 -0.2437  0.3108
   53BDD    C2623115   5.632   1.800   3.028  0.3864 -0.1338  0.5095
   54TPM     C123116   6.308   1.397   3.311  0.3296 -0.0185  0.2234
   54TPM     C223117   6.175   1.372   3.294  0.3890 -0.0464 -0.2312
   54TPM     C323118   6.140   1.233   3.314  0.3611 -0.0679 -0.4281
   54TPM     C423119   6.246   1.154   3.346  0.2806 -0.0563 -0.1236
   54TPM     S123120   6.400   1.247   3.353  0.2332 -0.0171  0.4399
   55BDTP    C123121   6.255   0.546   3.517 -0.0881  0.1462  0.0016
   55BDTP    C223122   6.142   0.552   3.430 -0.0771  0.1853 -0.0097
   55BDTP    C323123   6.101   0.670   3.369 -0.0670  0.2117  0.0347
   55BDTP    C423124   6.174   0.788   3.395 -0.0677  0.1991  0.0931
   55BDTP    C523125   6.287   0.781   3.482 -0.0787  0.1601  0.1044
   55BDTP    C623126   6.328   0.663   3.543 -0.0888  0.1336  0.0600
   55BDTP    C723127   6.150   0.921   3.344 -0.0584  0.2212  0.1462
   55BDTP    C823128   6.239   1.014   3.388 -0.0619  0.2009  0.1963
   55BDTP    S123129   6.364   0.945   3.500 -0.0772  0.1509  0.1832
   55BDTP    C923130   6.279   0.413   3.568 -0.0974  0.1242 -0.0516
   55BDTP   C1023131   6.190   0.320   3.524 -0.0941  0.1445 -0.1016
   55BDTP    S223132   6.065   0.388   3.412 -0.0785  0.1944 -0.0885
   56FTM     S123133   5.956   0.767   3.141  0.0716 -0.2998 -0.3719
   56FTM     C123134   5.781   0.724   3.137 -0.0426  0.1606 -0.4203
   56FTM     C223135   5.749   0.649   3.246 -0.3569  0.5667 -0.2284
   56FTM     C323136   5.857   0.622   3.337 -0.5240  0.5452 -0.0366
   56FTM     C423137   5.974   0.677   3.296 -0.3314  0.1083 -0.0833
   56FTM     F123138   5.621   0.602   3.270 -0.5118  0.9821 -0.2149
   56FTM     C523139   5.695   0.764   3.023 -0.4689  0.7940 -0.5909
   56FTM     C623140   5.612   0.664   2.941 -0.0645  0.0073  0.9738
   56FTM     C723141   5.516   0.728   2.842  0.3716 -0.0889  0.5495
   56FTM     C823142   5.404   0.811   2.902 -0.9311  0.0473 -0.2278
   56FTM     C923143   5.277   0.803   2.818  0.4983  0.2980  0.3952
   56FTM    C1023144   5.181   0.921   2.832  0.5934  0.3713 -0.3678
   56FTM    C1123145   5.667   0.527   2.901  0.1378 -0.7073 -0.1355
   56FTM    C1223146   5.775   0.532   2.796  0.0855  0.2809 -0.3103
   57FTM     S123147   6.601   0.735   3.523  0.0850  0.0374  0.0234
   57FTM     C123148   6.708   0.688   3.660  0.0361  0.4787  0.2162
   57FTM     C223149   6.638   0.613   3.750  0.0635  0.5785  0.3215
   57FTM     C323150   6.500   0.588   3.717  0.1224  0.3240  0.2604
   57FTM     C423151   6.464   0.646   3.600  0.1410  0.0194  0.1028
   57FTM     F123152   6.694   0.563   3.866  0.0370  0.9062  0.4798
   57FTM     C523153   6.846   0.750   3.672 -0.5409  0.3918  0.1931
   57FTM     C623154   6.879   0.866   3.770 -0.1190 -0.4623  0.1109
   57FTM     C723155   6.797   0.995   3.745  0.5492  0.0801 -0.5045
   57FTM     C823156   6.816   1.077   3.615  0.0790  0.1349 -0.0593
   57FTM     C923157   6.759   1.221   3.594 -0.3012  0.1723 -0.0064
   57FTM    C1023158   6.802   1.323   3.693  0.0744 -0.0765  0.3323
   57FTM    C1123159   6.892   0.823   3.915  0.0529  0.5972 -0.1546
   57FTM    C1223160   7.000   0.707   3.939  0.1803 -0.4234  0.2266
   58TPM     C123161   6.187   0.182   3.559 -0.1404 -0.0928 -0.1726
   58TPM     C223162   6.287   0.114   3.622  0.2438  0.0318 -0.6362
   58TPM     C323163   6.271  -0.029   3.619  0.4147  0.0100 -0.5656
   58TPM     C423164   6.158  -0.070   3.554  0.1609 -0.1312 -0.0482
   58TPM     S123165   6.064   0.070   3.491 -0.3174 -0.2485  0.3935
   59BDD     C123166   6.048  -0.394   3.367  0.0795  0.0374  0.0122
   59BDD     C223167   6.098  -0.440   3.485  0.0203  0.0105  0.0269
   59BDD     C323168   6.147  -0.335   3.572 -0.0008 -0.0114  0.0652
   59BDD     C423169   6.132  -0.210   3.519  0.0426 -0.0005  0.0790
   59BDD     S123170   6.057  -0.215   3.356  0.1129  0.0377  0.0452
   59BDD     C523171   6.104  -0.583   3.522 -0.0192  0.0036  0.0063
   59BDD     C623172   6.206  -0.362   3.705 -0.0633 -0.0424  0.0866
   59BDD     O123173   6.247  -0.271   3.780 -0.0815 -0.0613  0.1197
   59BDD     O223174   6.062  -0.674   3.447 -0.0010  0.0226 -0.0267
   59BDD     C723175   6.211  -0.505   3.742 -0.1025 -0.0496  0.0661
   59BDD     C823176   6.163  -0.610   3.655 -0.0815 -0.0277  0.0278
   59BDD     C923177   6.177  -0.736   3.708 -0.1248 -0.0384  0.0139
   59BDD     S223178   6.252  -0.730   3.871 -0.1951 -0.0767  0.0479
   59BDD    C1023179   6.262  -0.551   3.861 -0.1616 -0.0768  0.0809
   59BDD    C1123180   6.312  -0.489   3.985  0.3359 -0.2930 -0.2933
   59BDD    C1223181   6.463  -0.464   3.981  0.3266  0.4779  0.0076
   59BDD    C1323182   6.499  -0.342   4.076  0.0046  0.2958  0.7335
   59BDD    C1423183   6.634  -0.285   4.052  0.6606  0.0514  0.0092
   59BDD    C1523184   6.643  -0.195   3.931 -0.1958 -0.4610 -0.6714
   59BDD    C1623185   6.791  -0.153   3.925  0.1118  0.4611 -0.2904
   59BDD    C1723186   6.553  -0.596   3.988  0.1010 -0.1358  0.7612
   59BDD    C1823187   6.547  -0.674   4.118  0.4801  0.3351 -0.3240
   59BDD    C1923188   6.155  -0.869   3.656 -0.0593  0.4948  0.1109
   59BDD    C2023189   6.019  -0.938   3.692  0.7412  0.3360 -0.4877
   59BDD    C2123190   5.887  -0.870   3.655  0.4052  0.9514 -0.0302
   59BDD    C2223191   5.842  -0.887   3.508 -0.5566 -0.5326 -0.1410
   59BDD    C2323192   5.730  -0.798   3.473 -0.5339 -0.3969  0.0132
   59BDD    C2423193   5.671  -0.828   3.338 -0.0685  0.4617 -0.2727
   59BDD    C2523194   6.008  -1.093   3.676  0.2272 -0.4633 -0.2187
   59BDD    C2623195   6.115  -1.182   3.747  0.8063  0.0356  0.2085
   60TPM     C123196   5.992  -0.450   3.247  0.8595 -0.8068 -0.0419
   60TPM     C223197   5.896  -0.547   3.252  1.0296 -0.9799 -0.0901
   60TPM     C323198   5.827  -0.566   3.127  0.5319 -0.4919  0.1017
   60TPM     C423199   5.870  -0.485   3.027 -0.0179  0.0528  0.2961
   60TPM     S123200   6.003  -0.376   3.083  0.0510 -0.0078  0.2516
    1BDTP    C123201   2.721   1.891   6.730 -0.1782 -0.1154  0.1513
    1BDTP    C223202   2.681   1.760   6.768 -0.2251 -0.1036  0.1426
    1BDTP    C323203   2.551   1.730   6.805 -0.2363 -0.0597  0.1394
    1BDTP    C423204   2.455   1.833   6.803 -0.1997 -0.0258  0.1448
    1BDTP    C523205   2.495   1.964   6.764 -0.1530 -0.0376  0.1534
    1BDTP    C623206   2.626   1.995   6.727 -0.1418 -0.0815  0.1565
    1BDTP    C723207   2.314   1.825   6.836 -0.2028  0.0220  0.1429
    1BDTP    C823208   2.248   1.942   6.824 -0.1612  0.0463  0.1495
    1BDTP    S123209   2.354   2.079   6.769 -0.1122  0.0120  0.1591
    1BDTP    C923210   2.862   1.899   6.696 -0.1752 -0.1632  0.1531
    1BDTP   C1023211   2.929   1.782   6.708 -0.2168 -0.1875  0.1465
    1BDTP    S223212   2.822   1.645   6.763 -0.2658 -0.1533  0.1367
    2FTM     S123213   2.564   1.448   6.756  0.0317  0.0594  0.0788
    2FTM     C123214   2.497   1.343   6.887  0.1103  0.0897  0.1431
    2FTM     C223215   2.441   1.421   6.983  0.0885  0.1086  0.1152
    2FTM     C323216   2.446   1.563   6.962  0.0113  0.1008  0.0436
    2FTM     C423217   2.508   1.595   6.845 -0.0272  0.0751  0.0159
    2FTM     F123218   2.381   1.368   7.097  0.1372  0.1340  0.1523
    2FTM     C523219   2.499   1.193   6.887  0.0695  0.2784 -0.0090
    2FTM     C623220   2.359   1.114   6.901 -0.5684  0.1122  0.8036
    2FTM     C723221   2.379   0.967   6.958  0.5824 -0.6615 -0.5050
    2FTM     C823222   2.418   0.956   7.104 -0.5969 -0.1140 -0.0544
    2FTM     C923223   2.349   1.048   7.210 -0.6324 -0.0976 -0.4565
    2FTM    C1023224   2.418   1.019   7.343 -0.4373 -0.9249 -0.4085
    2FTM    C1123225   2.264   1.136   6.781 -0.2690  0.2307  0.3432
    2FTM    C1223226   2.134   1.060   6.762  0.3185  0.2694  0.1630
    3FTM     S123227   2.803   2.219   6.710 -0.1168  0.0917  0.0195
    3FTM     C123228   2.777   2.330   6.570 -0.0104 -0.1412 -0.1873
    3FTM     C223229   2.664   2.294   6.503  0.0888 -0.3072 -0.2660
    3FTM     C323230   2.593   2.180   6.555  0.0881 -0.2645 -0.1723
    3FTM     C423231   2.653   2.128   6.665 -0.0150 -0.0590 -0.0171
    3FTM     F123232   2.619   2.361   6.391  0.1860 -0.5077 -0.4275
    3FTM     C523233   2.872   2.451   6.561 -0.1022 -0.0393  0.2527
    3FTM     C623234   2.991   2.429   6.463  0.1290 -0.4411 -0.7680
    3FTM     C723235   3.107   2.331   6.505  0.0784  0.0365  0.3299
    3FTM     C823236   3.212   2.389   6.593 -0.3324 -0.4985 -0.1599
    3FTM     C923237   3.292   2.500   6.531  0.1616  0.2439  0.1120
    3FTM    C1023238   3.387   2.573   6.616  0.1985  0.7131 -0.2660
    3FTM    C1123239   2.946   2.428   6.318  0.2521 -0.0568  0.1250
    3FTM    C1223240   3.059   2.406   6.214  0.5854  0.2595 -0.0509
    4TPM     C123241   3.071   1.763   6.681  0.1515  0.3319  0.0185
    4TPM     C223242   3.174   1.850   6.701  0.1717  0.3501 -0.1609
    4TPM     C323243   3.305   1.790   6.692  0.1584  0.3074 -0.0664
    4TPM     C423244   3.301   1.656   6.665  0.1281  0.2567  0.1854
    4TPM     S123245   3.132   1.596   6.649  0.1139  0.2590  0.3234
    5BDD     C123246   3.681   1.541   6.653  0.1678  0.1210 -0.0107
    5BDD     C223247   3.614   1.443   6.586  0.1403  0.1341 -0.0020
    5BDD     C323248   3.471   1.466   6.579  0.1457  0.1695  0.0025
    5BDD     C423249   3.431   1.582   6.640  0.1774  0.1831 -0.0028
    5BDD     S123250   3.570   1.670   6.711  0.2024  0.1523 -0.0137
    5BDD     C523251   3.678   1.324   6.527  0.1081  0.1143  0.0024
    5BDD     C623252   3.378   1.372   6.512  0.1194  0.1887  0.0118
    5BDD     O123253   3.255   1.392   6.505  0.1241  0.2193  0.0156
    5BDD     O223254   3.802   1.304   6.533  0.1034  0.0837 -0.0015
    5BDD     C723255   3.443   1.253   6.452  0.0872  0.1690  0.0160
    5BDD     C823256   3.586   1.230   6.460  0.0818  0.1335  0.0114
    5BDD     C923257   3.626   1.114   6.399  0.0502  0.1200  0.0167
    5BDD     S223258   3.486   1.026   6.328  0.0250  0.1508  0.0277
    5BDD    C1023259   3.375   1.155   6.386  0.0596  0.1821  0.0246
    5BDD    C1123260   3.228   1.131   6.353 -0.4027 -0.0308 -0.1934
    5BDD    C1223261   3.194   1.080   6.215 -0.3798 -0.2593 -0.0353
    5BDD    C1323262   3.251   1.159   6.095  0.1132 -0.1850 -0.0182
    5BDD    C1423263   3.200   1.298   6.065 -0.1438 -0.2632 -0.2403
    5BDD    C1523264   3.224   1.343   5.920  0.0959 -0.7212 -0.1463
    5BDD    C1623265   3.168   1.486   5.894  0.0725  0.2914 -0.0554
    5BDD    C1723266   3.055   1.017   6.217  0.1652 -0.0120 -0.9027
    5BDD    C1823267   3.020   0.938   6.097  0.3088 -0.1712  0.1687
    5BDD    C1923268   3.750   1.043   6.365 -0.2823 -0.0374  0.1456
    5BDD    C2023269   3.791   0.916   6.447 -0.1401 -0.3207  0.0419
    5BDD    C2123270   3.804   0.942   6.601  0.0520  0.2007  0.6826
    5BDD    C2223271   3.919   1.029   6.655  0.1049 -0.1701  0.1141
    5BDD    C2323272   3.891   1.066   6.804 -0.3850 -0.4240 -0.0687
    5BDD    C2423273   3.999   1.145   6.880  0.0214  0.6041  0.2994
    5BDD    C2523274   3.901   0.842   6.368 -0.2032  0.2781 -0.0789
    5BDD    C2623275   3.931   0.708   6.426 -0.0808  0.2355 -0.0284
    6TPM     C123276   3.820   1.570   6.703  0.4381  0.1817 -0.2837
    6TPM     C223277   3.910   1.470   6.727  0.4693  0.2046 -0.3051
    6TPM     C323278   4.019   1.510   6.812  0.4294  0.2064 -0.2548
    6TPM     C423279   4.012   1.640   6.853  0.3678  0.1851 -0.1952
    6TPM     S123280   3.867   1.723   6.786  0.3552  0.1607 -0.1979
    7BDTP    C123281   4.476   1.934   7.155  0.1513  0.2358 -0.0232
    7BDTP    C223282   4.403   2.042   7.097  0.0899  0.2510  0.0812
    7BDTP    C323283   4.287   2.024   7.024  0.0767  0.2595  0.0998
    7BDTP    C423284   4.239   1.893   7.007  0.1267  0.2527  0.0113
    7BDTP    C523285   4.312   1.784   7.065  0.1882  0.2376 -0.0931
    7BDTP    C623286   4.428   1.803   7.138  0.2015  0.2291 -0.1117
    7BDTP    C723287   4.121   1.849   6.935  0.1245  0.2593  0.0108
    7BDTP    C823288   4.102   1.715   6.936  0.1808  0.2500 -0.0877
    7BDTP    S123289   4.230   1.625   7.029  0.2445  0.2315 -0.1937
    7BDTP    C923290   4.594   1.978   7.227  0.1534  0.2293 -0.0228
    7BDTP   C1023291   4.613   2.112   7.226  0.0970  0.2386  0.0758
    7BDTP    S223292   4.485   2.202   7.134  0.0336  0.2570  0.1818
    8FTM     S123293   4.046   2.174   6.970 -0.1481  0.2278 -0.1275
    8FTM     C123294   4.071   2.324   6.873  0.3975 -0.0759 -0.4665
    8FTM     C223295   4.201   2.333   6.834  0.5053 -0.4668 -0.2090
    8FTM     C323296   4.288   2.227   6.877  0.1780 -0.5519  0.2563
    8FTM     C423297   4.221   2.133   6.951 -0.1923 -0.2152  0.3585
    8FTM     F123298   4.250   2.438   6.758  0.9066 -0.7707 -0.3792
    8FTM     C523299   3.958   2.423   6.848 -0.3961 -0.6340  0.1478
    8FTM     C623300   3.930   2.544   6.938  0.3290  0.1622 -0.2656
    8FTM     C723301   3.784   2.609   6.942 -0.3647  0.8839  0.3231
    8FTM     C823302   3.643   2.542   6.977 -0.2864 -0.2063  0.5364
    8FTM     C923303   3.532   2.647   6.980 -0.3192 -0.2604 -0.0951
    8FTM    C1023304   3.403   2.607   7.048 -0.2007  0.3986 -0.1613
    8FTM    C1123305   4.051   2.640   6.951 -0.5161  0.1977 -0.6361
    8FTM    C1223306   4.088   2.723   6.830 -0.1778 -0.1532  0.2459
    9FTM     S123307   4.575   1.687   7.352  0.1729 -0.1141  0.2660
    9FTM     C123308   4.625   1.516   7.334  0.4361  0.0038 -0.1360
    9FTM     C223309   4.585   1.468   7.213  0.5248  0.2297 -0.2545
    9FTM     C323310   4.514   1.561   7.129  0.3965  0.3227 -0.0454
    9FTM     C423311   4.500   1.683   7.188  0.2034  0.1627  0.2432
    9FTM     F123312   4.610   1.339   7.170  0.7273  0.3657 -0.5599
    9FTM     C523313   4.717   1.449   7.434 -0.1735 -0.3911  0.3966
    9FTM     C623314   4.861   1.500   7.432 -0.4144 -0.9687 -0.4711
    9FTM     C723315   4.944   1.481   7.559 -0.3146  0.4602  0.1283
    9FTM     C823316   4.913   1.564   7.685 -0.0875  0.6651  0.7395
    9FTM     C923317   5.017   1.522   7.794  0.4050 -0.9732  0.4439
    9FTM    C1023318   4.966   1.577   7.923  0.2331  0.4040  0.0355
    9FTM    C1123319   4.931   1.488   7.300 -0.8072 -0.7877 -0.0909
    9FTM    C1223320   5.007   1.359   7.273  0.2979  0.0459 -0.6196
   10TPM     C123321   4.725   2.174   7.284 -0.2954  0.0823 -0.0957
   10TPM     C223322   4.813   2.126   7.376 -0.2257 -0.4048 -0.4073
   10TPM     C323323   4.925   2.214   7.400  0.0859 -0.7904 -0.4393
   10TPM     C423324   4.923   2.328   7.326  0.2538 -0.5975 -0.1519
   10TPM     S123325   4.777   2.334   7.220  0.0295  0.0916  0.1838
   11BDD     C123326   5.073   2.694   7.372 -0.0833  0.1259 -0.1226
   11BDD     C223327   5.178   2.610   7.399 -0.1057  0.1074 -0.0923
   11BDD     C323328   5.143   2.470   7.390 -0.1674  0.1129  0.0539
   11BDD     C423329   5.012   2.448   7.356 -0.1911  0.1354  0.1327
   11BDD     S123330   4.923   2.602   7.334 -0.1380  0.1513  0.0294
   11BDD     C523331   5.313   2.657   7.433 -0.0710  0.0842 -0.1961
   11BDD     C623332   5.241   2.362   7.414 -0.2003  0.0955  0.1099
   11BDD     O123333   5.211   2.240   7.406 -0.2534  0.1003  0.2359
   11BDD     O223334   5.343   2.778   7.441 -0.0179  0.0794 -0.3221
   11BDD     C723335   5.377   2.408   7.449 -0.1657  0.0723  0.0058
   11BDD     C823336   5.411   2.549   7.458 -0.1042  0.0668 -0.1402
   11BDD     C923337   5.542   2.570   7.491 -0.0803  0.0443 -0.2190
   11BDD     S223338   5.631   2.416   7.514 -0.1334  0.0284 -0.1158
   11BDD    C1023339   5.482   2.324   7.475 -0.1881  0.0538  0.0362
   11BDD    C1123340   5.502   2.179   7.471 -0.3269  0.0539  0.2308
   11BDD    C1223341   5.518   2.112   7.327 -0.1083 -0.5125 -0.2670
   11BDD    C1323342   5.518   1.954   7.336 -0.0903 -0.0834  0.4601
   11BDD    C1423343   5.415   1.881   7.432  0.5023 -0.4693  0.8069
   11BDD    C1523344   5.265   1.900   7.408  0.0832 -0.4702  0.4729
   11BDD    C1623345   5.194   1.811   7.505  0.4713  0.0507  0.0093
   11BDD    C1723346   5.619   2.184   7.235 -0.0997  0.7392  0.1145
   11BDD    C1823347   5.763   2.137   7.238  0.0342 -0.3752  0.0430
   11BDD    C1923348   5.627   2.689   7.529  0.0830 -0.2838  0.2341
   11BDD    C2023349   5.731   2.730   7.421 -0.2695  0.4130 -1.2596
   11BDD    C2123350   5.678   2.810   7.300  0.2262 -0.1325 -0.6809
   11BDD    C2223351   5.611   2.953   7.319  0.2826  0.0042  0.0280
   11BDD    C2323352   5.554   3.019   7.195  0.0991 -0.0745  0.1595
   11BDD    C2423353   5.451   2.948   7.112  0.2192 -0.5323  0.4361
   11BDD    C2523354   5.838   2.800   7.512  0.4694 -0.0326 -0.3961
   11BDD    C2623355   5.962   2.856   7.435  0.1629  0.3302  0.1147
   12TPM     C123356   5.059   2.836   7.344  0.5279  0.0292 -0.4101
   12TPM     C223357   4.969   2.878   7.251  0.4750 -0.1082 -0.4221
   12TPM     C323358   4.967   3.021   7.233 -0.0552 -0.0685 -0.0983
   12TPM     C423359   5.056   3.088   7.312 -0.4069  0.0991  0.1605
   12TPM     S123360   5.150   2.974   7.417 -0.0930  0.2209  0.0144
   13BDTP    C123361   5.031   3.714   7.362  0.0497  0.3625  0.1493
   13BDTP    C223362   5.045   3.673   7.498  0.0836  0.2511  0.1117
   13BDTP    C323363   5.058   3.539   7.534  0.1028  0.2219 -0.0019
   13BDTP    C423364   5.059   3.442   7.432  0.0876  0.3064 -0.0824
   13BDTP    C523365   5.046   3.484   7.296  0.0535  0.4178 -0.0449
   13BDTP    C623366   5.032   3.618   7.260  0.0344  0.4470  0.0686
   13BDTP    C723367   5.072   3.299   7.445  0.1024  0.2962 -0.2045
   13BDTP    C823368   5.069   3.232   7.328  0.0814  0.3933 -0.2596
   13BDTP    S123369   5.049   3.341   7.184  0.0398  0.5113 -0.1650
   13BDTP    C923370   5.018   3.858   7.349  0.0348  0.3727  0.2712
   13BDTP   C1023371   5.021   3.925   7.466  0.0559  0.2756  0.3265
   13BDTP    S223372   5.041   3.816   7.610  0.0973  0.1576  0.2316
   14FTM     S123373   4.996   3.348   7.749 -0.2414 -0.0339  0.0483
   14FTM     C123374   5.069   3.385   7.909  0.0478 -0.0558 -0.0783
   14FTM     C223375   5.138   3.502   7.902  0.1577 -0.1279 -0.2241
   14FTM     C323376   5.138   3.569   7.775  0.0269 -0.1693 -0.2460
   14FTM     C423377   5.067   3.501   7.682 -0.1903 -0.1277 -0.1122
   14FTM     F123378   5.206   3.556   8.011  0.3834 -0.1604 -0.3467
   14FTM     C523379   5.056   3.278   8.017 -0.2040 -0.4537 -0.2378
   14FTM     C623380   5.099   3.301   8.163 -0.2169 -0.5107 -0.4890
   14FTM     C723381   5.030   3.414   8.237 -0.9397 -0.5152 -0.1291
   14FTM     C823382   4.890   3.377   8.290 -0.6541  0.1572  0.3056
   14FTM     C923383   4.812   3.483   8.356  0.2527  0.2192 -0.5957
   14FTM    C1023384   4.795   3.602   8.269 -1.0528 -0.4227  0.3148
   14FTM    C1123385   5.251   3.298   8.196  0.6765 -0.0477  0.1102
   14FTM    C1223386   5.320   3.171   8.150 -0.0128  0.2760  0.0390
   15FTM     S123387   5.185   3.717   7.041  0.1417 -0.0623  0.0460
   15FTM     C123388   5.107   3.712   6.879  0.3271 -0.0732 -0.0425
   15FTM     C223389   4.982   3.661   6.889  0.2912 -0.0125 -0.1727
   15FTM     C323390   4.939   3.623   7.021  0.1214  0.0450 -0.2106
   15FTM     C423391   5.035   3.647   7.114  0.0242  0.0276 -0.1060
   15FTM     F123392   4.898   3.644   6.780  0.4098 -0.0052 -0.2656
   15FTM     C523393   5.165   3.769   6.757 -0.0806 -0.5005 -0.3713
   15FTM     C623394   5.237   3.914   6.755  0.4708  0.1817 -0.4770
   15FTM     C723395   5.366   3.942   6.825 -0.2797  0.2415 -0.4547
   15FTM     C823396   5.487   3.866   6.782  0.2560 -0.5120  0.3170
   15FTM     C923397   5.592   3.869   6.894  0.0315  0.1436 -0.4881
   15FTM    C1023398   5.711   3.779   6.867 -0.0927  0.3580  0.1426
   15FTM    C1123399   5.147   4.035   6.746 -0.3501 -0.1896 -0.4715
   15FTM    C1223400   5.055   4.066   6.872  0.2569  0.2843 -0.3018
   16TPM     C123401   5.007   4.065   7.489 -0.3347  0.1795 -0.1927
   16TPM     C223402   4.975   4.132   7.603 -1.2480  0.1651 -0.4249
   16TPM     C323403   4.967   4.274   7.586 -1.3697  0.1463 -0.5262
   16TPM     C423404   4.992   4.316   7.459 -0.5495  0.1465 -0.3713
   16TPM     S123405   5.029   4.178   7.350  0.4482  0.1703 -0.0833
   17BDD     C123406   4.974   4.709   7.479 -0.1459  0.0817 -0.0574
   17BDD     C223407   5.038   4.683   7.362 -0.1148  0.0110 -0.0247
   17BDD     C323408   5.052   4.541   7.334 -0.1861 -0.0052  0.0210
   17BDD     C423409   4.998   4.461   7.430 -0.2704  0.0535  0.0225
   17BDD     S123410   4.926   4.557   7.563 -0.2664  0.1330 -0.0330
   17BDD     C523411   5.089   4.787   7.271 -0.0184 -0.0445 -0.0346
   17BDD     C623412   5.119   4.490   7.212 -0.1676 -0.0784  0.0613
   17BDD     O123413   5.131   4.368   7.187 -0.2290 -0.0925  0.1007
   17BDD     O223414   5.077   4.909   7.295  0.0430 -0.0304 -0.0739
   17BDD     C723415   5.170   4.595   7.121 -0.0714 -0.1338  0.0516
   17BDD     C823416   5.156   4.736   7.149 -0.0002 -0.1175  0.0058
   17BDD     C923417   5.210   4.817   7.052  0.0844 -0.1763  0.0042
   17BDD     S223418   5.282   4.720   6.919  0.0805 -0.2558  0.0598
   17BDD    C1023419   5.234   4.569   7.003 -0.0401 -0.2047  0.0840
   17BDD    C1123420   5.280   4.441   6.939  0.8665 -0.2765 -0.1241
   17BDD    C1223421   5.404   4.441   6.855 -0.3944  0.4093 -0.3719
   17BDD    C1323422   5.532   4.459   6.945  0.0038  0.2455  0.1592
   17BDD    C1423423   5.575   4.349   7.038 -0.0731 -0.8262  0.0073
   17BDD    C1523424   5.682   4.390   7.132 -0.5967  0.3253 -0.0253
   17BDD    C1623425   5.744   4.260   7.197  0.1106  0.9288  0.9035
   17BDD    C1723426   5.404   4.331   6.738 -0.2949  0.1356  0.0262
   17BDD    C1823427   5.304   4.362   6.630 -0.4159 -0.3375  0.3616
   17BDD    C1923428   5.220   4.967   7.025 -0.7549  0.4067 -0.0443
   17BDD    C2023429   5.122   5.022   6.928 -0.2391 -0.1033 -0.2213
   17BDD    C2123430   4.974   5.042   6.979  0.8912 -0.0839 -0.4508
   17BDD    C2223431   4.952   5.161   7.081  0.4668  0.5436 -0.3103
   17BDD    C2323432   4.802   5.204   7.088 -0.6919  0.4067  0.0314
   17BDD    C2423433   4.784   5.340   7.155  0.1519  0.5990 -0.3860
   17BDD    C2523434   5.187   5.145   6.865  0.1033  0.0700 -0.2290
   17BDD    C2623435   5.116   5.217   6.742 -0.2517 -0.0046  0.3129
   18TPM     C123436   4.936   4.828   7.556  0.3412  0.2479  0.5056
   18TPM     C223437   4.997   4.843   7.677  0.4735  0.7921  0.3766
   18TPM     C323438   5.002   4.980   7.723  0.3173  0.9744 -0.1320
   18TPM     C423439   4.944   5.069   7.638  0.0658  0.5689 -0.3907
   18TPM     S123440   4.879   4.987   7.491  0.0063 -0.0795 -0.0093
   19BDTP    C123441   4.943   5.697   7.645  0.0440  0.1625  0.0983
   19BDTP    C223442   5.012   5.667   7.524 -0.0287  0.0497  0.0842
   19BDTP    C323443   5.035   5.537   7.482 -0.1292  0.0104  0.1485
   19BDTP    C423444   4.988   5.432   7.561 -0.1595  0.0859  0.2304
   19BDTP    C523445   4.918   5.462   7.682 -0.0868  0.1987  0.2445
   19BDTP    C623446   4.895   5.592   7.725  0.0137  0.2380  0.1804
   19BDTP    C723447   4.999   5.289   7.537 -0.2594  0.0646  0.3068
   19BDTP    C823448   4.943   5.212   7.633 -0.2649  0.1549  0.3767
   19BDTP    S123449   4.867   5.309   7.767 -0.1446  0.2794  0.3556
   19BDTP    C923450   4.931   5.840   7.669  0.1439  0.1836  0.0221
   19BDTP   C1023451   4.988   5.917   7.573  0.1494  0.0933 -0.0478
   19BDTP    S223452   5.064   5.820   7.439  0.0289 -0.0311 -0.0267
   20FTM     S123453   5.264   5.417   7.381 -0.1022 -0.2494  0.0405
   20FTM     C123454   5.284   5.409   7.202  0.1769  0.3327  0.0388
   20FTM     C223455   5.178   5.469   7.141  0.2390  0.4729  0.0694
   20FTM     C323456   5.078   5.525   7.228  0.0771  0.1440  0.0955
   20FTM     C423457   5.108   5.506   7.359 -0.1151 -0.2611  0.0846
   20FTM     F123458   5.166   5.478   7.003  0.4462  0.9071  0.0755
   20FTM     C523459   5.383   5.309   7.148 -0.8016 -0.0813 -0.6396
   20FTM     C623460   5.540   5.338   7.155  0.6495 -0.3840  0.7058
   20FTM     C723461   5.585   5.462   7.081 -0.4894  0.2784 -0.2087
   20FTM     C823462   5.561   5.490   6.931  1.0556  0.1422  0.3975
   20FTM     C923463   5.542   5.370   6.844  0.4403  0.1092  0.6207
   20FTM    C1023464   5.581   5.407   6.705  0.5107  0.1877 -0.2159
   20FTM    C1123465   5.609   5.338   7.290 -0.3173 -0.5277  0.8419
   20FTM    C1223466   5.616   5.195   7.358 -0.4738 -0.5083 -0.6214
   21FTM     S123467   4.650   5.527   7.856  0.1657 -0.0339  0.1651
   21FTM     C123468   4.637   5.582   8.027 -0.1792  0.2744  0.0418
   21FTM     C223469   4.746   5.656   8.060 -0.2755  0.3859  0.1090
   21FTM     C323470   4.844   5.674   7.957 -0.0912  0.2418  0.2568
   21FTM     C423471   4.809   5.612   7.841  0.1542  0.0126  0.3043
   21FTM     F123472   4.763   5.712   8.186 -0.5361  0.6249  0.0405
   21FTM     C523473   4.522   5.552   8.112  0.2584  0.4223  0.0690
   21FTM     C623474   4.551   5.467   8.238 -0.0294 -0.2851 -0.9141
   21FTM     C723475   4.446   5.468   8.352  0.1948 -0.2090  0.6689
   21FTM     C823476   4.420   5.603   8.420  0.0070 -0.0281 -0.0837
   21FTM     C923477   4.536   5.694   8.461 -0.4834 -0.2829  0.0002
   21FTM    C1023478   4.478   5.823   8.522  0.4924  0.1898 -0.3965
   21FTM    C1123479   4.619   5.326   8.210  0.6148 -0.3522 -0.0557
   21FTM    C1223480   4.674   5.266   8.334  0.0504  0.3903 -0.4323
   22TPM     C123481   4.990   6.062   7.556 -0.1602  0.2207  0.1196
   22TPM     C223482   5.011   6.133   7.441 -0.4853  0.2315  0.0654
   22TPM     C323483   5.021   6.276   7.462 -0.5864  0.2443  0.0290
   22TPM     C423484   5.008   6.313   7.593 -0.3386  0.2431  0.0553
   22TPM     S123485   4.981   6.170   7.700  0.0449  0.2256  0.1288
   23BDD     C123486   5.133   6.617   7.804 -0.0398  0.4426 -0.0696
   23BDD     C223487   5.072   6.673   7.694 -0.0602  0.3945 -0.0829
   23BDD     C323488   5.024   6.574   7.599  0.0218  0.3552 -0.0843
   23BDD     C423489   5.049   6.445   7.637  0.1035  0.3743 -0.0718
   23BDD     S123490   5.133   6.438   7.795  0.0836  0.4423 -0.0577
   23BDD     C523491   5.057   6.818   7.673 -0.1558  0.3828 -0.0948
   23BDD     C623492   4.956   6.612   7.473  0.0162  0.3006 -0.0976
   23BDD     O123493   4.915   6.527   7.391  0.0870  0.2669 -0.0987
   23BDD     O223494   5.098   6.903   7.756 -0.2265  0.4164 -0.0936
   23BDD     C723495   4.941   6.758   7.452 -0.0794  0.2888 -0.1096
   23BDD     C823496   4.989   6.856   7.548 -0.1614  0.3281 -0.1082
   23BDD     C923497   4.964   6.985   7.510 -0.2431  0.3092 -0.1204
   23BDD     S223498   4.880   6.992   7.352 -0.2230  0.2411 -0.1346
   23BDD    C1023499   4.880   6.813   7.343 -0.0997  0.2408 -0.1228
   23BDD    C1123500   4.827   6.763   7.211  0.2991  0.9778  0.3638
   23BDD    C1223501   4.673   6.782   7.179 -0.3656  0.3011 -0.0873
   23BDD    C1323502   4.647   6.774   7.031 -0.2840 -0.1091  0.3340
   23BDD    C1423503   4.677   6.624   6.983  0.1410 -0.6133  0.1911
   23BDD    C1523504   4.647   6.624   6.833 -0.3566  0.0843 -0.3931
   23BDD    C1623505   4.625   6.490   6.775  0.6680  0.5732  0.7643
   23BDD    C1723506   4.591   6.696   7.273  0.0033 -0.2533  0.1235
   23BDD    C1823507   4.445   6.737   7.293  0.4658  0.5735 -0.3744
   23BDD    C1923508   5.011   7.111   7.578 -0.3928 -0.4381 -0.1784
   23BDD    C2023509   4.902   7.220   7.612  0.3235 -0.0112  0.1890
   23BDD    C2123510   4.779   7.163   7.690 -0.3037  0.2883  0.5509
   23BDD    C2223511   4.667   7.258   7.738  0.3441  0.3014 -0.7845
   23BDD    C2323512   4.528   7.183   7.738  0.1897  0.3179 -0.0336
   23BDD    C2423513   4.407   7.267   7.768 -0.1406 -0.1875 -0.0797
   23BDD    C2523514   4.849   7.317   7.504  0.7328 -0.1733  0.0926
   23BDD    C2623515   4.956   7.381   7.422 -0.1468  0.3225  0.3475
   24TPM     C123516   5.205   6.667   7.923 -0.0220 -0.0040  0.1101
   24TPM     C223517   5.227   6.587   8.031  0.4150 -0.1523 -0.0834
   24TPM     C323518   5.298   6.652   8.138  0.7986 -0.2824 -0.2558
   24TPM     C423519   5.330   6.782   8.112  0.6541 -0.2332 -0.1931
   24TPM     S123520   5.273   6.832   7.948  0.0173 -0.0169  0.0898
   25BDTP    C123521   5.604   7.147   8.545  0.5572 -0.1577 -0.0966
   25BDTP    C223522   5.582   7.239   8.438  0.2699 -0.0027  0.0920
   25BDTP    C323523   5.526   7.202   8.317  0.1239  0.1318  0.1178
   25BDTP    C423524   5.489   7.068   8.300  0.2673  0.1129 -0.0501
   25BDTP    C523525   5.510   6.975   8.406  0.5546 -0.0418 -0.2389
   25BDTP    C623526   5.566   7.013   8.528  0.7006 -0.1764 -0.2647
   25BDTP    C723527   5.429   7.006   8.183  0.1602  0.2346 -0.0600
   25BDTP    C823528   5.404   6.873   8.197  0.3507  0.1789 -0.2449
   25BDTP    S123529   5.454   6.808   8.359  0.6926 -0.0349 -0.4320
   25BDTP    C923530   5.663   7.209   8.661  0.6644 -0.2791 -0.0868
   25BDTP   C1023531   5.688   7.342   8.647  0.4739 -0.2236  0.0978
   25BDTP    S223532   5.638   7.407   8.485  0.1318 -0.0096  0.2851
   26FTM     S123533   5.421   7.470   8.250 -0.3009 -0.1568 -0.2048
   26FTM     C123534   5.458   7.523   8.082  0.9126  0.0094  0.0968
   26FTM     C223535   5.528   7.426   8.017  1.7210  0.2313  0.6137
   26FTM     C323536   5.557   7.308   8.093  1.4524  0.2843  0.8020
   26FTM     C423537   5.507   7.314   8.219  0.4041  0.0970  0.4171
   26FTM     F123538   5.571   7.439   7.886  2.7522  0.3995  0.9463
   26FTM     C523539   5.420   7.656   8.026  0.3808  0.6738 -0.2258
   26FTM     C623540   5.417   7.786   8.105  0.3726  0.1153 -0.3442
   26FTM     C723541   5.519   7.802   8.219  0.1625  0.5076  0.2380
   26FTM     C823542   5.668   7.759   8.201 -0.4774  0.2850 -0.1857
   26FTM     C923543   5.743   7.817   8.072  0.1909 -0.2829 -0.4890
   26FTM    C1023544   5.887   7.770   8.070 -0.1636  0.0272 -0.2097
   26FTM    C1123545   5.397   7.903   8.000 -0.3612 -0.1630 -0.6624
   26FTM    C1223546   5.368   8.038   8.055  0.2236  0.0034 -0.5933
   27FTM     S123547   5.414   6.833   8.686 -0.1430 -0.0860  0.1579
   27FTM     C123548   5.501   6.738   8.812  0.2028 -0.0665 -0.0619
   27FTM     C223549   5.631   6.775   8.816  0.1826  0.0371 -0.3262
   27FTM     C323550   5.671   6.876   8.723 -0.0967  0.1063 -0.3724
   27FTM     C423551   5.568   6.919   8.646 -0.2963  0.0537 -0.1365
   27FTM     F123552   5.723   6.718   8.904  0.4154  0.0758 -0.5414
   27FTM     C523553   5.435   6.645   8.915  0.7170  0.2822 -0.9512
   27FTM     C623554   5.398   6.505   8.867  0.8434  0.2086 -0.3351
   27FTM     C723555   5.514   6.424   8.812 -0.4438  0.4726  0.7908
   27FTM     C823556   5.633   6.386   8.896 -0.4531  0.3577 -0.4271
   27FTM     C923557   5.750   6.333   8.813 -0.0122  0.2343  0.3733
   27FTM    C1023558   5.830   6.226   8.886 -0.5210  0.3367  0.2748
   27FTM    C1123559   5.276   6.498   8.774  0.2237  0.0317  0.4773
   27FTM    C1223560   5.142   6.565   8.827 -0.1352  0.1597 -0.5367
   28TPM     C123561   5.729   7.427   8.757 -0.0386 -0.4721 -0.2182
   28TPM     C223562   5.772   7.557   8.758 -0.2012 -0.4150 -0.5934
   28TPM     C323563   5.833   7.598   8.882 -0.2096  0.0076 -0.7248
   28TPM     C423564   5.837   7.499   8.976 -0.0532  0.2728 -0.4503
   28TPM     S123565   5.763   7.346   8.914  0.1179  0.0072 -0.0008
   29BDD     C123566   6.063   7.643   9.266 -0.3657  0.0966 -0.0809
   29BDD     C223567   6.029   7.518   9.309 -0.2872  0.0780 -0.0727
   29BDD     C323568   5.940   7.448   9.218 -0.2089 -0.0005 -0.0899
   29BDD     C423569   5.907   7.522   9.108 -0.2286 -0.0408 -0.1106
   29BDD     S123570   5.986   7.683   9.110 -0.3468  0.0172 -0.1104
   29BDD     C523571   6.078   7.458   9.435 -0.2813  0.1316 -0.0494
   29BDD     C623572   5.890   7.312   9.245 -0.1172 -0.0330 -0.0856
   29BDD     O123573   5.813   7.251   9.166 -0.0496 -0.1006 -0.1001
   29BDD     O223574   6.155   7.518   9.513 -0.3490  0.1993 -0.0348
   29BDD     C723575   5.939   7.251   9.371 -0.1115  0.0207 -0.0618
   29BDD     C823576   6.028   7.321   9.461 -0.1898  0.0993 -0.0443
   29BDD     C923577   6.061   7.248   9.572 -0.1700  0.1395 -0.0236
   29BDD     S223578   5.983   7.086   9.570 -0.0519  0.0818 -0.0241
   29BDD    C1023579   5.905   7.126   9.413 -0.0330  0.0023 -0.0536
   29BDD    C1123580   5.813   7.018   9.367 -0.1604 -0.3358  0.3166
   29BDD    C1223581   5.877   6.916   9.274  0.2223  0.0760  0.4327
   29BDD    C1323582   5.971   6.817   9.342  0.1118  0.5752  0.1940
   29BDD    C1423583   5.918   6.734   9.464  0.1259 -0.7613  0.6520
   29BDD    C1523584   6.014   6.652   9.542 -0.7539 -0.0262  0.2299
   29BDD    C1623585   6.137   6.726   9.598  0.3241 -0.0907  0.2285
   29BDD    C1723586   5.766   6.854   9.180  0.1186  0.1641 -0.1883
   29BDD    C1823587   5.661   6.755   9.222 -0.0201  1.1646 -0.2570
   29BDD    C1923588   6.116   7.274   9.710  0.0831  0.5410 -0.5926
   29BDD    C2023589   6.272   7.262   9.730  0.2007  0.0386  0.3171
   29BDD    C2123590   6.332   7.308   9.867 -0.2633  0.4825  0.4868
   29BDD    C2223591   6.287   7.446   9.915  0.0891  0.9548 -0.3478
   29BDD    C2323592   6.321   7.561   9.821  0.0567  0.6613  0.0995
   29BDD    C2423593   6.270   7.688   9.874  0.8881 -0.2095 -0.1446
   29BDD    C2523594   6.340   7.138   9.676 -0.2998  0.5991  0.4029
   29BDD    C2623595   6.345   7.005   9.756  0.2902 -0.3005 -0.0408
   30TPM     C123596   6.124   7.766   9.328 -0.0264  0.2298  0.6235
   30TPM     C223597   6.244   7.764   9.393 -0.1762  0.2410  0.9077
   30TPM     C323598   6.294   7.895   9.427 -0.0664  0.2718  0.6382
   30TPM     C423599   6.211   7.996   9.389  0.1671  0.2838  0.1494
   30TPM     S123600   6.063   7.934   9.306  0.2675  0.2572 -0.0109
   31BDTP    C123601   6.212   8.602   9.555 -0.1199 -0.0315 -0.0429
   31BDTP    C223602   6.151   8.605   9.426 -0.0983  0.0179 -0.0520
   31BDTP    C323603   6.134   8.491   9.349 -0.0793  0.0479 -0.1011
   31BDTP    C423604   6.177   8.368   9.401 -0.0813  0.0293 -0.1435
   31BDTP    C523605   6.238   8.365   9.530 -0.1028 -0.0198 -0.1352
   31BDTP    C623606   6.256   8.479   9.608 -0.1220 -0.0502 -0.0855
   31BDTP    C723607   6.169   8.237   9.340 -0.0640  0.0533 -0.1983
   31BDTP    C823608   6.220   8.137   9.416 -0.0712  0.0255 -0.2303
   31BDTP    S123609   6.285   8.195   9.576 -0.1011 -0.0360 -0.1957
   31BDTP    C923610   6.220   8.733   9.616 -0.1372 -0.0560  0.0114
   31BDTP   C1023611   6.169   8.833   9.541 -0.1301 -0.0277  0.0434
   31BDTP    S223612   6.104   8.775   9.381 -0.1001  0.0337  0.0092
   32FTM     S123613   5.925   8.377   9.192 -0.0423  0.0629 -0.5273
   32FTM     C123614   5.883   8.461   9.038  0.2395  0.4874 -0.3762
   32FTM     C223615   5.967   8.566   9.019  0.3444  0.4795  0.0136
   32FTM     C323616   6.066   8.588   9.120  0.2149  0.1512  0.2139
   32FTM     C423617   6.059   8.496   9.220  0.0043 -0.1009 -0.0304
   32FTM     F123618   5.959   8.650   8.908  0.5636  0.7696  0.2124
   32FTM     C523619   5.768   8.428   8.948 -0.3781  0.7302  0.2642
   32FTM     C623620   5.802   8.355   8.820 -0.2392  0.1890  0.1741
   32FTM     C723621   5.680   8.346   8.722  0.1012 -0.2605  0.5309
   32FTM     C823622   5.608   8.473   8.670 -0.1900  0.7547 -0.2126
   32FTM     C923623   5.694   8.588   8.621  0.2492 -0.2290 -0.0981
   32FTM    C1023624   5.788   8.567   8.506  0.3739 -0.3115  0.8694
   32FTM    C1123625   5.874   8.226   8.825 -0.5857  0.8156  0.0817
   32FTM    C1223626   5.821   8.114   8.923 -0.4554 -0.6223 -0.3892
   33FTM     S123627   6.235   8.550   9.881 -0.0868 -0.0420  0.0824
   33FTM     C123628   6.363   8.493   9.993  0.1805  0.2354 -0.0802
   33FTM     C223629   6.452   8.414   9.926  0.0190  0.0660 -0.0951
   33FTM     C323630   6.425   8.393   9.787 -0.3148 -0.2813  0.0163
   33FTM     C423631   6.313   8.459   9.746 -0.4118 -0.3811  0.1198
   33FTM     F123632   6.562   8.355   9.987  0.1634  0.2153 -0.2105
   33FTM     C523633   6.354   8.534  10.141 -0.6274 -0.6795 -0.2785
   33FTM     C623634   6.424   8.672  10.179 -0.2772  0.2616 -0.4225
   33FTM     C723635   6.579   8.660  10.195  0.4798  0.1512  0.6601
   33FTM     C823636   6.637   8.557  10.297  0.1185 -0.4603  0.7187
   33FTM     C923637   6.783   8.543  10.275 -0.2983 -0.1004  0.0189
   33FTM    C1023638   6.842   8.478  10.401  0.7851  0.0683  0.0409
   33FTM    C1123639   6.371   8.808  10.135  0.6919 -0.6507  0.3945
   33FTM    C1223640   6.219   8.832  10.158 -0.5118 -0.0013  0.0871
   34TPM     C123641   6.153   8.968   9.586 -0.4387  0.4871 -0.2173
   34TPM     C223642   6.141   9.080   9.509  0.0944  0.8130  0.1538
   34TPM     C323643   6.134   9.202   9.585  0.6021  0.5910  0.5670
   34TPM     C423644   6.142   9.183   9.720  0.4560  0.0957  0.5114
   34TPM     S123645   6.158   9.009   9.762 -0.3403 -0.1304 -0.0721
   35BDD     C123646   6.303   9.403   9.999  0.0799  0.0150 -0.3241
   35BDD     C223647   6.226   9.492   9.929  0.0099  0.0274 -0.2319
   35BDD     C323648   6.153   9.430   9.820 -0.1796  0.0277 -0.1063
   35BDD     C423649   6.175   9.296   9.808 -0.2515  0.0156 -0.1046
   35BDD     S123650   6.289   9.237   9.933 -0.0868  0.0026 -0.2601
   35BDD     C523651   6.216   9.636   9.960  0.1150  0.0401 -0.2558
   35BDD     C623652   6.063   9.507   9.731 -0.2823  0.0403  0.0074
   35BDD     O123653   6.000   9.454   9.636 -0.4458  0.0405  0.1156
   35BDD     O223654   6.279   9.689  10.054  0.2786  0.0398 -0.3641
   35BDD     C723655   6.054   9.651   9.762 -0.1775  0.0525 -0.0166
   35BDD     C823656   6.127   9.713   9.871  0.0122  0.0525 -0.1421
   35BDD     C923657   6.104   9.847   9.883  0.0843  0.0648 -0.1438
   35BDD     S223658   5.990   9.906   9.758 -0.0805  0.0773  0.0116
   35BDD    C1023659   5.977   9.740   9.692 -0.2471  0.0651  0.0756
   35BDD    C1123660   5.888   9.733   9.569  0.3367 -0.4948  0.7230
   35BDD    C1223661   5.940   9.790   9.437  0.1844  0.6112  0.3417
   35BDD    C1323662   5.837   9.797   9.321  0.3977  0.5081 -0.4953
   35BDD    C1423663   5.694   9.854   9.368  0.4540  0.4613  0.0210
   35BDD    C1523664   5.690  10.005   9.383  0.3893 -0.2433 -0.0675
   35BDD    C1623665   5.553  10.075   9.420 -0.5597 -0.3345 -0.0392
   35BDD    C1723666   6.073   9.729   9.389 -0.4156 -0.6217  0.7967
   35BDD    C1823667   6.090   9.591   9.324  0.2802  0.6444  0.0513
   35BDD    C1923668   6.153   9.956   9.983  0.7513  0.2368 -0.3588
   35BDD    C2023669   6.285  10.029   9.943  1.0027  0.2807  0.6619
   35BDD    C2123670   6.371  10.069  10.063  0.3971 -0.2518 -0.5200
   35BDD    C2223671   6.417   9.950  10.151 -0.1929 -0.0721 -0.2022
   35BDD    C2323672   6.481  10.014  10.274 -0.2726  0.1601 -0.0978
   35BDD    C2423673   6.501   9.908  10.384  0.0848  0.1467 -0.3502
   35BDD    C2523674   6.257  10.141   9.833  0.3358  0.3292  0.2333
   35BDD    C2623675   6.184  10.271   9.872  0.3803 -0.7501  0.1795
   36TPM     C123676   6.396   9.408  10.121  0.3147 -0.1803  0.1747
   36TPM     C223677   6.467   9.297  10.155  0.7024  0.0863  0.2479
   36TPM     C323678   6.544   9.311  10.276  0.6831  0.4420  0.2198
   36TPM     C423679   6.530   9.433  10.335  0.2807  0.4464  0.1253
   36TPM     S123680   6.419   9.540  10.241 -0.1080 -0.0022  0.0639
   37BDTP    C123681   6.847   9.681  10.817 -0.0890 -0.0893  0.1615
   37BDTP    C223682   6.768   9.581  10.882 -0.0892 -0.0799  0.1761
   37BDTP    C323683   6.680   9.499  10.813 -0.1166 -0.0651  0.1936
   37BDTP    C423684   6.668   9.516  10.674 -0.1454 -0.0591  0.1968
   37BDTP    C523685   6.746   9.616  10.609 -0.1454 -0.0684  0.1822
   37BDTP    C623686   6.834   9.698  10.678 -0.1180 -0.0833  0.1647
   37BDTP    C723687   6.583   9.443  10.582 -0.1768 -0.0438  0.2137
   37BDTP    C823688   6.593   9.482  10.453 -0.2000 -0.0415  0.2125
   37BDTP    S123689   6.712   9.618  10.430 -0.1855 -0.0581  0.1898
   37BDTP    C923690   6.931   9.754  10.909 -0.0578 -0.1043  0.1446
   37BDTP   C1023691   6.921   9.714  11.038 -0.0346 -0.1067  0.1458
   37BDTP    S223692   6.802   9.579  11.061 -0.0490 -0.0900  0.1685
   38FTM     S123693   6.440   9.331  10.839  0.0505 -0.2408  0.1077
   38FTM     C123694   6.471   9.176  10.926  0.2296 -0.0128  0.4584
   38FTM     C223695   6.597   9.177  10.978  0.2357  0.2427  0.4439
   38FTM     C323696   6.674   9.295  10.955  0.1044  0.2763  0.1660
   38FTM     C423697   6.606   9.388  10.882 -0.0056  0.0383 -0.0391
   38FTM     F123698   6.649   9.070  11.050  0.3605  0.4621  0.6816
   38FTM     C523699   6.355   9.078  10.913 -0.2645  0.1739 -0.4817
   38FTM     C623700   6.300   9.007  11.038 -0.1628 -0.0286 -1.0802
   38FTM     C723701   6.391   8.912  11.113 -0.9208  0.0294 -0.2826
   38FTM     C823702   6.425   8.786  11.026 -0.9878 -0.6019  0.1136
   38FTM     C923703   6.510   8.704  11.117  0.0584  0.2880 -0.3383
   38FTM    C1023704   6.540   8.569  11.044  0.3024 -0.5296  0.3832
   38FTM    C1123705   6.237   9.105  11.145 -0.1783 -0.4783 -0.0450
   38FTM    C1223706   6.134   9.211  11.108  0.7978 -0.0279 -0.7833
   39FTM     S123707   7.016   9.751  10.475 -0.2886  0.1809  0.0862
   39FTM     C123708   7.062   9.922  10.441 -0.5468  0.2691  0.1755
   39FTM     C223709   7.001  10.005  10.530 -0.4437  0.1040  0.4036
   39FTM     C323710   6.916   9.942  10.627 -0.1643 -0.0964  0.5201
   39FTM     C423711   6.913   9.807  10.612 -0.0499 -0.0843  0.3765
   39FTM     F123712   7.018  10.143  10.528 -0.5960  0.1244  0.5205
   39FTM     C523713   7.146   9.962  10.324  0.5731  0.7643  0.4121
   39FTM     C623714   7.098   9.916  10.184  0.9648  0.3270 -0.7914
   39FTM     C723715   6.964   9.966  10.139 -0.7607 -0.3055 -0.1488
   39FTM     C823716   6.832   9.900  10.180  0.0359 -0.8680 -0.6615
   39FTM     C923717   6.777   9.781  10.103 -0.2646 -0.3005 -0.2173
   39FTM    C1023718   6.755   9.811   9.955 -0.2620  0.1775  1.0723
   39FTM    C1123719   7.216   9.941  10.096 -0.8009 -0.1711 -0.5420
   39FTM    C1223720   7.215   9.894   9.952 -0.0994  0.1424 -0.4222
   40TPM     C123721   6.991   9.762  11.148 -0.1029  0.0674 -0.4410
   40TPM     C223722   7.012   9.693  11.263 -0.1781 -0.4356 -0.7224
   40TPM     C323723   7.087   9.766  11.362 -0.1618 -0.8943 -0.3863
   40TPM     C423724   7.122   9.891  11.322 -0.0742 -0.7411  0.1514
   40TPM     S123725   7.064   9.926  11.155 -0.0051  0.0002  0.2759
   41BDD     C123726   7.449  10.089  11.394 -0.0831  0.0516 -0.1565
   41BDD     C223727   7.392  10.068  11.517 -0.0952  0.0020 -0.1704
   41BDD     C323728   7.270   9.989  11.511 -0.0433 -0.0762 -0.2040
   41BDD     C423729   7.236   9.951  11.384  0.0079 -0.0851 -0.2150
   41BDD     S123730   7.354  10.011  11.263 -0.0056  0.0039 -0.1843
   41BDD     C523731   7.447  10.120  11.644 -0.1551  0.0246 -0.1535
   41BDD     C623732   7.192   9.955  11.632 -0.0461 -0.1393 -0.2238
   41BDD     O123733   7.087   9.887  11.627 -0.0012 -0.2067 -0.2527
   41BDD     O223734   7.552  10.188  11.649 -0.1999  0.0920 -0.1246
   41BDD     C723735   7.247  10.007  11.759 -0.1060 -0.1167 -0.2069
   41BDD     C823736   7.369  10.086  11.764 -0.1580 -0.0385 -0.1733
   41BDD     C923737   7.403  10.124  11.891 -0.2090 -0.0297 -0.1623
   41BDD     S223738   7.285  10.064  12.012 -0.1955 -0.1186 -0.1930
   41BDD    C1023739   7.190   9.986  11.881 -0.1180 -0.1663 -0.2209
   41BDD    C1123740   7.081   9.889  11.931  0.3168 -0.3735  0.1186
   41BDD    C1223741   6.960   9.955  12.004 -0.3129  0.6750  0.8895
   41BDD    C1323742   6.870  10.058  11.926  0.6002 -0.1118 -0.4331
   41BDD    C1423743   6.818  10.186  12.006 -0.1804  1.0555 -0.4789
   41BDD    C1523744   6.933  10.265  12.064  0.0687 -1.0136 -0.3557
   41BDD    C1623745   6.885  10.397  12.136 -0.1120  0.0426  0.0400
   41BDD    C1723746   6.877   9.857  12.085  0.3020  0.3750  0.5785
   41BDD    C1823747   6.947   9.773  12.192  0.2124  0.0201  0.2319
   41BDD    C1923748   7.531  10.195  11.936 -0.7080  0.2406  0.2193
   41BDD    C2023749   7.535  10.347  11.922 -0.2188  0.1782 -0.3266
   41BDD    C2123750   7.430  10.416  12.015  0.0620 -0.2735 -0.8210
   41BDD    C2223751   7.462  10.404  12.170  0.2634  0.6186  0.3380
   41BDD    C2323752   7.337  10.422  12.266 -0.5552 -0.6771  0.7274
   41BDD    C2423753   7.378  10.457  12.406  0.9410 -0.1371 -0.4678
   41BDD    C2523754   7.678  10.408  11.937 -0.1566 -0.2874  0.1787
   41BDD    C2623755   7.811  10.355  11.874  0.4342 -0.5293 -1.0039
   42TPM     C123756   7.575  10.150  11.349  0.0290  0.2934  0.3754
   42TPM     C223757   7.694  10.110  11.402  0.1681  0.5487  0.2619
   42TPM     C323758   7.807  10.135  11.316 -0.0051  0.5048  0.0168
   42TPM     C423759   7.774  10.194  11.198 -0.2765  0.2160 -0.0566
   42TPM     S123760   7.597  10.223  11.185 -0.3345 -0.0248  0.1799
   43BDTP    C123761   7.949  10.370  10.628 -0.1892  0.2213 -0.0305
   43BDTP    C223762   7.928  10.230  10.615 -0.0542  0.2107 -0.1443
   43BDTP    C323763   7.896  10.149  10.723 -0.0318  0.1020 -0.2191
   43BDTP    C423764   7.885  10.208  10.850 -0.1477 -0.0011 -0.1802
   43BDTP    C523765   7.907  10.349  10.862 -0.2828  0.0095 -0.0664
   43BDTP    C623766   7.938  10.430  10.754 -0.3051  0.1182  0.0084
   43BDTP    C723767   7.854  10.145  10.976 -0.1502 -0.1232 -0.2421
   43BDTP    C823768   7.850  10.229  11.082 -0.2789 -0.2037 -0.1810
   43BDTP    S123769   7.887  10.402  11.036 -0.4152 -0.1361 -0.0366
   43BDTP    C923770   7.981  10.434  10.501 -0.1868  0.3434  0.0313
   43BDTP   C1023771   7.984  10.349  10.396 -0.0581  0.4238 -0.0297
   43BDTP    S223772   7.947  10.177  10.441  0.0781  0.3563 -0.1741
   44FTM     S123773   8.000   9.888  10.787 -0.3516 -0.1177 -0.3332
   44FTM     C123774   7.902   9.746  10.736 -0.4936 -0.1165 -0.0665
   44FTM     C223775   7.795   9.787  10.663 -0.7980 -0.1010  0.3837
   44FTM     C323776   7.783   9.929  10.643 -0.9358 -0.0894  0.5448
   44FTM     C423777   7.884   9.998  10.703 -0.7305 -0.0962  0.2069
   44FTM     F123778   7.701   9.700  10.611 -0.9696 -0.0964  0.6766
   44FTM     C523779   7.961   9.609  10.758  0.2821 -0.2008  0.7864
   44FTM     C623780   7.905   9.511  10.862 -0.6962 -0.3345 -0.4027
   44FTM     C723781   7.867   9.552  11.004  0.8027 -0.3497  0.4261
   44FTM     C823782   7.749   9.653  11.019 -0.0738 -0.0923 -0.0500
   44FTM     C923783   7.730   9.723  11.150 -0.9208  0.1179 -0.0909
   44FTM    C1023784   7.609   9.815  11.151  0.3243  0.2632  0.3149
   44FTM    C1123785   7.974   9.371  10.845 -0.2025  0.1928 -0.2179
   44FTM    C1223786   7.917   9.246  10.919 -0.4799 -0.1166 -0.2079
   45FTM     S123787   7.812  10.680  10.739 -0.0547  0.0672 -0.1264
   45FTM     C123788   7.909  10.821  10.796 -0.1280 -0.0948  0.4119
   45FTM     C223789   8.031  10.779  10.838 -0.3688 -0.2791  0.9353
   45FTM     C323790   8.056  10.639  10.830 -0.5078 -0.3050  0.9492
   45FTM     C423791   7.950  10.570  10.779 -0.3687 -0.1349  0.4193
   45FTM     F123792   8.127  10.866  10.888 -0.4780 -0.4354  1.4327
   45FTM     C523793   7.848  10.959  10.789 -0.2172 -0.4342 -0.1951
   45FTM     C623794   7.747  10.994  10.893  0.2533  0.0271 -0.2268
   45FTM     C723795   7.647  11.105  10.857 -0.2994 -0.9217 -0.3591
   45FTM     C823796   7.552  11.087  10.739 -0.4685 -0.2987 -0.0104
   45FTM     C923797   7.453  10.971  10.740 -0.2671  0.1502 -0.0738
   45FTM    C1023798   7.367  10.956  10.618  0.9034 -0.6098  0.1010
   45FTM    C1123799   7.780  10.988  11.044  0.1632  0.8674 -0.4551
   45FTM    C1223800   7.893  11.075  11.092  0.2929 -0.6754 -0.5474
   46TPM     C123801   7.995  10.388  10.258  0.5064  0.0652  0.0596
   46TPM     C223802   8.027  10.312  10.149  1.0450 -0.0029  0.2604
   46TPM     C323803   8.023  10.384  10.025  0.9570 -0.2497  0.1178
   46TPM     C423804   7.989  10.515  10.038  0.3516 -0.3698 -0.1918
   46TPM     S123805   7.957  10.558  10.211 -0.1583 -0.1791 -0.3282
   47BDD     C123806   8.023  10.789   9.760  0.1110  0.0906  0.0811
   47BDD     C223807   7.889  10.763   9.772  0.1215  0.0386  0.0851
   47BDD     C323808   7.859  10.655   9.865  0.1643  0.0484  0.1104
   47BDD     C423809   7.971  10.600   9.922  0.1860  0.1077  0.1252
   47BDD     S123810   8.121  10.680   9.864  0.1543  0.1554  0.1087
   47BDD     C523811   7.783  10.837   9.699  0.0925 -0.0221  0.0659
   47BDD     C623812   7.721  10.610   9.893  0.1824 -0.0015  0.1188
   47BDD     O123813   7.696  10.517   9.973  0.2195  0.0069  0.1405
   47BDD     O223814   7.809  10.930   9.620  0.0556 -0.0305  0.0441
   47BDD     C723815   7.616  10.684   9.820  0.1534 -0.0621  0.0995
   47BDD     C823816   7.646  10.792   9.728  0.1106 -0.0719  0.0743
   47BDD     C923817   7.534  10.846   9.671  0.0888 -0.1313  0.0594
   47BDD     S223818   7.384  10.767   9.729  0.1205 -0.1790  0.0760
   47BDD    C1023819   7.482  10.658   9.832  0.1637 -0.1142  0.1035
   47BDD    C1123820   7.405  10.547   9.907  0.1925 -0.2048 -0.2247
   47BDD    C1223821   7.340  10.583  10.038  0.2154  0.0490  0.0818
   47BDD    C1323822   7.228  10.686  10.012  0.2438  0.3843 -0.3840
   47BDD    C1423823   7.176  10.750  10.138 -0.2368 -0.2149  0.0666
   47BDD    C1523824   7.049  10.825  10.116  0.0388  0.5016 -0.0014
   47BDD    C1623825   6.921  10.742  10.099 -0.3705  0.5245  0.6354
   47BDD    C1723826   7.332  10.471  10.140  0.4168 -0.5619 -0.4189
   47BDD    C1823827   7.240  10.349  10.118  0.5375 -0.2987  0.2383
   47BDD    C1923828   7.516  10.961   9.577  0.5282 -0.0583  0.1504
   47BDD    C2023829   7.514  10.917   9.430  0.4746  0.0521 -0.3262
   47BDD    C2123830   7.536  11.049   9.351 -0.3433 -0.1141  0.1218
   47BDD    C2223831   7.575  11.035   9.203  0.3654 -0.0461  0.3183
   47BDD    C2323832   7.710  10.983   9.162  0.3086 -0.8066 -0.4786
   47BDD    C2423833   7.717  10.953   9.013 -0.0055  0.2791 -0.1687
   47BDD    C2523834   7.392  10.830   9.375 -0.2801  0.6602 -0.4336
   47BDD    C2623835   7.254  10.893   9.367  0.3810 -0.0112 -0.3503
   48TPM     C123836   8.111  10.876   9.678  0.1207 -0.3489 -0.2496
   48TPM     C223837   8.244  10.849   9.661  0.0377 -0.5137 -0.6509
   48TPM     C323838   8.314  10.947   9.583 -0.0229 -0.4677 -0.6471
   48TPM     C423839   8.235  11.050   9.540  0.0143 -0.2679 -0.2428
   48TPM     S123840   8.065  11.030   9.596  0.1296 -0.1211  0.1672
   49BDTP    C123841   8.339  11.534   9.147 -0.0618  0.2005 -0.0942
   49BDTP    C223842   8.460  11.530   9.221 -0.0331  0.1934 -0.1411
   49BDTP    C323843   8.484  11.437   9.321  0.0131  0.1718 -0.1726
   49BDTP    C423844   8.384  11.342   9.349  0.0322  0.1563 -0.1571
   49BDTP    C523845   8.262  11.346   9.275  0.0036  0.1633 -0.1094
   49BDTP    C623846   8.238  11.440   9.175 -0.0426  0.1850 -0.0783
   49BDTP    C723847   8.386  11.236   9.448  0.0789  0.1329 -0.1828
   49BDTP    C823848   8.273  11.161   9.451  0.0870  0.1223 -0.1578
   49BDTP    S123849   8.149  11.214   9.330  0.0362  0.1402 -0.0975
   49BDTP    C923850   8.337  11.640   9.048 -0.1085  0.2238 -0.0679
   49BDTP   C1023851   8.449  11.715   9.045 -0.1166  0.2345 -0.0930
   49BDTP    S223852   8.574  11.662   9.166 -0.0657  0.2165 -0.1532
   50FTM     S123853   8.638  11.420   9.562 -0.0794 -0.0966  0.2273
   50FTM     C123854   8.814  11.389   9.540  0.0460  0.5840  0.2395
   50FTM     C223855   8.845  11.389   9.408  0.1264  1.0640  0.2542
   50FTM     C323856   8.736  11.413   9.318  0.0958  0.9351  0.2573
   50FTM     C423857   8.618  11.431   9.383 -0.0110  0.3368  0.2439
   50FTM     F123858   8.974  11.368   9.361  0.2317  1.6488  0.2658
   50FTM     C523859   8.902  11.346   9.656 -0.1660 -0.2100 -0.2400
   50FTM     C623860   8.959  11.445   9.761  0.3323 -0.2044  0.0799
   50FTM     C723861   9.064  11.533   9.694  0.1943  0.2095  0.2294
   50FTM     C823862   9.204  11.466   9.695  0.3272  0.1292  0.3271
   50FTM     C923863   9.284  11.531   9.589 -0.4457  0.4432 -0.1707
   50FTM    C1023864   9.418  11.459   9.568  0.0609  0.5952  1.0936
   50FTM    C1123865   8.849  11.528   9.830  0.6067 -0.2017 -0.3245
   50FTM    C1223866   8.884  11.590   9.959 -0.4375 -0.7653 -0.0999
   51FTM     S123867   8.021  11.584   9.070  0.1041  0.0293  0.5102
   51FTM     C123868   7.906  11.494   8.964  0.2537  0.3252  0.0945
   51FTM     C223869   7.944  11.363   8.955  0.4140  0.4014 -0.4284
   51FTM     C323870   8.061  11.326   9.029  0.4301  0.2384 -0.5350
   51FTM     C423871   8.115  11.432   9.096  0.2769  0.0304 -0.0790
   51FTM     F123872   7.874  11.270   8.880  0.5559  0.6234 -0.8414
   51FTM     C523873   7.794  11.572   8.905 -0.5214  0.2446 -0.3291
   51FTM     C623874   7.818  11.660   8.780  0.2687  0.1012  0.6270
   51FTM     C723875   7.838  11.581   8.649 -0.3669  0.3939 -0.3691
   51FTM     C823876   7.715  11.533   8.587  0.2575 -0.3903 -0.2392
   51FTM     C923877   7.724  11.434   8.474  0.5923 -0.0908  0.1862
   51FTM    C1023878   7.834  11.441   8.361 -0.2455  0.0495  0.0521
   51FTM    C1123879   7.897  11.787   8.801 -0.5892 -0.1435 -0.6739
   51FTM    C1223880   7.905  11.887   8.691  0.4363 -0.2043  0.1584
   52TPM     C123881   8.479  11.824   8.964  0.3503 -0.4110  0.2183
   52TPM     C223882   8.428  11.831   8.838  0.3245 -0.8924  0.1955
   52TPM     C323883   8.453  11.957   8.773 -0.0143 -0.9995 -0.1493
   52TPM     C423884   8.524  12.046   8.849 -0.2469 -0.5998 -0.3899
   52TPM     S123885   8.564  11.976   9.011 -0.0545 -0.0528 -0.1976
   53BDD     C123886   8.758  12.338   8.725  0.0088  0.1943  0.2317
   53BDD     C223887   8.635  12.362   8.670  0.0129  0.1747  0.2139
   53BDD     C323888   8.534  12.265   8.707  0.0451  0.1099  0.1292
   53BDD     C423889   8.582  12.166   8.789  0.0652  0.0809  0.0834
   53BDD     S123890   8.755  12.190   8.827  0.0451  0.1330  0.1433
   53BDD     C523891   8.606  12.477   8.582 -0.0126  0.2149  0.2744
   53BDD     C623892   8.395  12.272   8.658  0.0546  0.0789  0.0968
   53BDD     O123893   8.308  12.187   8.690  0.0823  0.0229  0.0238
   53BDD     O223894   8.693  12.562   8.550 -0.0405  0.2708  0.3474
   53BDD     C723895   8.366  12.387   8.570  0.0291  0.1191  0.1571
   53BDD     C823896   8.467  12.485   8.533 -0.0031  0.1839  0.2420
   53BDD     C923897   8.420  12.583   8.450 -0.0231  0.2128  0.2875
   53BDD     S223898   8.246  12.559   8.413 -0.0032  0.1608  0.2277
   53BDD    C1023899   8.243  12.411   8.514  0.0331  0.0995  0.1395
   53BDD    C1123900   8.118  12.334   8.516 -0.4363 -0.1335 -0.7426
   53BDD    C1223901   7.994  12.376   8.599 -0.3476  0.0550  0.3733
   53BDD    C1323902   8.024  12.390   8.752 -0.1502 -0.1260  0.4776
   53BDD    C1423903   8.035  12.264   8.838  0.1544 -0.1981 -0.1754
   53BDD    C1523904   8.079  12.287   8.978 -0.5818 -0.4743 -0.3980
   53BDD    C1623905   8.089  12.159   9.063  0.4557 -0.3394 -0.2841
   53BDD    C1723906   7.879  12.279   8.554 -0.3313 -0.3625 -0.4799
   53BDD    C1823907   7.739  12.321   8.609 -0.0436  0.7021  0.0353
   53BDD    C1923908   8.479  12.704   8.380  0.4496  0.3111 -0.3012
   53BDD    C2023909   8.497  12.696   8.229 -0.0554  0.4240  0.5820
   53BDD    C2123910   8.523  12.838   8.179  0.5970 -0.5554  0.5313
   53BDD    C2223911   8.474  12.881   8.038  1.3028  0.0151 -0.0918
   53BDD    C2323912   8.324  12.891   8.027 -0.5041  0.0366  0.2193
   53BDD    C2423913   8.282  12.954   7.893 -0.2637  0.1726 -0.3378
   53BDD    C2523914   8.590  12.592   8.160  0.5534 -0.2728 -0.2789
   53BDD    C2623915   8.735  12.604   8.216  0.3396  0.1483  0.4130
   54TPM     C123916   8.895  12.406   8.727 -0.2829  0.3958  0.3454
   54TPM     C223917   8.921  12.537   8.701 -0.0427  0.3680  0.4375
   54TPM     C323918   9.060  12.573   8.712  0.0494  0.0627  0.2789
   54TPM     C423919   9.140  12.468   8.747 -0.1212 -0.1423  0.0664
   54TPM     S123920   9.045  12.316   8.769 -0.4130  0.0359  0.0490
   55BDTP    C123921   9.751  12.547   8.867  0.0460  0.0368  0.0935
   55BDTP    C223922   9.711  12.452   8.966 -0.0191  0.0472  0.0772
   55BDTP    C323923   9.582  12.404   8.977 -0.0529  0.1364  0.0708
   55BDTP    C423924   9.486  12.451   8.885 -0.0212  0.2193  0.0799
   55BDTP    C523925   9.525  12.545   8.786  0.0439  0.2089  0.0961
   55BDTP    C623926   9.655  12.594   8.775  0.0777  0.1197  0.1027
   55BDTP    C723927   9.346  12.415   8.876 -0.0460  0.3191  0.0757
   55BDTP    C823928   9.279  12.478   8.776 -0.0038  0.3833  0.0873
   55BDTP    S123929   9.384  12.590   8.679  0.0739  0.3264  0.1056
   55BDTP    C923930   9.891  12.582   8.876  0.0711 -0.0631  0.0980
   55BDTP   C1023931   9.958  12.520   8.976  0.0286 -0.1273  0.0863
   55BDTP    S223932   9.853  12.407   9.072 -0.0493 -0.0704  0.0680
   56FTM     S123933   9.394  12.342   9.185 -0.4102  0.0042 -0.1062
   56FTM     C123934   9.407  12.179   9.261 -0.3520 -0.0270 -0.1840
   56FTM     C223935   9.509  12.109   9.204 -0.1154  0.1593  0.0138
   56FTM     C323936   9.583  12.178   9.102  0.0308  0.3335  0.2317
   56FTM     C423937   9.534  12.303   9.079 -0.0970  0.2788  0.2008
   56FTM     F123938   9.543  11.980   9.242 -0.0184  0.1830  0.0083
   56FTM     C523939   9.296  12.138   9.357 -0.3713  0.1249 -0.2211
   56FTM     C623940   9.169  12.089   9.273  0.1920  0.4701 -0.8033
   56FTM     C723941   9.187  11.957   9.191 -0.2940 -0.1760 -0.4463
   56FTM     C823942   9.228  11.822   9.262 -0.1221  0.4047 -0.9086
   56FTM     C923943   9.130  11.765   9.369  0.4417 -0.0291  0.2214
   56FTM    C1023944   9.001  11.700   9.319  0.5850  0.2822  0.0276
   56FTM    C1123945   9.067  12.193   9.228 -0.2402  0.0984 -0.1354
   56FTM    C1223946   8.949  12.168   9.130  0.4298 -0.0875  0.6021
   57FTM     S123947   9.819  12.681   8.553 -0.2319 -0.1193 -0.1893
   57FTM     C123948   9.781  12.846   8.492 -0.0105 -0.1279 -0.3519
   57FTM     C223949   9.673  12.896   8.558  0.0648  0.0871 -0.3929
   57FTM     C323950   9.616  12.812   8.659 -0.0427  0.2674 -0.3021
   57FTM     C423951   9.681  12.693   8.670 -0.2053  0.1878 -0.1882
   57FTM     F123952   9.621  13.022   8.532  0.2353  0.1335 -0.5145
   57FTM     C523953   9.859  12.902   8.373  0.4777  0.1263  0.1666
   57FTM     C623954   9.785  12.919   8.233 -0.0603  0.2578 -0.5931
   57FTM     C723955   9.670  13.019   8.225  0.5858 -0.7625  0.7581
   57FTM     C823956   9.707  13.170   8.259 -0.1775 -0.2827  0.1086
   57FTM     C923957   9.816  13.239   8.166  0.5130 -0.1361  0.4098
   57FTM    C1023958   9.773  13.260   8.019 -0.6684  0.5595  0.1327
   57FTM    C1123959   9.770  12.789   8.157  0.6784  0.3826  0.3013
   57FTM    C1223960   9.879  12.683   8.141  0.1981 -0.0470  0.1477
   58TPM     C123961  10.097  12.530   9.008  0.0185 -0.0768  0.1626
   58TPM     C223962  10.182  12.635   8.986 -0.0270  0.0269  0.4668
   58TPM     C323963  10.317  12.609   9.026 -0.0342  0.0012  0.4745
   58TPM     C423964  10.336  12.484   9.079  0.0057 -0.1222  0.1759
   58TPM     S123965  10.182  12.390   9.082  0.0559 -0.2161 -0.1406
   59BDD     C123966  10.727  12.472   9.143  0.0110  0.0334  0.0960
   59BDD     C223967  10.680  12.354   9.192  0.0520 -0.0072  0.0381
   59BDD     C323968  10.536  12.340   9.182  0.0635 -0.0798 -0.0274
   59BDD     C423969  10.475  12.448   9.124  0.0310 -0.0934 -0.0188
   59BDD     S123970  10.594  12.575   9.079 -0.0161 -0.0163  0.0722
   59BDD     C523971  10.766  12.249   9.251  0.0822  0.0191  0.0415
   59BDD     C623972  10.463  12.220   9.229  0.1061 -0.1330 -0.0963
   59BDD     O123973  10.339  12.209   9.220  0.1160 -0.1956 -0.1528
   59BDD     O223974  10.890  12.260   9.260  0.0724  0.0817  0.0982
   59BDD     C723975  10.549  12.115   9.288  0.1363 -0.1066 -0.0932
   59BDD     C823976  10.693  12.129   9.298  0.1249 -0.0341 -0.0274
   59BDD     C923977  10.754  12.021   9.356  0.1573 -0.0204 -0.0362
   59BDD     S223978  10.635  11.894   9.400  0.2044 -0.0976 -0.1271
   59BDD    C1023979  10.502  11.997   9.337  0.1773 -0.1473 -0.1512
   59BDD    C1123980  10.367  11.930   9.356  0.1117 -0.6302 -0.2784
   59BDD    C1223981  10.271  12.001   9.453  0.3441 -0.5791  1.3034
   59BDD    C1323982  10.129  11.946   9.445 -0.6152  0.2300  0.1391
   59BDD    C1423983  10.052  11.918   9.313  0.2394  0.1315 -0.8301
   59BDD    C1523984  10.014  12.044   9.240  0.0147 -0.2153  0.3614
   59BDD    C1623985   9.919  12.025   9.122 -0.1465  0.0744 -0.3127
   59BDD    C1723986  10.325  12.007   9.598  0.4577  0.2000 -0.3683
   59BDD    C1823987  10.263  12.087   9.706  0.0264 -0.4368  0.0592
   59BDD    C1923988  10.893  11.988   9.402 -0.0426 -0.1504 -0.1391
   59BDD    C2023989  10.967  11.880   9.315  0.4922 -1.5313  0.1488
   59BDD    C2123990  10.931  11.736   9.352  0.0845  0.0268  0.5736
   59BDD    C2223991  10.952  11.630   9.240 -0.5295  0.1216  0.2102
   59BDD    C2323992  10.877  11.646   9.111 -0.0298  0.2717 -0.2217
   59BDD    C2423993  10.917  11.551   8.993  0.8329 -0.6598 -0.5264
   59BDD    C2523994  11.117  11.922   9.293 -0.2290 -0.2552 -0.2196
   59BDD    C2623995  11.201  11.857   9.178  0.1249 -0.1478 -0.4917
   60TPM     C123996  10.857  12.546   9.129  0.0331  0.1402  0.5816
   60TPM     C223997  10.868  12.681   9.112  0.0542  0.1605  0.7555
   60TPM     C323998  11.004  12.727   9.101  0.0473  0.1009  0.3943
   60TPM     C423999  11.097  12.628   9.110  0.0210  0.0351 -0.0547
   60TPM     S124000  11.019  12.466   9.132  0.0027  0.0436 -0.0568
    1BDTP    C124001   3.494   1.868   3.093  0.0740  0.0180  0.2187
    1BDTP    C224002   3.414   1.765   3.149  0.1361 -0.0928  0.1033
    1BDTP    C324003   3.283   1.741   3.108  0.1562 -0.1378  0.0644
    1BDTP    C424004   3.229   1.824   3.008  0.1131 -0.0705  0.1429
    1BDTP    C524005   3.309   1.927   2.952  0.0510  0.0404  0.2583
    1BDTP    C624006   3.440   1.951   2.993  0.0309  0.0854  0.2972
    1BDTP    C724007   3.096   1.818   2.950  0.1232 -0.0988  0.1225
    1BDTP    C824008   3.073   1.912   2.855  0.0722 -0.0157  0.2158
    1BDTP    S124009   3.217   2.020   2.825  0.0043  0.1103  0.3427
    1BDTP    C924010   3.627   1.874   3.151  0.0640  0.0464  0.2391
    1BDTP   C1024011   3.650   1.780   3.246  0.1150 -0.0368  0.1458
    1BDTP    S224012   3.507   1.672   3.276  0.1828 -0.1627  0.0189
    2FTM     S124013   3.072   1.547   3.096 -0.0617  0.0132 -0.1270
    2FTM     C124014   3.028   1.467   3.251 -0.3305  0.2448 -0.0816
    2FTM     C224015   3.104   1.516   3.352 -0.5300  0.4210 -0.0148
    2FTM     C324016   3.200   1.617   3.316 -0.4869  0.3875  0.0048
    2FTM     C424017   3.196   1.646   3.183 -0.2468  0.1788 -0.0489
    2FTM     F124018   3.093   1.473   3.483 -0.7632  0.6231  0.0327
    2FTM     C524019   2.917   1.372   3.262 -0.1491 -0.5259 -0.7611
    2FTM     C624020   2.775   1.432   3.244  0.4576 -0.1230 -0.0591
    2FTM     C724021   2.715   1.480   3.107  0.4813 -0.4522 -0.2801
    2FTM     C824022   2.718   1.383   2.991  0.4203 -0.1911  0.6641
    2FTM     C924023   2.668   1.431   2.851 -0.2922  0.1937  0.3067
    2FTM    C1024024   2.678   1.325   2.733  0.0279 -0.0243 -0.1576
    2FTM    C1124025   2.713   1.517   3.352  0.4769 -0.1704  0.1961
    2FTM    C1224026   2.738   1.493   3.504 -0.2460  0.2663 -0.3924
    3FTM     S124027   3.675   2.087   2.880  0.0371 -0.1590 -0.3095
    3FTM     C124028   3.662   2.267   2.883 -0.2306 -0.1753 -0.4860
    3FTM     C224029   3.541   2.303   2.935 -0.2874 -0.3036 -0.5273
    3FTM     C324030   3.455   2.196   2.974 -0.1299 -0.3949 -0.4267
    3FTM     C424031   3.510   2.074   2.952  0.0533 -0.3345 -0.3043
    3FTM     F124032   3.502   2.435   2.950 -0.4852 -0.3461 -0.6588
    3FTM     C524033   3.771   2.364   2.846  0.1240 -0.0724 -0.3692
    3FTM     C624034   3.799   2.402   2.696 -0.6334 -0.4835 -0.0364
    3FTM     C724035   3.682   2.470   2.622 -0.2853  0.8093 -0.0756
    3FTM     C824036   3.620   2.594   2.684 -0.3342  0.1253  0.5496
    3FTM     C924037   3.492   2.635   2.613 -0.1834 -0.4305  0.4552
    3FTM    C1024038   3.422   2.751   2.686 -0.0856 -0.3135  0.4921
    3FTM    C1124039   3.859   2.297   2.600 -0.4380  1.0725  0.1282
    3FTM    C1224040   3.987   2.225   2.647  0.1105  0.2532  0.4476
    4TPM     C124041   3.771   1.769   3.324 -0.0188  0.6734 -0.3282
    4TPM     C224042   3.783   1.715   3.449 -0.1466  0.7941 -0.2642
    4TPM     C324043   3.917   1.716   3.500 -0.1850  0.7631 -0.1624
    4TPM     C424044   4.009   1.770   3.414 -0.0865  0.6188 -0.1487
    4TPM     S124045   3.931   1.824   3.261  0.0637  0.5100 -0.2643
    5BDD     C124046   4.369   1.646   3.505 -0.1459  0.0246  0.2716
    5BDD     C224047   4.384   1.774   3.457 -0.1149  0.0085  0.2383
    5BDD     C324048   4.258   1.836   3.420 -0.0793 -0.0475  0.0226
    5BDD     C424049   4.149   1.756   3.439 -0.0835 -0.0734 -0.1054
    5BDD     S124050   4.197   1.596   3.506 -0.1324 -0.0294  0.0353
    5BDD     C524051   4.514   1.842   3.445 -0.1172  0.0441  0.4035
    5BDD     C624052   4.251   1.974   3.366 -0.0422 -0.0734 -0.0487
    5BDD     O124053   4.142   2.028   3.334 -0.0114 -0.1217 -0.2347
    5BDD     O224054   4.622   1.788   3.477 -0.1481  0.0924  0.5894
    5BDD     C724055   4.381   2.042   3.353 -0.0443 -0.0378  0.1166
    5BDD     C824056   4.506   1.980   3.391 -0.0800  0.0182  0.3322
    5BDD     C924057   4.615   2.060   3.371 -0.0759  0.0441  0.4603
    5BDD     S224058   4.568   2.220   3.304 -0.0270  0.0002  0.3195
    5BDD    C1024059   4.396   2.170   3.306 -0.0135 -0.0538  0.0833
    5BDD    C1124060   4.291   2.282   3.280 -0.0881  0.3399  0.3274
    5BDD    C1224061   4.289   2.360   3.148  0.4110  0.0694 -0.1397
    5BDD    C1324062   4.397   2.455   3.106 -0.0372  0.0024  0.6069
    5BDD    C1424063   4.434   2.571   3.195 -0.0959 -0.0542  0.3589
    5BDD    C1524064   4.543   2.651   3.127 -0.0190  0.2687  0.0460
    5BDD    C1624065   4.567   2.800   3.170  0.4064 -0.1371 -0.0093
    5BDD    C1724066   4.244   2.276   3.027 -0.3590  0.0559 -0.4841
    5BDD    C1824067   4.109   2.196   3.031 -0.4208  0.7364 -0.2220
    5BDD    C1924068   4.765   2.053   3.394 -0.0263  0.3888 -0.2658
    5BDD    C2024069   4.811   2.116   3.529  0.1125 -0.4160 -0.6900
    5BDD    C2124070   4.965   2.137   3.536  0.1346 -0.5025 -0.0130
    5BDD    C2224071   5.040   2.001   3.536  0.2605 -0.0808 -0.0596
    5BDD    C2324072   5.186   2.021   3.571 -0.6737 -0.0659  0.0587
    5BDD    C2424073   5.270   1.896   3.580 -0.1987  0.4320  0.1575
    5BDD    C2524074   4.750   2.034   3.650 -0.3977  0.1094  0.5421
    5BDD    C2624075   4.727   2.100   3.785 -0.5555  0.7261 -0.1013
    6TPM     C124076   4.451   1.543   3.558  0.3654  0.0966 -0.1162
    6TPM     C224077   4.559   1.563   3.638  0.4034  0.0866 -0.1647
    6TPM     C324078   4.618   1.442   3.689  0.1793  0.0928  0.1196
    6TPM     C424079   4.555   1.329   3.646 -0.0299  0.1075  0.3849
    6TPM     S124080   4.415   1.367   3.539  0.0408  0.1148  0.2956
    7BDTP    C124081   4.774   0.752   3.769 -0.0722 -0.1039  0.1535
    7BDTP    C224082   4.645   0.725   3.715 -0.0906 -0.0614  0.1764
    7BDTP    C324083   4.560   0.825   3.671 -0.1074 -0.0255  0.2880
    7BDTP    C424084   4.604   0.958   3.679 -0.1059 -0.0318  0.3816
    7BDTP    C524085   4.733   0.985   3.733 -0.0876 -0.0743  0.3587
    7BDTP    C624086   4.818   0.885   3.777 -0.0707 -0.1102  0.2472
    7BDTP    C724087   4.533   1.078   3.639 -0.1211  0.0004  0.5045
    7BDTP    C824088   4.603   1.193   3.660 -0.1154 -0.0157  0.5741
    7BDTP    S124089   4.767   1.165   3.733 -0.0894 -0.0739  0.4938
    7BDTP    C924090   4.844   0.632   3.809 -0.0567 -0.1361  0.0306
    7BDTP   C1024091   4.775   0.517   3.788 -0.0627 -0.1200 -0.0389
    7BDTP    S224092   4.611   0.545   3.715 -0.0888 -0.0618  0.0414
    8FTM     S124093   4.403   0.813   3.442  0.1018 -0.0900  0.1188
    8FTM     C124094   4.229   0.768   3.461  0.1003 -0.2463 -0.2471
    8FTM     C224095   4.203   0.739   3.591 -0.0937 -0.5030 -0.3411
    8FTM     C324096   4.314   0.750   3.682 -0.2493 -0.5915 -0.1392
    8FTM     C424097   4.428   0.789   3.619 -0.1719 -0.3963  0.1178
    8FTM     F124098   4.078   0.701   3.636 -0.1419 -0.6729 -0.6155
    8FTM     C524099   4.146   0.771   3.338 -0.6407 -0.1831 -0.3473
    8FTM     C624100   4.077   0.902   3.315  0.2013 -0.3382  0.6767
    8FTM     C724101   4.168   1.025   3.292  0.5476 -0.4814  0.4546
    8FTM     C824102   4.269   1.015   3.175 -0.2021  0.4295  0.0690
    8FTM     C924103   4.222   1.017   3.027  0.9190 -0.7766 -0.1121
    8FTM    C1024104   4.329   0.993   2.926 -0.0619  0.7663 -0.0631
    8FTM    C1124105   3.952   0.928   3.398 -0.2027  0.1034 -0.3012
    8FTM    C1224106   3.841   0.827   3.380 -0.1889 -0.0735 -0.3001
    9FTM     S124107   5.071   1.006   3.718 -0.0145 -0.1743  0.2079
    9FTM     C124108   5.183   1.025   3.858 -0.0809 -0.1004  0.2514
    9FTM     C224109   5.132   0.962   3.967 -0.1829  0.0454  0.2894
    9FTM     C324110   5.006   0.896   3.949 -0.2147  0.1073  0.2871
    9FTM     C424111   4.959   0.910   3.822 -0.1346  0.0054  0.2458
    9FTM     F124112   5.197   0.959   4.089 -0.2532  0.1317  0.3288
    9FTM     C524113   5.308   1.117   3.846  0.2282 -0.7359  0.3303
    9FTM     C624114   5.316   1.248   3.931  0.1682 -0.3183  0.4054
    9FTM     C724115   5.205   1.351   3.927  0.3394 -0.4380  0.2564
    9FTM     C824116   5.144   1.398   3.791 -0.3870  0.2315 -0.3235
    9FTM     C924117   5.010   1.452   3.792  0.4501  0.5112  0.1813
    9FTM    C1024118   4.972   1.514   3.660 -0.1765  0.2273  0.2677
    9FTM    C1124119   5.457   1.308   3.920 -0.2576 -0.2505 -0.1793
    9FTM    C1224120   5.499   1.433   4.003 -0.7901  0.6210 -0.0866
   10TPM     C124121   4.822   0.388   3.834 -0.2102  0.3688  0.8099
   10TPM     C224122   4.754   0.269   3.832 -0.3383  0.4282  1.2247
   10TPM     C324123   4.822   0.163   3.901 -0.1074  0.4235  0.9960
   10TPM     C424124   4.940   0.200   3.957  0.1967  0.3606  0.4070
   10TPM     S124125   4.977   0.374   3.926  0.2151  0.3019  0.0929
   11BDD     C124126   5.016  -0.115   4.182 -0.1683  0.0201  0.3249
   11BDD     C224127   5.094  -0.015   4.233 -0.1154 -0.0024  0.2880
   11BDD     C324128   5.081   0.111   4.161  0.1270 -0.0849  0.0969
   11BDD     C424129   4.993   0.104   4.056  0.2551 -0.1237 -0.0093
   11BDD     S124130   4.920  -0.059   4.041  0.0813 -0.0598  0.1229
   11BDD     C524131   5.183  -0.031   4.349 -0.2856  0.0510  0.4272
   11BDD     C624132   5.156   0.232   4.199  0.2224 -0.1218  0.0263
   11BDD     O124133   5.145   0.340   4.137  0.4313 -0.1929 -0.1385
   11BDD     O224134   5.195  -0.140   4.411 -0.4946  0.1221  0.5921
   11BDD     C724135   5.246   0.216   4.315  0.0523 -0.0684  0.1655
   11BDD     C824136   5.259   0.090   4.387 -0.1900  0.0141  0.3568
   11BDD     C924137   5.347   0.096   4.491 -0.3183  0.0532  0.4630
   11BDD     S224138   5.419   0.259   4.507 -0.1445 -0.0108  0.3307
   11BDD    C1024139   5.324   0.316   4.366  0.1053 -0.0908  0.1287
   11BDD    C1124140   5.357   0.451   4.316 -0.3143  0.0737  0.2673
   11BDD    C1224141   5.311   0.572   4.397 -0.5276 -0.0302 -0.4193
   11BDD    C1324142   5.367   0.707   4.347 -0.3685 -0.4942 -0.0499
   11BDD    C1424143   5.518   0.720   4.319 -0.1952 -1.2939 -0.1756
   11BDD    C1524144   5.615   0.720   4.444 -0.1886  0.5661  0.3417
   11BDD    C1624145   5.764   0.748   4.409 -0.2049  0.9189  0.2457
   11BDD    C1724146   5.156   0.580   4.427  0.2671  0.6158 -0.3388
   11BDD    C1824147   5.064   0.623   4.308 -0.0172  0.1165 -0.2388
   11BDD    C1924148   5.410   0.000   4.595  0.1474  0.0536 -0.0074
   11BDD    C2024149   5.482  -0.125   4.544  0.1943 -0.2752 -0.3964
   11BDD    C2124150   5.499  -0.239   4.644  0.4835  0.3726  0.2102
   11BDD    C2224151   5.599  -0.223   4.761  0.1210  0.3542 -0.0332
   11BDD    C2324152   5.579  -0.312   4.884  0.0166 -0.6224  0.3819
   11BDD    C2424153   5.695  -0.272   4.976  0.5970 -0.4565  0.1082
   11BDD    C2524154   5.614  -0.089   4.475 -0.6161 -0.3019 -0.1286
   11BDD    C2624155   5.683  -0.195   4.386 -0.4740  0.2524  0.0759
   12TPM     C124156   4.969  -0.245   4.220 -0.2088  0.3862 -0.5360
   12TPM     C224157   5.056  -0.348   4.244 -0.0491  0.5031 -0.6125
   12TPM     C324158   4.991  -0.474   4.270  0.1358  0.4959 -0.1730
   12TPM     C424159   4.855  -0.467   4.267  0.1171  0.3732  0.2385
   12TPM     S124160   4.798  -0.300   4.230 -0.1377  0.2569  0.1019
   13BDTP    C124161   4.417  -0.896   4.412 -0.0421 -0.2494 -0.1863
   13BDTP    C224162   4.530  -0.940   4.487 -0.1173 -0.1295 -0.0030
   13BDTP    C324163   4.652  -0.874   4.484 -0.1471 -0.0701  0.1012
   13BDTP    C424164   4.664  -0.759   4.403 -0.1009 -0.1307  0.0212
   13BDTP    C524165   4.551  -0.716   4.328 -0.0257 -0.2506 -0.1620
   13BDTP    C624166   4.429  -0.782   4.331  0.0041 -0.3103 -0.2664
   13BDTP    C724167   4.780  -0.675   4.385 -0.1192 -0.0873  0.1022
   13BDTP    C824168   4.760  -0.571   4.300 -0.0626 -0.1674 -0.0101
   13BDTP    S124169   4.591  -0.566   4.232  0.0224 -0.3095 -0.2342
   13BDTP    C924170   4.301  -0.981   4.430 -0.0237 -0.2930 -0.2673
   13BDTP   C1024171   4.321  -1.085   4.515 -0.0806 -0.2129 -0.1550
   13BDTP    S224172   4.490  -1.090   4.583 -0.1654 -0.0711  0.0692
   14FTM     S124173   4.897  -1.026   4.502  0.1622  0.1206  0.0356
   14FTM     C124174   4.983  -1.020   4.661  0.0803 -0.1233  0.0903
   14FTM     C224175   4.911  -0.945   4.749  0.1158 -0.1211  0.1174
   14FTM     C324176   4.788  -0.890   4.700  0.2065  0.0658  0.0979
   14FTM     C424177   4.765  -0.923   4.570  0.2419  0.2114  0.0542
   14FTM     F124178   4.953  -0.923   4.880  0.0679 -0.2885  0.1616
   14FTM     C524179   5.115  -1.082   4.676  0.0862  0.1193 -0.4671
   14FTM     C624180   5.243  -1.018   4.620  0.0665 -0.1519  0.3072
   14FTM     C724181   5.288  -0.876   4.669  0.6160 -0.2566  0.8820
   14FTM     C824182   5.296  -0.857   4.822 -0.4833 -0.2049 -0.5435
   14FTM     C924183   5.374  -0.736   4.875 -0.1971 -0.2670  0.6086
   14FTM    C1024184   5.385  -0.733   5.025 -0.3670  0.3203 -0.3908
   14FTM    C1124185   5.250  -1.020   4.466 -0.3944  0.2388 -0.1491
   14FTM    C1224186   5.228  -1.149   4.381 -1.1701 -0.2233 -0.4596
   15FTM     S124187   4.213  -0.818   4.148 -0.0648  0.0841  0.0377
   15FTM     C124188   4.104  -0.677   4.126 -0.4089 -0.1757  0.0544
   15FTM     C224189   4.147  -0.572   4.202 -0.3887  0.0696 -0.2891
   15FTM     C324190   4.264  -0.596   4.280 -0.1110  0.4652 -0.5791
   15FTM     C424191   4.313  -0.722   4.264  0.0876  0.5244 -0.4538
   15FTM     F124192   4.082  -0.450   4.205 -0.6201 -0.0491 -0.3612
   15FTM     C524193   3.990  -0.679   4.025 -0.1953  0.1953 -0.1325
   15FTM     C624194   4.005  -0.676   3.873 -0.0163  0.3502  0.0365
   15FTM     C724195   4.122  -0.753   3.807  0.2782 -0.5006 -0.0805
   15FTM     C824196   4.141  -0.903   3.838 -0.4939  0.9250  0.5056
   15FTM     C924197   4.020  -0.987   3.811  0.2494  0.2348 -0.3486
   15FTM    C1024198   4.045  -1.129   3.837 -0.1711  0.3180 -0.4357
   15FTM    C1124199   3.867  -0.672   3.810  0.4407  0.7796  0.6340
   15FTM    C1224200   3.866  -0.633   3.660  0.6555  0.7617  0.6311
   16TPM     C124201   4.231  -1.184   4.562  0.1324  0.2079  0.3778
   16TPM     C224202   4.256  -1.292   4.641  0.2316  0.1922  0.3257
   16TPM     C324203   4.137  -1.363   4.682  0.3047 -0.0179  0.1791
   16TPM     C424204   4.022  -1.309   4.634  0.2613 -0.1624  0.1191
   16TPM     S124205   4.054  -1.163   4.532  0.1238 -0.0434  0.2446
   17BDD     C124206   3.638  -1.393   4.598  0.0266  0.1436  0.0289
   17BDD     C224207   3.674  -1.453   4.715  0.0259  0.1571  0.0358
   17BDD     C324208   3.813  -1.430   4.752  0.0240  0.1664  0.0370
   17BDD     C424209   3.881  -1.354   4.661  0.0232  0.1598  0.0310
   17BDD     S124210   3.776  -1.305   4.524  0.0248  0.1416  0.0235
   17BDD     C524211   3.582  -1.533   4.799  0.0271  0.1614  0.0414
   17BDD     C624212   3.873  -1.485   4.875  0.0231  0.1810  0.0440
   17BDD     O124213   3.992  -1.466   4.906  0.0215  0.1891  0.0452
   17BDD     O224214   3.462  -1.552   4.768  0.0286  0.1535  0.0404
   17BDD     C724215   3.780  -1.565   4.959  0.0241  0.1857  0.0498
   17BDD     C824216   3.642  -1.588   4.922  0.0260  0.1764  0.0485
   17BDD     C924217   3.574  -1.664   5.013  0.0268  0.1827  0.0546
   17BDD     S224218   3.679  -1.713   5.150  0.0253  0.2008  0.0621
   17BDD    C1024219   3.816  -1.625   5.076  0.0235  0.1990  0.0567
   17BDD    C1124220   3.941  -1.625   5.167  0.3274 -0.8511  0.0111
   17BDD    C1224221   4.046  -1.736   5.154  0.1984 -0.7473 -0.0775
   17BDD    C1324222   4.181  -1.715   5.234 -0.4942 -0.1759 -0.0334
   17BDD    C1424223   4.227  -1.563   5.237 -0.0385  0.4833 -0.7602
   17BDD    C1524224   4.349  -1.552   5.329 -0.0548  1.0949  1.2529
   17BDD    C1624225   4.385  -1.412   5.361 -0.0696 -0.5309  0.5495
   17BDD    C1724226   3.988  -1.883   5.145 -0.0957 -0.2124 -0.1873
   17BDD    C1824227   3.932  -1.947   5.276 -0.2463 -0.1085 -0.5863
   17BDD    C1924228   3.425  -1.714   5.014 -0.3238 -0.5348 -0.3518
   17BDD    C2024229   3.394  -1.840   4.917 -0.8055 -0.0654  0.1744
   17BDD    C2124230   3.245  -1.868   4.917 -0.4132  0.2756  0.5397
   17BDD    C2224231   3.147  -1.771   4.853 -0.3983 -0.4703 -0.2761
   17BDD    C2324232   3.172  -1.727   4.713  0.1241 -0.4430  0.7949
   17BDD    C2424233   3.087  -1.603   4.669 -0.4369  0.2052  0.0659
   17BDD    C2524234   3.480  -1.966   4.944  0.0867 -0.6908  0.2985
   17BDD    C2624235   3.484  -2.041   5.075  0.3481  0.0474  0.0468
   18TPM     C124236   3.516  -1.367   4.524  0.2426 -0.1079 -0.0731
   18TPM     C224237   3.431  -1.472   4.503  0.4116 -0.2363 -0.1131
   18TPM     C324238   3.339  -1.452   4.395  0.1355 -0.1907  0.1272
   18TPM     C424239   3.353  -1.332   4.332 -0.2439 -0.0278  0.3507
   18TPM     S124240   3.485  -1.233   4.407 -0.2823  0.0820  0.2741
   19BDTP    C124241   2.976  -1.039   3.916  0.1659 -0.2301 -0.4026
   19BDTP    C224242   2.884  -1.122   3.987  0.0483  0.1161 -0.1423
   19BDTP    C324243   2.923  -1.208   4.089 -0.0530  0.2780  0.0353
   19BDTP    C424244   3.060  -1.212   4.122 -0.0380  0.0901 -0.0473
   19BDTP    C524245   3.151  -1.129   4.052  0.0796 -0.2558 -0.3074
   19BDTP    C624246   3.112  -1.043   3.950  0.1810 -0.4179 -0.4851
   19BDTP    C724247   3.124  -1.293   4.224 -0.1295  0.2032  0.1015
   19BDTP    C824248   3.258  -1.275   4.233 -0.0867 -0.0384 -0.0327
   19BDTP    S124249   3.321  -1.153   4.114  0.0753 -0.4425 -0.3664
   19BDTP    C924250   2.911  -0.958   3.815  0.2574 -0.3428 -0.5515
   19BDTP   C1024251   2.777  -0.976   3.806  0.2148 -0.1016 -0.4173
   19BDTP    S224252   2.714  -1.098   3.925  0.0526  0.3028 -0.0835
   20FTM     S124253   2.670  -1.261   4.211 -0.1519  0.2311 -0.0842
   20FTM     C124254   2.627  -1.435   4.234 -0.4359  0.2542 -0.4341
   20FTM     C224255   2.729  -1.514   4.190 -0.3505  0.1879 -0.1227
   20FTM     C324256   2.844  -1.446   4.137 -0.0659  0.1175  0.3949
   20FTM     C424257   2.829  -1.310   4.141  0.0711  0.1301  0.4825
   20FTM     F124258   2.724  -1.652   4.195 -0.5250  0.1874 -0.2873
   20FTM     C524259   2.502  -1.479   4.303  0.2563  0.6074 -0.3925
   20FTM     C624260   2.483  -1.464   4.456 -0.1102  0.1018 -0.1233
   20FTM     C724261   2.597  -1.515   4.547  0.0868  0.2515 -0.1359
   20FTM     C824262   2.619  -1.671   4.536 -0.2147 -0.0577  0.0041
   20FTM     C924263   2.738  -1.718   4.619 -0.5459 -0.0734  0.4815
   20FTM    C1024264   2.762  -1.873   4.599 -0.4542 -1.1188  0.1797
   20FTM    C1124265   2.426  -1.332   4.485 -0.2469 -0.1633 -0.2090
   20FTM    C1224266   2.399  -1.287   4.632  0.5272 -0.7202  0.2943
   21FTM     S124267   3.229  -0.911   3.718  0.2597 -0.1990 -0.3359
   21FTM     C124268   3.336  -0.771   3.756  0.1268  0.0745 -0.9380
   21FTM     C224269   3.352  -0.761   3.891  0.2715  0.5565 -0.9885
   21FTM     C324270   3.284  -0.859   3.970  0.4894  0.7381 -0.5720
   21FTM     C424271   3.213  -0.947   3.894  0.5122  0.3836 -0.1903
   21FTM     F124272   3.429  -0.662   3.950  0.2154  0.8616 -1.4148
   21FTM     C524273   3.388  -0.678   3.651  0.4165 -0.3350 -0.4492
   21FTM     C624274   3.289  -0.580   3.585 -0.5265  0.4578  0.0067
   21FTM     C724275   3.214  -0.493   3.682  0.4250 -0.1658 -0.9501
   21FTM     C824276   3.288  -0.402   3.779  0.0890  0.2815 -0.2670
   21FTM     C924277   3.200  -0.327   3.881  0.1851 -0.4154 -0.0053
   21FTM    C1024278   3.269  -0.209   3.953  0.0424 -0.0793 -0.5586
   21FTM    C1124279   3.210  -0.649   3.475  0.0082 -0.2301  0.0529
   21FTM    C1224280   3.111  -0.571   3.384 -0.3585 -0.0894  0.9375
   22TPM     C124281   2.686  -0.908   3.717  0.2272  0.0978 -0.2059
   22TPM     C224282   2.561  -0.949   3.682  0.4113 -0.1838 -0.5529
   22TPM     C324283   2.496  -0.862   3.587  0.4312 -0.2618 -0.6380
   22TPM     C424284   2.572  -0.755   3.550  0.2622 -0.0396 -0.3559
   22TPM     S124285   2.732  -0.756   3.632  0.0634  0.2878  0.0422
   23BDD     C124286   2.597  -0.499   3.257  0.0464 -0.0531 -0.0655
   23BDD     C224287   2.462  -0.512   3.281  0.0504 -0.0596 -0.0465
   23BDD     C324288   2.431  -0.606   3.387  0.0696 -0.0665 -0.0471
   23BDD     C424289   2.542  -0.665   3.442  0.0798 -0.0656 -0.0666
   23BDD     S124290   2.693  -0.605   3.366  0.0664 -0.0553 -0.0855
   23BDD     C524291   2.358  -0.437   3.207  0.0365 -0.0598 -0.0271
   23BDD     C624292   2.292  -0.636   3.429  0.0768 -0.0746 -0.0285
   23BDD     O124293   2.265  -0.717   3.520  0.0934 -0.0806 -0.0291
   23BDD     O224294   2.385  -0.356   3.116  0.0200 -0.0536 -0.0265
   23BDD     C724295   2.188  -0.561   3.355  0.0632 -0.0744 -0.0091
   23BDD     C824296   2.220  -0.467   3.249  0.0439 -0.0675 -0.0083
   23BDD     C924297   2.109  -0.408   3.194  0.0335 -0.0684  0.0110
   23BDD     S224298   1.958  -0.468   3.270  0.0471 -0.0786  0.0300
   23BDD    C1024299   2.054  -0.574   3.379  0.0671 -0.0808  0.0099
   23BDD    C1124300   1.968  -0.654   3.482 -0.3036  0.3373  0.1763
   23BDD    C1224301   1.871  -0.765   3.433  0.0189  0.3097  0.6033
   23BDD    C1324302   1.741  -0.709   3.374 -0.0042  0.3973 -0.2414
   23BDD    C1424303   1.622  -0.801   3.406  0.3769  0.3322 -0.0006
   23BDD    C1524304   1.581  -0.836   3.548 -0.8770 -0.2858  0.3436
   23BDD    C1624305   1.446  -0.907   3.570 -0.5002  0.1178 -0.3355
   23BDD    C1724306   1.938  -0.877   3.356  0.1063 -0.2407  0.1765
   23BDD    C1824307   2.046  -0.960   3.430 -0.3212  0.0897  0.0183
   23BDD    C1924308   2.080  -0.329   3.070  0.1075 -0.1036  0.4572
   23BDD    C2024309   2.094  -0.171   3.074 -0.0691 -0.0518  0.5117
   23BDD    C2124310   2.000  -0.104   3.175 -0.6486 -0.0435  0.3848
   23BDD    C2224311   1.856  -0.109   3.140  0.2133 -0.6012 -0.4751
   23BDD    C2324312   1.766   0.006   3.186  0.1282 -0.0900  0.8706
   23BDD    C2424313   1.756   0.037   3.337  0.8696 -0.0732 -0.5029
   23BDD    C2524314   2.114  -0.109   2.937  0.0047 -0.1733  0.1840
   23BDD    C2624315   2.224  -0.168   2.848 -0.1563 -0.7710  0.1072
   24TPM     C124316   2.685  -0.419   3.167  0.0224  0.1586  0.3741
   24TPM     C224317   2.820  -0.435   3.172  0.0356  0.4005  0.8270
   24TPM     C324318   2.892  -0.345   3.086  0.1549  0.4268  0.9541
   24TPM     C424319   2.812  -0.260   3.015  0.2325  0.2046  0.5983
   24TPM     S124320   2.638  -0.289   3.052  0.1606 -0.0567  0.0708
   25BDTP    C124321   3.045   0.210   2.671  0.3265 -0.1320  0.0623
   25BDTP    C224322   2.905   0.221   2.649  0.3245 -0.0225  0.1289
   25BDTP    C324323   2.813   0.135   2.707  0.2818  0.0682  0.1975
   25BDTP    C424324   2.862   0.032   2.790  0.2389  0.0503  0.2008
   25BDTP    C524325   3.002   0.021   2.812  0.2408 -0.0591  0.1342
   25BDTP    C624326   3.094   0.108   2.754  0.2835 -0.1498  0.0655
   25BDTP    C724327   2.786  -0.069   2.861  0.1904  0.1313  0.2654
   25BDTP    C824328   2.862  -0.155   2.934  0.1563  0.0885  0.2506
   25BDTP    S124329   3.040  -0.119   2.923  0.1807 -0.0606  0.1529
   25BDTP    C924330   3.121   0.312   2.600  0.3749 -0.2129 -0.0023
   25BDTP   C1024331   3.045   0.397   2.528  0.4089 -0.1700  0.0124
   25BDTP    S224332   2.867   0.361   2.539  0.3845 -0.0211  0.1102
   26FTM     S124333   2.529   0.120   2.788 -0.2808 -0.1144  0.0654
   26FTM     C124334   2.413   0.156   2.655 -0.1667 -0.4458 -0.1250
   26FTM     C224335   2.481   0.183   2.540 -0.0505 -0.1694  0.0072
   26FTM     C324336   2.624   0.177   2.549 -0.0433  0.3056  0.2586
   26FTM     C424337   2.667   0.145   2.674 -0.1577  0.3957  0.3210
   26FTM     F124338   2.418   0.214   2.420  0.0561 -0.3300 -0.0916
   26FTM     C524339   2.270   0.169   2.675 -0.2761 -0.5403  0.4956
   26FTM     C624340   2.195   0.302   2.694 -0.1965  0.4879 -0.3769
   26FTM     C724341   2.224   0.365   2.826 -0.3713 -0.3270  0.6613
   26FTM     C824342   2.178   0.311   2.967  0.2202  0.2791  0.3363
   26FTM     C924343   2.191   0.415   3.077 -0.3392 -0.1418  0.1447
   26FTM    C1024344   2.138   0.356   3.211 -0.4415 -0.3906  0.8453
   26FTM    C1124345   2.198   0.400   2.577  0.1065  0.0330  0.0798
   26FTM    C1224346   2.142   0.358   2.440 -0.4264  0.0277  0.3318
   27FTM     S124347   3.300   0.068   2.942 -0.4779 -0.1881 -0.0672
   27FTM     C124348   3.466   0.038   2.879 -0.2074 -0.2048  0.6422
   27FTM     C224349   3.469   0.054   2.744  0.4855  0.3019  0.7041
   27FTM     C324350   3.344   0.090   2.682  0.8398  0.7238  0.2154
   27FTM     C424351   3.243   0.101   2.773  0.4040  0.5339 -0.2356
   27FTM     F124352   3.583   0.038   2.668  0.8401  0.4138  1.2071
   27FTM     C524353   3.579   0.007   2.968 -0.2501 -0.1080 -0.6228
   27FTM     C624354   3.689  -0.099   2.935 -0.5289 -0.5353  0.0696
   27FTM     C724355   3.807  -0.090   3.044  0.4788  0.1989  0.0407
   27FTM     C824356   3.886   0.040   3.062 -0.4174 -0.1091  0.1881
   27FTM     C924357   3.921   0.126   2.944 -0.4758  0.8572 -0.3171
   27FTM    C1024358   4.064   0.163   2.950 -0.1846 -0.4005 -0.4830
   27FTM    C1124359   3.631  -0.238   2.914  0.5217 -0.4114 -0.0934
   27FTM    C1224360   3.726  -0.336   2.845  0.1735 -0.5449  0.2472
   28TPM     C124361   3.077   0.500   2.429  0.0942  0.0983  0.4364
   28TPM     C224362   2.983   0.590   2.392  0.0050  0.1206  0.7141
   28TPM     C324363   3.027   0.682   2.290 -0.2658  0.1251  0.6002
   28TPM     C424364   3.155   0.660   2.249 -0.3831  0.1063  0.2356
   28TPM     S124365   3.231   0.523   2.337 -0.1589  0.0813  0.0061
   29BDD     C124366   3.228   0.889   1.937  0.2454 -0.0757 -0.0645
   29BDD     C224367   3.345   0.883   2.008  0.2294 -0.0667 -0.0376
   29BDD     C324368   3.336   0.799   2.126  0.1949 -0.0301 -0.0137
   29BDD     C424369   3.213   0.741   2.143  0.1851 -0.0117 -0.0227
   29BDD     S124370   3.100   0.789   2.013  0.2183 -0.0390 -0.0618
   29BDD     C524371   3.468   0.956   1.971  0.2453 -0.0913 -0.0329
   29BDD     C624372   3.450   0.778   2.218  0.1730 -0.0146  0.0173
   29BDD     O124373   3.443   0.705   2.319  0.1432  0.0170  0.0380
   29BDD     O224374   3.475   1.029   1.869  0.2751 -0.1229 -0.0536
   29BDD     C724375   3.574   0.850   2.180  0.1888 -0.0393  0.0221
   29BDD     C824376   3.582   0.935   2.062  0.2233 -0.0759 -0.0019
   29BDD     C924377   3.705   0.993   2.045  0.2332 -0.0942  0.0071
   29BDD     S224378   3.819   0.945   2.176  0.1999 -0.0670  0.0462
   29BDD    C1024379   3.690   0.845   2.251  0.1729 -0.0302  0.0489
   29BDD    C1124380   3.734   0.765   2.374  0.0075 -0.5477 -0.6999
   29BDD    C1224381   3.809   0.631   2.368  0.6278 -0.2332 -1.0308
   29BDD    C1324382   3.845   0.569   2.512 -0.0759 -0.6006  0.6741
   29BDD    C1424383   3.736   0.534   2.606  0.0736 -0.4870  0.5203
   29BDD    C1524384   3.617   0.452   2.556 -0.1247  0.5792 -0.0326
   29BDD    C1624385   3.634   0.301   2.528  1.1174 -0.4894  0.1406
   29BDD    C1724386   3.920   0.635   2.262  0.2266  0.4337 -0.1106
   29BDD    C1824387   3.973   0.498   2.227  0.0781 -0.3924 -0.4840
   29BDD    C1924388   3.760   1.090   1.944 -0.4876 -0.2785  0.1220
   29BDD    C2024389   3.773   1.238   1.998  0.1397 -0.5090 -0.5386
   29BDD    C2124390   3.870   1.333   1.930 -0.1984  0.4781 -0.1779
   29BDD    C2224391   4.015   1.292   1.899 -0.0435 -0.8057  0.1513
   29BDD    C2324392   4.107   1.399   1.824 -0.1515  0.0096 -0.2827
   29BDD    C2424393   4.260   1.366   1.829 -0.1342 -0.1085 -0.3728
   29BDD    C2524394   3.640   1.311   2.041  0.5432 -0.0926  0.3049
   29BDD    C2624395   3.547   1.390   1.938  0.0015  0.1367 -0.3941
   30TPM     C124396   3.179   0.959   1.818  0.0736 -0.3277  0.0086
   30TPM     C224397   3.213   1.091   1.813 -0.3703 -0.1624  0.8900
   30TPM     C324398   3.123   1.171   1.735 -0.5288  0.0256  1.2606
   30TPM     C424399   3.020   1.101   1.680 -0.2058  0.0037  0.6619
   30TPM     S124400   3.029   0.926   1.724  0.3278 -0.2581 -0.4251
   31BDTP    C124401   2.620   1.322   1.245 -0.0754  0.0781  0.0131
   31BDTP    C224402   2.574   1.188   1.263 -0.1755  0.1106  0.0052
   31BDTP    C324403   2.633   1.101   1.353 -0.2074  0.0454 -0.0370
   31BDTP    C424404   2.741   1.147   1.430 -0.1374 -0.0567 -0.0733
   31BDTP    C524405   2.786   1.281   1.412 -0.0374 -0.0892 -0.0654
   31BDTP    C624406   2.728   1.369   1.322 -0.0055 -0.0241 -0.0231
   31BDTP    C724407   2.818   1.075   1.529 -0.1530 -0.1381 -0.1200
   31BDTP    C824408   2.917   1.147   1.587 -0.0706 -0.2289 -0.1472
   31BDTP    S124409   2.927   1.317   1.522  0.0384 -0.2243 -0.1175
   31BDTP    C924410   2.543   1.394   1.145 -0.0598  0.1594  0.0599
   31BDTP   C1024411   2.444   1.322   1.088 -0.1423  0.2503  0.0870
   31BDTP    S224412   2.434   1.152   1.152 -0.2513  0.2456  0.0573
   32FTM     S124413   2.683   0.824   1.388 -0.0357 -0.2059  0.2837
   32FTM     C124414   2.537   0.719   1.401 -0.2590  0.0324 -0.2214
   32FTM     C224415   2.424   0.794   1.393 -0.1196  0.1862 -0.9036
   32FTM     C324416   2.444   0.935   1.377  0.1625  0.1295 -1.0710
   32FTM     C424417   2.576   0.969   1.372  0.2418 -0.0744 -0.4984
   32FTM     F124418   2.297   0.740   1.401 -0.2391  0.3874 -1.4169
   32FTM     C524419   2.544   0.566   1.409 -0.5338  0.3813  0.3081
   32FTM     C624420   2.541   0.492   1.547  0.5019  0.0682  0.7758
   32FTM     C724421   2.395   0.473   1.609 -0.0117 -0.4366  0.2340
   32FTM     C824422   2.279   0.426   1.519  0.1394 -0.4427  0.0369
   32FTM     C924423   2.146   0.483   1.578 -0.4895  0.0613  0.3560
   32FTM    C1024424   2.025   0.433   1.503  0.7678 -0.3503  0.3449
   32FTM    C1124425   2.661   0.508   1.640  0.2180  0.3643  0.5512
   32FTM    C1224426   2.671   0.412   1.760  0.7465  0.0650  0.5084
   33FTM     S124427   2.821   1.574   1.152  0.3303 -0.0353  0.2246
   33FTM     C124428   2.839   1.736   1.229 -0.4806  0.1208  0.1090
   33FTM     C224429   2.811   1.727   1.362 -0.7296  0.1414  0.0590
   33FTM     C324430   2.775   1.597   1.411 -0.3149  0.0396  0.1062
   33FTM     C424431   2.775   1.503   1.312  0.2707 -0.0623  0.1955
   33FTM     F124432   2.817   1.836   1.448 -1.3477  0.2537 -0.0327
   33FTM     C524433   2.853   1.861   1.147  0.2510 -0.8453 -0.2474
   33FTM     C624434   2.982   1.936   1.105 -0.4806 -0.4160  1.0288
   33FTM     C724435   3.076   1.985   1.218  0.2947  0.0927  0.1148
   33FTM     C824436   3.015   2.058   1.343  0.1461  0.1469  0.4547
   33FTM     C924437   3.114   2.059   1.457  0.1817 -0.0135 -0.8450
   33FTM    C1024438   3.081   2.159   1.566 -0.0138 -0.3078  0.0242
   33FTM    C1124439   2.935   2.056   1.020 -0.7995 -0.1796 -0.3808
   33FTM    C1224440   3.046   2.129   0.934  0.4191  0.0958  0.2293
   34TPM     C124441   2.332   1.376   1.008  0.1172 -0.5045  0.3677
   34TPM     C224442   2.330   1.434   0.884  0.4233 -0.4346  0.3943
   34TPM     C324443   2.206   1.501   0.854  0.5873 -0.2054  0.2216
   34TPM     C424444   2.113   1.493   0.954  0.4063 -0.1005  0.0632
   34TPM     S124445   2.176   1.401   1.095  0.0116 -0.2845  0.1205
   35BDD     C124446   1.778   1.678   0.868  0.1305 -0.0057 -0.2040
   35BDD     C224447   1.743   1.550   0.900  0.1468  0.0020 -0.1560
   35BDD     C324448   1.856   1.467   0.938  0.1315  0.0940  0.0988
   35BDD     C424449   1.975   1.533   0.933  0.1037  0.1551  0.2413
   35BDD     S124450   1.955   1.704   0.882  0.0948  0.1016  0.0664
   35BDD     C524451   1.604   1.499   0.898  0.1771 -0.0750 -0.3426
   35BDD     C624452   1.841   1.325   0.977  0.1449  0.1180  0.1915
   35BDD     O124453   1.939   1.254   1.009  0.1316  0.1973  0.4112
   35BDD     O224454   1.506   1.571   0.866  0.1903 -0.1543 -0.5622
   35BDD     C724455   1.702   1.275   0.975  0.1752  0.0411  0.0050
   35BDD     C824456   1.589   1.358   0.937  0.1906 -0.0510 -0.2498
   35BDD     C924457   1.470   1.291   0.942  0.2183 -0.1121 -0.3923
   35BDD     S224458   1.490   1.121   0.994  0.2272 -0.0586 -0.2174
   35BDD    C1024459   1.667   1.146   1.007  0.1915  0.0488  0.0530
   35BDD    C1124460   1.746   1.026   1.048 -0.1517 -0.0011  0.1501
   35BDD    C1224461   1.768   0.972   1.192  0.1302  0.3436  0.8722
   35BDD    C1324462   1.865   0.853   1.200  0.0254  0.0001 -0.0264
   35BDD    C1424463   2.010   0.865   1.147  1.0108  0.0487  0.3028
   35BDD    C1524464   2.086   0.996   1.163  1.0497  0.4056  0.3567
   35BDD    C1624465   2.103   1.043   1.304 -0.0467 -0.4031  0.2014
   35BDD    C1724466   1.637   0.957   1.270 -1.0313  0.3057 -0.1235
   35BDD    C1824467   1.552   0.837   1.244  0.0115  0.1684  0.4781
   35BDD    C1924468   1.324   1.329   0.915  0.1140 -0.2084  0.7768
   35BDD    C2024469   1.227   1.329   1.032 -0.2794  0.6758 -0.3214
   35BDD    C2124470   1.266   1.413   1.153 -0.2103 -0.3425 -0.6172
   35BDD    C2224471   1.268   1.566   1.133  0.2349  0.2259  0.0990
   35BDD    C2324472   1.285   1.660   1.249  0.3521  0.7922 -0.0866
   35BDD    C2424473   1.284   1.814   1.222  0.3332 -0.1631  0.5938
   35BDD    C2524474   1.079   1.324   1.002  0.3943  0.3128  0.2641
   35BDD    C2624475   1.021   1.224   0.905 -0.3698 -0.4701  0.1928
   36TPM     C124476   1.707   1.795   0.820  0.1031  0.0382 -0.4541
   36TPM     C224477   1.593   1.849   0.873  0.0699 -0.2314 -0.2472
   36TPM     C324478   1.561   1.979   0.821 -0.3205 -0.2947 -0.1710
   36TPM     C424479   1.650   2.025   0.728 -0.5850 -0.0735 -0.3197
   36TPM     S124480   1.783   1.906   0.700 -0.3597  0.2344 -0.5696
   37BDTP    C124481   1.665   2.600   0.476 -0.0070 -0.0532  0.1505
   37BDTP    C224482   1.803   2.562   0.483 -0.0186 -0.1084  0.0751
   37BDTP    C324483   1.844   2.439   0.531 -0.0461 -0.1525 -0.0139
   37BDTP    C424484   1.746   2.348   0.575 -0.0630 -0.1417 -0.0295
   37BDTP    C524485   1.608   2.386   0.568 -0.0514 -0.0865  0.0458
   37BDTP    C624486   1.567   2.510   0.520 -0.0239 -0.0424  0.1348
   37BDTP    C724487   1.765   2.215   0.628 -0.0920 -0.1806 -0.1157
   37BDTP    C824488   1.650   2.152   0.662 -0.1027 -0.1577 -0.1087
   37BDTP    S124489   1.501   2.252   0.631 -0.0774 -0.0834  0.0079
   37BDTP    C924490   1.646   2.734   0.423  0.0220 -0.0142  0.2366
   37BDTP   C1024491   1.761   2.797   0.389  0.0327 -0.0373  0.2296
   37BDTP    S224492   1.910   2.696   0.420  0.0074 -0.1114  0.1130
   38FTM     S124493   2.093   2.512   0.651 -0.0450 -0.1123 -0.0169
   38FTM     C124494   2.237   2.420   0.595 -0.2446 -0.3437 -0.1574
   38FTM     C224495   2.200   2.325   0.505 -0.4522 -0.1264 -0.3018
   38FTM     C324496   2.060   2.319   0.474 -0.4683  0.2248 -0.3118
   38FTM     C424497   1.988   2.411   0.543 -0.2664  0.2781 -0.1704
   38FTM     F124498   2.290   2.239   0.444 -0.6400 -0.2328 -0.4336
   38FTM     C524499   2.380   2.456   0.642  0.5615  0.3010  0.1050
   38FTM     C624500   2.469   2.557   0.577 -0.0669  0.2219 -0.3377
   38FTM     C724501   2.516   2.525   0.438 -0.8673 -0.2851  0.5345
   38FTM     C824502   2.591   2.394   0.417  0.1771  0.1238  0.3080
   38FTM     C924503   2.584   2.345   0.273 -0.3401 -0.1282  0.0332
   38FTM    C1024504   2.675   2.222   0.256  0.6842 -0.0092  0.2907
   38FTM    C1124505   2.439   2.704   0.603 -0.2374 -0.3095 -0.0338
   38FTM    C1224506   2.418   2.773   0.745 -0.4620  0.2217  0.1887
   39FTM     S124507   1.322   2.514   0.671  0.5852  0.1209 -0.2534
   39FTM     C124508   1.180   2.593   0.594  0.1579 -0.4018 -0.0145
   39FTM     C224509   1.213   2.638   0.470 -0.2258 -0.3025 -0.0850
   39FTM     C324510   1.348   2.614   0.429 -0.2112  0.1746 -0.3234
   39FTM     C424511   1.421   2.549   0.524  0.1970  0.4496 -0.4392
   39FTM     F124512   1.124   2.703   0.387 -0.6129 -0.6376  0.0620
   39FTM     C524513   1.048   2.582   0.664  0.2054 -0.1538  0.2099
   39FTM     C624514   0.938   2.484   0.612  0.0258 -0.3390 -0.3045
   39FTM     C724515   0.967   2.337   0.620 -0.2568  0.2117  0.1660
   39FTM     C824516   1.033   2.297   0.750 -0.7992  0.7210 -0.4048
   39FTM     C924517   1.074   2.154   0.777  0.7596  0.2540 -0.6841
   39FTM    C1024518   1.167   2.138   0.896 -0.7384  0.3476  0.2185
   39FTM    C1124519   0.872   2.527   0.478 -0.1264  0.1118  0.2341
   39FTM    C1224520   0.739   2.460   0.437  0.1322 -0.8113  0.0432
   40TPM     C124521   1.772   2.932   0.335 -0.2858  0.0151 -0.2532
   40TPM     C224522   1.669   3.000   0.277  0.0924  0.2576 -0.6459
   40TPM     C324523   1.710   3.123   0.214  0.5931  0.2581 -0.3347
   40TPM     C424524   1.843   3.148   0.224  0.5967  0.0162  0.2954
   40TPM     S124525   1.929   3.018   0.315 -0.0369 -0.2331  0.5464
   41BDD     C124526   1.889   3.507   0.080 -0.0289 -0.0045 -0.0491
   41BDD     C224527   2.014   3.453   0.078 -0.0405 -0.0311 -0.0725
   41BDD     C324528   2.018   3.315   0.124 -0.0551 -0.0185 -0.0333
   41BDD     C424529   1.896   3.266   0.159 -0.0542  0.0175  0.0194
   41BDD     S124530   1.767   3.389   0.138 -0.0352  0.0381  0.0236
   41BDD     C524531   2.135   3.526   0.035 -0.0389 -0.0690 -0.1317
   41BDD     C624532   2.143   3.237   0.130 -0.0693 -0.0427 -0.0495
   41BDD     O124533   2.147   3.118   0.170 -0.0818 -0.0319 -0.0157
   41BDD     O224534   2.132   3.645  -0.004 -0.0264 -0.0798 -0.1655
   41BDD     C724535   2.264   3.310   0.087 -0.0676 -0.0806 -0.1087
   41BDD     C824536   2.261   3.448   0.042 -0.0531 -0.0932 -0.1480
   41BDD     C924537   2.383   3.497   0.006 -0.0539 -0.1290 -0.2007
   41BDD     S224538   2.512   3.373   0.027 -0.0730 -0.1497 -0.2048
   41BDD    C1024539   2.390   3.256   0.086 -0.0793 -0.1072 -0.1321
   41BDD    C1124540   2.457   3.126   0.126 -0.0161 -0.1570  0.1384
   41BDD    C1224541   2.466   3.077   0.272  0.4119  0.6904 -0.0209
   41BDD    C1324542   2.494   3.181   0.362 -0.5576  0.2199 -0.5453
   41BDD    C1424543   2.493   3.145   0.513 -0.3727  0.0716 -0.6229
   41BDD    C1524544   2.584   3.251   0.590 -0.3377  0.3504 -0.3482
   41BDD    C1624545   2.646   3.187   0.705 -0.2587  0.4551 -0.2058
   41BDD    C1724546   2.545   2.950   0.288  0.4368 -0.0920 -0.8876
   41BDD    C1824547   2.549   2.840   0.188 -0.4839  0.2149 -0.0247
   41BDD    C1924548   2.442   3.633  -0.030 -0.3155 -0.7227  0.2136
   41BDD    C2024549   2.416   3.684  -0.172 -0.6205 -0.0070  0.5347
   41BDD    C2124550   2.459   3.834  -0.198 -0.3784  0.3389 -0.0486
   41BDD    C2224551   2.435   3.949  -0.099 -0.5413  0.0921 -0.4973
   41BDD    C2324552   2.502   4.086  -0.119 -0.3711  0.1640 -0.5386
   41BDD    C2424553   2.478   4.178  -0.001 -0.0854  0.6231 -0.5367
   41BDD    C2524554   2.474   3.597  -0.290 -1.1196  0.1544 -0.5726
   41BDD    C2624555   2.628   3.587  -0.297 -0.2235  0.5347  0.0572
   42TPM     C124556   1.832   3.641   0.058  0.0112  0.1495  0.3712
   42TPM     C224557   1.700   3.662   0.036  0.0492  0.3166  0.3021
   42TPM     C324558   1.665   3.801   0.023  0.2604  0.3516  0.0952
   42TPM     C424559   1.771   3.886   0.035  0.3835  0.2111  0.0067
   42TPM     S124560   1.924   3.796   0.064  0.2410  0.0223  0.1790
   43BDTP    C124561   1.849   4.512   0.093  0.2727  0.0595 -0.0808
   43BDTP    C224562   1.748   4.485   0.189  0.2277  0.0330 -0.1354
   43BDTP    C324563   1.695   4.358   0.208  0.2230  0.0266 -0.1906
   43BDTP    C424564   1.743   4.253   0.129  0.2646  0.0470 -0.1922
   43BDTP    C524565   1.845   4.280   0.032  0.3096  0.0736 -0.1376
   43BDTP    C624566   1.898   4.407   0.013  0.3142  0.0799 -0.0823
   43BDTP    C724567   1.704   4.114   0.131  0.2687  0.0452 -0.2439
   43BDTP    C824568   1.770   4.036   0.042  0.3139  0.0685 -0.2310
   43BDTP    S124569   1.891   4.128  -0.057  0.3578  0.0963 -0.1514
   43BDTP    C924570   1.889   4.651   0.091  0.2686  0.0614 -0.0290
   43BDTP   C1024571   1.823   4.729   0.180  0.2234  0.0380 -0.0419
   43BDTP    S224572   1.702   4.637   0.279  0.1795  0.0103 -0.1215
   44FTM     S124573   1.431   4.304   0.318 -0.2697  0.0715  0.2400
   44FTM     C124574   1.425   4.287   0.497  0.1780  0.1472  0.2651
   44FTM     C224575   1.549   4.303   0.549  0.2896  0.3000 -0.0407
   44FTM     C324576   1.655   4.328   0.455  0.0398  0.3662 -0.3067
   44FTM     C424577   1.609   4.331   0.327 -0.2733  0.2605 -0.2012
   44FTM     F124578   1.575   4.296   0.685  0.6247  0.3892 -0.0978
   44FTM     C524579   1.288   4.260   0.560  0.3252  0.1004 -0.5889
   44FTM     C624580   1.252   4.130   0.631  0.3108  0.0010 -0.4377
   44FTM     C724581   1.107   4.102   0.662  0.2633 -0.4902 -0.2291
   44FTM     C824582   1.002   4.124   0.550 -0.5322  0.7441 -0.5058
   44FTM     C924583   0.864   4.095   0.581  0.3700 -0.2613 -0.3131
   44FTM    C1024584   0.792   4.060   0.455  0.0924  0.1068  0.4777
   44FTM    C1124585   1.331   4.061   0.746 -0.4012 -0.3834  0.4871
   44FTM    C1224586   1.383   4.158   0.863  0.2825 -0.5790  0.5505
   45FTM     S124587   2.161   4.495  -0.040  0.0605  0.5360 -0.2670
   45FTM     C124588   2.225   4.468  -0.206  0.0630  0.2269 -0.2163
   45FTM     C224589   2.130   4.409  -0.283  0.1026 -0.0206 -0.0768
   45FTM     C324590   2.005   4.381  -0.219  0.1327  0.0142 -0.0024
   45FTM     C424591   2.004   4.421  -0.089  0.1156  0.2974 -0.0879
   45FTM     F124592   2.152   4.375  -0.416  0.1140 -0.2931 -0.0081
   45FTM     C524593   2.362   4.507  -0.239 -0.4547 -1.0672  0.0988
   45FTM     C624594   2.398   4.651  -0.296 -0.4307  0.3926 -0.2546
   45FTM     C724595   2.379   4.678  -0.454 -0.4039 -0.1884 -0.3873
   45FTM     C824596   2.435   4.560  -0.540 -0.0435  0.1607  0.1806
   45FTM     C924597   2.454   4.584  -0.688  0.5355 -0.2497 -0.1281
   45FTM    C1024598   2.492   4.467  -0.773 -0.0451 -0.5450  0.2479
   45FTM    C1124599   2.363   4.773  -0.211 -1.0579 -0.4178 -0.1022
   45FTM    C1224600   2.422   4.778  -0.070 -0.8534 -0.4035 -0.3327
   46TPM     C124601   1.856   4.866   0.211  0.1412  0.0966 -0.1792
   46TPM     C224602   1.930   4.953   0.136  0.7251 -0.1634  0.0826
   46TPM     C324603   1.961   5.076   0.204  0.9917 -0.3072  0.2225
   46TPM     C424604   1.911   5.083   0.331  0.6112 -0.1567  0.0674
   46TPM     S124605   1.820   4.933   0.374 -0.1192  0.1808 -0.2700
   47BDD     C124606   2.057   5.425   0.468 -0.2369 -0.1134 -0.0414
   47BDD     C224607   2.044   5.346   0.579 -0.1470 -0.1005 -0.0209
   47BDD     C324608   1.986   5.216   0.550 -0.0336 -0.1600  0.0188
   47BDD     C424609   1.956   5.197   0.418 -0.0387 -0.2172  0.0280
   47BDD     S124610   1.999   5.341   0.320 -0.1857 -0.2009 -0.0124
   47BDD     C524611   2.083   5.388   0.715 -0.1622 -0.0329 -0.0370
   47BDD     C624612   1.962   5.115   0.656  0.0756 -0.1576  0.0462
   47BDD     O124613   1.912   5.003   0.631  0.1734 -0.2087  0.0804
   47BDD     O224614   2.133   5.500   0.739 -0.2600  0.0182 -0.0713
   47BDD     C724615   2.001   5.157   0.792  0.0604 -0.0900  0.0301
   47BDD     C824616   2.059   5.287   0.820 -0.0529 -0.0306 -0.0097
   47BDD     C924617   2.088   5.305   0.952 -0.0480  0.0266 -0.0188
   47BDD     S224618   2.046   5.161   1.050  0.0991  0.0102  0.0216
   47BDD    C1024619   1.987   5.078   0.903  0.1503 -0.0772  0.0506
   47BDD    C1124620   1.949   4.939   0.930  0.1027  0.0381 -0.0160
   47BDD    C1224621   2.063   4.835   0.963  0.6019  0.0720 -0.0072
   47BDD    C1324622   1.999   4.701   1.009 -0.1755 -0.0272  0.6554
   47BDD    C1424623   2.095   4.613   1.088  0.0239 -0.6562  0.3597
   47BDD    C1524624   2.059   4.472   1.098  0.2642 -0.2705 -0.4493
   47BDD    C1624625   2.151   4.396   1.183 -0.3314  0.0826 -0.3553
   47BDD    C1724626   2.180   4.834   0.865 -0.2914 -0.5288  0.2819
   47BDD    C1824627   2.160   4.776   0.726  0.0040 -0.2116  0.8902
   47BDD    C1924628   2.150   5.415   1.027 -0.0190 -0.5200  0.1246
   47BDD    C2024629   2.072   5.477   1.138  0.5143  0.1370 -0.9609
   47BDD    C2124630   1.932   5.522   1.088  0.0531 -0.2691 -0.4084
   47BDD    C2224631   1.851   5.626   1.168 -0.1610 -0.8774 -0.3240
   47BDD    C2324632   1.702   5.651   1.122 -0.2430 -0.8455 -0.3200
   47BDD    C2424633   1.649   5.783   1.173 -0.6211 -0.1131  0.0865
   47BDD    C2524634   2.081   5.412   1.284 -0.2184 -0.1796  0.4536
   47BDD    C2624635   2.222   5.387   1.334 -0.1949  0.0472 -0.8434
   48TPM     C124636   2.104   5.564   0.443 -0.0676  0.2233  0.3375
   48TPM     C224637   2.107   5.603   0.312  0.1318 -0.1472  0.2299
   48TPM     C324638   2.165   5.733   0.291  0.3513 -0.2900 -0.0749
   48TPM     C424639   2.206   5.794   0.407  0.3191 -0.0283 -0.1997
   48TPM     S124640   2.174   5.690   0.551  0.0066  0.4221  0.0601
   49BDTP    C124641   2.502   6.332   0.509 -0.1998  0.1056  0.0911
   49BDTP    C224642   2.471   6.340   0.370 -0.0970  0.0188  0.0623
   49BDTP    C324643   2.400   6.241   0.304 -0.0266 -0.0342  0.0659
   49BDTP    C424644   2.358   6.129   0.377 -0.0587 -0.0004  0.0993
   49BDTP    C524645   2.390   6.121   0.516 -0.1615  0.0862  0.1281
   49BDTP    C624646   2.460   6.220   0.582 -0.2319  0.1393  0.1246
   49BDTP    C724647   2.283   6.014   0.330  0.0004 -0.0429  0.1094
   49BDTP    C824648   2.258   5.921   0.425 -0.0523  0.0069  0.1438
   49BDTP    S124649   2.325   5.966   0.588 -0.1842  0.1144  0.1685
   49BDTP    C924650   2.577   6.447   0.556 -0.2589  0.1479  0.0811
   49BDTP   C1024651   2.602   6.540   0.461 -0.2062  0.0983  0.0466
   49BDTP    S224652   2.536   6.495   0.298 -0.0742 -0.0095  0.0220
   50FTM     S124653   2.415   6.162   0.023  0.0293 -0.1326  0.2351
   50FTM     C124654   2.294   6.237  -0.088  0.4066 -0.0280 -0.1128
   50FTM     C224655   2.221   6.330  -0.020  0.4503  0.2054 -0.3822
   50FTM     C324656   2.254   6.347   0.118  0.1991  0.3147 -0.3351
   50FTM     C424657   2.355   6.266   0.158 -0.0449  0.1596 -0.0198
   50FTM     F124658   2.120   6.404  -0.079  0.7203  0.3344 -0.6869
   50FTM     C524659   2.288   6.199  -0.240 -0.3157 -0.1091  0.5506
   50FTM     C624660   2.293   6.051  -0.284  0.1165  0.3753 -0.2880
   50FTM     C724661   2.299   6.019  -0.436  0.3798  0.3086 -0.8195
   50FTM     C824662   2.413   6.078  -0.523 -0.7397  0.2701 -0.1013
   50FTM     C924663   2.401   6.019  -0.661  0.0181  0.2329  0.1271
   50FTM    C1024664   2.517   6.040  -0.755 -1.0273  0.2496  0.0652
   50FTM    C1124665   2.194   5.969  -0.195  0.2941 -0.0448 -0.3945
   50FTM    C1224666   2.187   5.823  -0.216 -0.8710 -0.0057  0.0199
   51FTM     S124667   2.659   6.251   0.794  0.0848  0.0658 -0.0333
   51FTM     C124668   2.597   6.239   0.963  0.0246 -0.4235 -0.0864
   51FTM     C224669   2.466   6.203   0.961 -0.0108 -0.2915 -0.2433
   51FTM     C324670   2.407   6.183   0.832  0.0063  0.1868 -0.3298
   51FTM     C424671   2.496   6.204   0.731  0.0563  0.4285 -0.2360
   51FTM     F124672   2.391   6.186   1.077 -0.0608 -0.5956 -0.3180
   51FTM     C524673   2.677   6.284   1.087  0.1437 -0.5703  0.3570
   51FTM     C624674   2.708   6.440   1.114  0.1479 -0.3801 -0.2338
   51FTM     C724675   2.791   6.465   1.241  0.1377  0.1003 -0.0384
   51FTM     C824676   2.944   6.464   1.232 -0.0286 -0.6858  0.4908
   51FTM     C924677   3.035   6.574   1.171  0.5465  0.6558  0.4334
   51FTM    C1024678   3.010   6.612   1.025 -0.5937  0.6157  0.4934
   51FTM    C1124679   2.583   6.534   1.104  0.7515 -0.2835  0.4029
   51FTM    C1224680   2.609   6.683   1.099 -0.3514  0.0209  0.2070
   52TPM     C124681   2.673   6.666   0.477  0.2652 -0.3154  0.3096
   52TPM     C224682   2.708   6.754   0.378  0.2203 -0.4567  0.1682
   52TPM     C324683   2.762   6.878   0.427  0.0129 -0.2872 -0.0252
   52TPM     C424684   2.770   6.885   0.563 -0.1003 -0.0167 -0.0312
   52TPM     S124685   2.708   6.734   0.641  0.0474  0.0455  0.2087
   53BDD     C124686   2.990   7.095   0.820  0.1578 -0.0075  0.1202
   53BDD     C224687   2.941   7.186   0.730  0.1131 -0.0275  0.1239
   53BDD     C324688   2.857   7.127   0.628  0.1150 -0.0598  0.1410
   53BDD     C424689   2.842   6.991   0.641  0.1611 -0.0642  0.1500
   53BDD     S124690   2.932   6.929   0.783  0.2054 -0.0279  0.1377
   53BDD     C524691   2.972   7.330   0.734  0.0670 -0.0178  0.1119
   53BDD     C624692   2.794   7.206   0.520  0.0711 -0.0854  0.1477
   53BDD     O124693   2.721   7.155   0.432  0.0728 -0.1131  0.1624
   53BDD     O224694   3.045   7.381   0.822  0.0653  0.0100  0.0972
   53BDD     C724695   2.824   7.351   0.525  0.0250 -0.0753  0.1357
   53BDD     C824696   2.909   7.410   0.627  0.0231 -0.0430  0.1187
   53BDD     C924697   2.924   7.545   0.613 -0.0229 -0.0387  0.1097
   53BDD     S224698   2.833   7.608   0.472 -0.0672 -0.0749  0.1219
   53BDD    C1024699   2.776   7.442   0.435 -0.0196 -0.0951  0.1395
   53BDD    C1124700   2.696   7.430   0.309  0.0628  0.0913 -0.1541
   53BDD    C1224701   2.763   7.399   0.170 -0.2406  0.1643  0.3188
   53BDD    C1324702   2.669   7.356   0.056 -0.2420 -0.0522 -0.6865
   53BDD    C1424703   2.569   7.240   0.085  0.0806  0.6273 -0.1214
   53BDD    C1524704   2.648   7.109   0.088  0.1984  0.2148 -0.0380
   53BDD    C1624705   2.563   6.984   0.092  0.3262 -0.6524 -0.2780
   53BDD    C1724706   2.865   7.508   0.126 -0.0663  0.0787  0.0316
   53BDD    C1824707   2.808   7.639   0.084 -0.0751  0.1546 -0.5995
   53BDD    C1924708   2.993   7.655   0.701  0.1123  0.4145 -0.5246
   53BDD    C2024709   2.907   7.774   0.739 -0.3067  0.1580 -0.5130
   53BDD    C2124710   3.004   7.882   0.802 -0.3023  0.3942  0.2217
   53BDD    C2224711   2.951   8.030   0.813 -0.3707  0.1856  0.2349
   53BDD    C2324712   3.056   8.119   0.874  0.0454  0.9257 -0.0949
   53BDD    C2424713   3.005   8.256   0.869  0.4309  0.5719 -0.0975
   53BDD    C2524714   2.770   7.751   0.808  0.5041 -0.1721  0.1909
   53BDD    C2624715   2.763   7.699   0.953  0.7466 -0.2714  0.1169
   54TPM     C124716   3.070   7.091   0.939  0.0929  0.1771 -0.1039
   54TPM     C224717   3.068   6.981   1.019  0.3974 -0.1003 -0.4717
   54TPM     C324718   3.149   6.993   1.137  0.4951 -0.3366 -0.5138
   54TPM     C424719   3.214   7.112   1.148  0.2652 -0.2395 -0.1782
   54TPM     S124720   3.176   7.220   1.008 -0.0954  0.1612  0.2201
   55BDTP    C124721   3.614   7.280   1.615 -0.1364 -0.2731 -0.1006
   55BDTP    C224722   3.592   7.404   1.548 -0.0418 -0.2121 -0.0172
   55BDTP    C324723   3.509   7.417   1.438  0.0176 -0.0867 -0.0481
   55BDTP    C424724   3.443   7.302   1.391 -0.0176 -0.0184 -0.1669
   55BDTP    C524725   3.465   7.178   1.457 -0.1121 -0.0794 -0.2503
   55BDTP    C624726   3.548   7.165   1.567 -0.1716 -0.2048 -0.2194
   55BDTP    C724727   3.352   7.291   1.279  0.0307  0.1126 -0.2197
   55BDTP    C824728   3.305   7.165   1.258 -0.0223  0.1518 -0.3372
   55BDTP    S124729   3.369   7.044   1.377 -0.1409  0.0290 -0.3976
   55BDTP    C924730   3.705   7.291   1.727 -0.1847 -0.4038 -0.0478
   55BDTP   C1024731   3.752   7.417   1.748 -0.1317 -0.4431  0.0697
   55BDTP    S224732   3.688   7.538   1.628 -0.0131 -0.3202  0.1300
   56FTM     S124733   3.448   7.693   1.467 -0.0234 -0.4462  0.0671
   56FTM     C124734   3.467   7.793   1.318 -0.2001  0.1529  0.4353
   56FTM     C224735   3.504   7.713   1.214  0.1001  0.6309  0.1680
   56FTM     C324736   3.519   7.574   1.243  0.4768  0.5621 -0.3274
   56FTM     C424737   3.493   7.545   1.374  0.4646  0.0136 -0.4433
   56FTM     F124738   3.526   7.762   1.086  0.0519  1.1588  0.3561
   56FTM     C524739   3.452   7.942   1.334 -1.0648  0.7447  0.4697
   56FTM     C624740   3.579   8.027   1.345  0.3389  0.3799  0.4056
   56FTM     C724741   3.539   8.175   1.356  0.2187 -0.3505 -0.3056
   56FTM     C824742   3.466   8.228   1.234  0.2618 -0.0230  0.1134
   56FTM     C924743   3.471   8.375   1.216 -0.2927  0.3638 -1.1906
   56FTM    C1024744   3.433   8.429   1.081  0.3063  0.0536  0.0249
   56FTM    C1124745   3.685   7.984   1.446  0.0143 -0.2429  0.5030
   56FTM    C1224746   3.648   8.003   1.594  1.0205  0.0270  0.4034
   57FTM     S124747   3.428   6.945   1.704 -0.0935  0.0764  0.3322
   57FTM     C124748   3.536   6.803   1.732 -0.1191 -0.0002  0.0438
   57FTM     C224749   3.661   6.830   1.684 -0.0669  0.1436  0.2558
   57FTM     C324750   3.679   6.959   1.624 -0.0051  0.3181  0.6460
   57FTM     C424751   3.565   7.033   1.626 -0.0104  0.3073  0.7356
   57FTM     F124752   3.765   6.739   1.691 -0.0718  0.1260  0.1092
   57FTM     C524753   3.461   6.684   1.797  0.1709 -0.3247  0.1106
   57FTM     C624754   3.493   6.646   1.941  0.4776  0.5875  1.0223
   57FTM     C724755   3.466   6.746   2.051  0.5502 -0.4876  0.4047
   57FTM     C824756   3.315   6.772   2.082  0.0358  0.1280  0.1854
   57FTM     C924757   3.287   6.892   2.172 -0.2739 -0.0676 -0.0281
   57FTM    C1024758   3.348   6.883   2.315  0.0288  0.3085  0.1827
   57FTM    C1124759   3.633   6.581   1.967 -0.4888  0.1476 -0.2651
   57FTM    C1224760   3.678   6.470   1.866 -0.2127  0.2440 -0.3327
   58TPM     C124761   3.855   7.458   1.836  0.0920 -0.0933 -0.4278
   58TPM     C224762   3.919   7.579   1.840  0.1822 -0.1328 -0.6358
   58TPM     C324763   3.995   7.600   1.961  0.0664  0.0857 -0.6009
   58TPM     C424764   3.988   7.496   2.049 -0.1119  0.2917 -0.3663
   58TPM     S124765   3.886   7.362   1.985 -0.1479  0.2254 -0.1698
   59BDD     C124766   4.207   7.362   2.348 -0.3467 -0.1620 -0.1141
   59BDD     C224767   4.213   7.497   2.362 -0.2508 -0.1686 -0.0928
   59BDD     C324768   4.137   7.569   2.262 -0.1882 -0.0983 -0.0905
   59BDD     C424769   4.073   7.487   2.173 -0.2374 -0.0394 -0.1101
   59BDD     S124770   4.105   7.314   2.209 -0.3654 -0.0678 -0.1327
   59BDD     C524771   4.290   7.566   2.468 -0.2130 -0.2393 -0.0737
   59BDD     C624772   4.129   7.717   2.258 -0.0819 -0.0923 -0.0689
   59BDD     O124773   4.063   7.778   2.171 -0.0280 -0.0317 -0.0669
   59BDD     O224774   4.356   7.505   2.555 -0.2669 -0.2998 -0.0757
   59BDD     C724775   4.206   7.786   2.364 -0.0443 -0.1628 -0.0499
   59BDD     C824776   4.282   7.714   2.464 -0.1069 -0.2331 -0.0522
   59BDD     C924777   4.346   7.796   2.553 -0.0578 -0.2919 -0.0325
   59BDD     S224778   4.314   7.969   2.517  0.0700 -0.2637 -0.0099
   59BDD    C1024779   4.212   7.922   2.378  0.0515 -0.1693 -0.0286
   59BDD    C1124780   4.152   8.034   2.296 -0.6492  0.6738  0.6363
   59BDD    C1224781   4.046   8.131   2.353 -0.6913  0.0006 -0.8305
   59BDD    C1324782   3.937   8.060   2.437 -0.3772 -0.1281 -0.2555
   59BDD    C1424783   3.846   8.145   2.534 -0.2198 -0.0450 -0.2492
   59BDD    C1524784   3.913   8.237   2.630 -0.2613 -0.0409 -0.6100
   59BDD    C1624785   3.827   8.271   2.751 -0.2139 -1.1356 -0.0511
   59BDD    C1724786   4.002   8.237   2.262  0.5817 -0.3445  0.7443
   59BDD    C1824787   4.106   8.306   2.174 -0.1723  0.2244  0.2153
   59BDD    C1924788   4.445   7.765   2.665 -0.5127  0.0244  0.0096
   59BDD    C2024789   4.390   7.768   2.807  0.2835 -0.5473 -0.3402
   59BDD    C2124790   4.505   7.716   2.897  0.5964  0.2660 -0.0104
   59BDD    C2224791   4.532   7.563   2.886 -0.3199  0.0793 -0.1703
   59BDD    C2324792   4.417   7.465   2.895  0.3688 -0.2582  0.6827
   59BDD    C2424793   4.461   7.323   2.880 -0.5960  0.0312  0.2111
   59BDD    C2524794   4.323   7.902   2.853 -0.5176  0.6102 -0.1966
   59BDD    C2624795   4.258   7.897   2.996 -0.1781  0.6266  0.4216
   60TPM     C124796   4.254   7.247   2.430  0.3075 -0.2164  0.4673
   60TPM     C224797   4.386   7.222   2.451  0.2674 -0.2133  0.7243
   60TPM     C324798   4.412   7.094   2.513  0.1523 -0.2290  0.7390
   60TPM     C424799   4.299   7.022   2.539  0.1046 -0.2440  0.4931
   60TPM     S124800   4.150   7.111   2.487  0.2021 -0.2394  0.2219
    1BDTP    C124801   0.456   6.577   0.655 -0.2346  0.0645  0.0482
    1BDTP    C224802   0.426   6.439   0.669 -0.1675  0.0410 -0.0398
    1BDTP    C324803   0.331   6.375   0.590 -0.0900  0.0300 -0.1249
    1BDTP    C424804   0.263   6.451   0.494 -0.0779  0.0430 -0.1233
    1BDTP    C524805   0.293   6.589   0.480 -0.1449  0.0665 -0.0353
    1BDTP    C624806   0.388   6.653   0.559 -0.2225  0.0775  0.0498
    1BDTP    C724807   0.160   6.407   0.401 -0.0032  0.0353 -0.2022
    1BDTP    C824808   0.113   6.504   0.320 -0.0108  0.0520 -0.1781
    1BDTP    S124809   0.192   6.665   0.349 -0.1137  0.0793 -0.0520
    1BDTP    C924810   0.558   6.621   0.748 -0.3093  0.0720  0.1272
    1BDTP   C1024811   0.605   6.524   0.830 -0.3016  0.0554  0.1031
    1BDTP    S224812   0.527   6.363   0.800 -0.1988  0.0282 -0.0231
    2FTM     S124813   0.294   6.103   0.491 -0.3185 -0.1960  0.1391
    2FTM     C124814   0.253   5.981   0.617 -0.1956 -0.4311 -0.0478
    2FTM     C224815   0.240   6.041   0.738 -0.1568 -0.6446  0.0645
    2FTM     C324816   0.260   6.183   0.740 -0.2188 -0.6382  0.2971
    2FTM     C424817   0.290   6.233   0.616 -0.3080 -0.4127  0.3651
    2FTM     F124818   0.208   5.972   0.854 -0.0629 -0.8583 -0.0366
    2FTM     C524819   0.240   5.835   0.572  0.0090 -0.4660 -0.0249
    2FTM     C624820   0.197   5.722   0.672 -0.4571  0.8761 -0.0634
    2FTM     C724821   0.299   5.680   0.780  0.1229 -0.1851 -0.2216
    2FTM     C824822   0.428   5.633   0.730 -0.4485  0.1011  0.8256
    2FTM     C924823   0.483   5.528   0.824  0.1260  0.3290  0.7381
    2FTM    C1024824   0.595   5.452   0.745 -0.0918 -0.1252 -0.1632
    2FTM    C1124825   0.047   5.716   0.704  0.3845 -0.0645 -0.1652
    2FTM    C1224826  -0.011   5.592   0.763  0.4807  0.2495  0.1541
    3FTM     S124827   0.407   6.914   0.673  0.1684 -0.0580  0.0934
    3FTM     C124828   0.469   7.046   0.566 -0.5033  0.2621  0.0881
    3FTM     C224829   0.489   6.998   0.440 -1.1018  0.5882 -0.1429
    3FTM     C324830   0.459   6.859   0.420 -1.0752  0.6087 -0.3254
    3FTM     C424831   0.414   6.799   0.534 -0.4354  0.2877 -0.2312
    3FTM     F124832   0.537   7.076   0.336 -1.7093  0.8878 -0.2028
    3FTM     C524833   0.487   7.181   0.608  0.1997 -0.0455  0.1790
    3FTM     C624834   0.376   7.287   0.610  1.1264 -1.0434 -0.7056
    3FTM     C724835   0.244   7.232   0.679  0.5273 -0.5337 -0.4567
    3FTM     C824836   0.249   7.244   0.833 -0.5160 -0.1603  0.4894
    3FTM     C924837   0.122   7.180   0.891  0.2928 -0.6062 -0.1765
    3FTM    C1024838   0.110   7.183   1.042 -0.0566  0.1542 -0.0548
    3FTM    C1124839   0.342   7.349   0.472 -0.5453  0.5291  0.8647
    3FTM    C1224840   0.453   7.416   0.385 -0.0916  0.2585  0.5235
    4TPM     C124841   0.717   6.539   0.919  0.3192  0.0367 -0.3296
    4TPM     C224842   0.769   6.660   0.955  0.2736  0.0547 -0.3245
    4TPM     C324843   0.881   6.650   1.046  0.0239  0.1055 -0.0076
    4TPM     C424844   0.914   6.522   1.078 -0.1207  0.1261  0.2288
    4TPM     S124845   0.806   6.403   0.996  0.0484  0.0827  0.0683
    5BDD     C124846   1.050   6.386   1.423  0.2815  0.1229  0.0576
    5BDD     C224847   1.143   6.478   1.384  0.2736  0.1401  0.0798
    5BDD     C324848   1.114   6.541   1.257  0.2796  0.1525  0.0845
    5BDD     C424849   0.998   6.495   1.200  0.2919  0.1445  0.0658
    5BDD     S124850   0.918   6.371   1.302  0.2969  0.1211  0.0411
    5BDD     C524851   1.263   6.512   1.464  0.2603  0.1457  0.0975
    5BDD     C624852   1.201   6.643   1.196  0.2729  0.1718  0.1074
    5BDD     O124853   1.176   6.697   1.086  0.2780  0.1825  0.1115
    5BDD     O224854   1.289   6.458   1.574  0.2552  0.1351  0.0934
    5BDD     C724855   1.321   6.677   1.276  0.2595  0.1773  0.1251
    5BDD     C824856   1.351   6.614   1.403  0.2536  0.1650  0.1204
    5BDD     C924857   1.466   6.660   1.461  0.2412  0.1729  0.1391
    5BDD     S224858   1.546   6.784   1.359  0.2362  0.1963  0.1638
    5BDD    C1024859   1.414   6.769   1.238  0.2517  0.1945  0.1473
    5BDD    C1124860   1.429   6.859   1.119  0.4741  0.2459  0.0255
    5BDD    C1224861   1.552   6.843   1.029  0.4008  0.6909 -0.0790
    5BDD    C1324862   1.554   6.957   0.921  0.1711  0.4448 -0.5459
    5BDD    C1424863   1.450   6.956   0.809  0.5992 -0.1055 -0.6175
    5BDD    C1524864   1.456   7.080   0.705 -0.1897  0.7281 -0.5795
    5BDD    C1624865   1.362   7.049   0.593 -0.2417  0.3573  0.3455
    5BDD    C1724866   1.558   6.697   0.981 -0.1288  0.0744  0.2640
    5BDD    C1824867   1.667   6.664   0.874 -0.1196  0.0112 -0.9427
    5BDD    C1924868   1.551   6.598   1.576  0.8409 -0.9007  0.6243
    5BDD    C2024869   1.597   6.694   1.689  1.0533 -0.0357 -0.1389
    5BDD    C2124870   1.703   6.793   1.644  0.0661 -0.5920 -0.2114
    5BDD    C2224871   1.776   6.873   1.754 -0.4733 -0.3241  0.6738
    5BDD    C2324872   1.870   6.800   1.846 -0.7262  0.5172  0.6328
    5BDD    C2424873   1.995   6.717   1.788  0.1710 -0.1681 -0.5122
    5BDD    C2524874   1.485   6.753   1.783 -0.1711  0.1067  0.4134
    5BDD    C2624875   1.380   6.666   1.847 -0.1121 -0.0671  0.9431
    6TPM     C124876   1.028   6.299   1.537  0.3489 -0.2584 -0.0709
    6TPM     C224877   1.127   6.231   1.602  0.0654 -0.4816  0.1354
    6TPM     C324878   1.079   6.135   1.697 -0.3475 -0.2402  0.1757
    6TPM     C424879   0.943   6.128   1.705 -0.3790  0.1668  0.0001
    6TPM     S124880   0.865   6.245   1.592  0.1144  0.2779 -0.2315
    7BDTP    C124881   0.558   5.738   2.017  0.1910  0.1067 -0.0696
    7BDTP    C224882   0.670   5.748   2.104  0.1933  0.1082 -0.0727
    7BDTP    C324883   0.781   5.826   2.074  0.2223  0.0529 -0.1089
    7BDTP    C424884   0.782   5.897   1.952  0.2505 -0.0070 -0.1437
    7BDTP    C524885   0.669   5.886   1.866  0.2482 -0.0087 -0.1406
    7BDTP    C624886   0.558   5.808   1.896  0.2192  0.0467 -0.1044
    7BDTP    C724887   0.885   5.983   1.900  0.2832 -0.0708 -0.1844
    7BDTP    C824888   0.856   6.037   1.779  0.3053 -0.1194 -0.2117
    7BDTP    S124889   0.694   5.986   1.715  0.2878 -0.0917 -0.1896
    7BDTP    C924890   0.454   5.651   2.070  0.1583  0.1702 -0.0288
    7BDTP   C1024891   0.483   5.597   2.191  0.1361  0.2191 -0.0015
    7BDTP    S224892   0.645   5.648   2.255  0.1536  0.1911 -0.0237
    8FTM     S124893   1.051   5.807   2.154  0.0405  0.1205 -0.1288
    8FTM     C124894   1.094   5.878   2.313 -0.2481 -0.1986  0.0959
    8FTM     C224895   0.985   5.939   2.368 -0.3640 -0.3662  0.0508
    8FTM     C324896   0.864   5.933   2.291 -0.2384 -0.2592 -0.1561
    8FTM     C424897   0.881   5.866   2.173 -0.0193 -0.0014 -0.2734
    8FTM     F124898   0.988   6.003   2.491 -0.5906 -0.6263  0.1944
    8FTM     C524899   1.231   5.885   2.375 -0.1483  1.2617 -0.2856
    8FTM     C624900   1.305   5.749   2.394 -0.3368 -0.4791  0.3601
    8FTM     C724901   1.345   5.655   2.280 -0.8273 -0.6536  0.5214
    8FTM     C824902   1.407   5.708   2.150 -0.2302 -0.0525  0.3286
    8FTM     C924903   1.531   5.793   2.165  0.0557  0.1508 -0.6246
    8FTM    C1024904   1.585   5.869   2.049  0.1861  0.6386  0.0153
    8FTM    C1124905   1.418   5.741   2.505  0.0230  0.2269  0.5876
    8FTM    C1224906   1.391   5.801   2.644  0.1914  0.1702  0.6192
    9FTM     S124907   0.365   5.657   1.748  0.3108 -0.0458  0.1866
    9FTM     C124908   0.221   5.753   1.696  0.4398 -0.1036 -0.2941
    9FTM     C224909   0.238   5.883   1.729  0.3144 -0.0825 -0.3119
    9FTM     C324910   0.361   5.917   1.794  0.1152 -0.0216  0.0386
    9FTM     C424911   0.441   5.808   1.812  0.0871  0.0047  0.3345
    9FTM     F124912   0.143   5.981   1.702  0.3726 -0.1169 -0.6467
    9FTM     C524913   0.097   5.695   1.624 -0.0528  0.0678  0.0612
    9FTM     C624914  -0.019   5.633   1.701 -0.2398 -0.0548 -0.2591
    9FTM     C724915  -0.109   5.734   1.777  0.2681  0.2362 -1.0584
    9FTM     C824916  -0.190   5.838   1.692 -0.4989  0.7155 -0.5679
    9FTM     C924917  -0.247   5.938   1.784  0.4486 -0.0255 -0.0354
    9FTM    C1024918  -0.337   6.051   1.728 -0.1823  0.2211  0.3953
    9FTM    C1124919   0.011   5.503   1.784  0.3099 -0.1363 -0.0631
    9FTM    C1224920   0.071   5.385   1.704  0.3996  0.1225 -0.0727
   10TPM     C124921   0.409   5.492   2.262 -0.0374 -0.0890  0.2036
   10TPM     C224922   0.285   5.492   2.317  0.3562  0.1763  1.1162
   10TPM     C324923   0.261   5.382   2.406  0.7640  0.2253  1.2934
   10TPM     C424924   0.366   5.297   2.418  0.6814 -0.0028  0.5160
   10TPM     S124925   0.506   5.350   2.317  0.0774 -0.2994 -0.5082
   11BDD     C124926   0.477   5.032   2.684  0.1656 -0.1412 -0.0935
   11BDD     C224927   0.347   4.999   2.655  0.1502 -0.0862 -0.0862
   11BDD     C324928   0.286   5.087   2.556  0.1438  0.0118  0.0041
   11BDD     C424929   0.370   5.185   2.511  0.1546  0.0302  0.0644
   11BDD     S124930   0.532   5.174   2.589  0.1734 -0.0738  0.0122
   11BDD     C524931   0.275   4.887   2.717  0.1406 -0.1221 -0.1621
   11BDD     C624932   0.147   5.070   2.510  0.1273  0.0834  0.0275
   11BDD     O124933   0.095   5.145   2.425  0.1219  0.1678  0.1054
   11BDD     O224934   0.327   4.811   2.802  0.1460 -0.2065 -0.2400
   11BDD     C724935   0.074   4.957   2.572  0.1178  0.0478 -0.0485
   11BDD     C824936   0.135   4.870   2.671  0.1241 -0.0502 -0.1389
   11BDD     C924937   0.051   4.772   2.716  0.1134 -0.0685 -0.1991
   11BDD     S224938  -0.110   4.782   2.638  0.0944  0.0354 -0.1469
   11BDD    C1024939  -0.055   4.924   2.543  0.1023  0.1028 -0.0411
   11BDD    C1124940  -0.146   4.979   2.431 -0.4449 -0.3156 -0.2100
   11BDD    C1224941  -0.169   4.895   2.299  0.0063 -0.3888 -0.4986
   11BDD    C1324942  -0.049   4.869   2.211 -0.2525 -0.2037 -0.1968
   11BDD    C1424943   0.020   4.988   2.138  0.7373  0.0979 -0.5604
   11BDD    C1524944   0.155   4.937   2.094 -0.2646  0.3266 -0.1655
   11BDD    C1624945   0.231   5.055   2.026  0.1491 -0.3250  0.0110
   11BDD    C1724946  -0.296   4.923   2.221  0.4541  0.3784 -0.6108
   11BDD    C1824947  -0.429   4.931   2.298 -0.3774  0.1147 -0.6919
   11BDD    C1924948   0.078   4.649   2.813  0.0001  0.1919  0.1032
   11BDD    C2024949   0.096   4.686   2.968  0.1109  0.1323  0.0499
   11BDD    C2124950  -0.008   4.786   3.021  0.6804 -0.4499 -0.6263
   11BDD    C2224951   0.014   4.849   3.157 -0.6016  0.1749 -0.1625
   11BDD    C2324952  -0.105   4.917   3.210  0.0121 -0.1104  0.1918
   11BDD    C2424953  -0.061   4.998   3.334 -0.2454  0.4076 -0.1224
   11BDD    C2524954   0.131   4.567   3.058  0.3331  1.0583  0.5530
   11BDD    C2624955   0.252   4.491   3.017 -0.5151 -0.0830 -0.0472
   12TPM     C124956   0.585   4.973   2.773  0.3208 -0.6547  0.1327
   12TPM     C224957   0.569   4.883   2.875  0.6260 -0.8551  0.0044
   12TPM     C324958   0.692   4.852   2.944  0.7079 -0.4166  0.0612
   12TPM     C424959   0.801   4.919   2.896  0.4651  0.1180  0.2328
   12TPM     S124960   0.757   5.026   2.758  0.1116  0.1094  0.3367
   13BDTP    C124961   1.377   4.818   3.130 -0.0729  0.1503  0.3107
   13BDTP    C224962   1.405   4.880   3.005 -0.0653 -0.0925  0.1913
   13BDTP    C324963   1.305   4.917   2.916 -0.0615 -0.2362  0.1255
   13BDTP    C424964   1.172   4.893   2.952 -0.0652 -0.1363  0.1796
   13BDTP    C524965   1.143   4.831   3.077 -0.0728  0.1065  0.2991
   13BDTP    C624966   1.243   4.793   3.166 -0.0766  0.2503  0.3650
   13BDTP    C724967   1.052   4.924   2.876 -0.0624 -0.2500  0.1292
   13BDTP    C824968   0.937   4.888   2.938 -0.0674 -0.1061  0.2040
   13BDTP    S124969   0.963   4.811   3.100 -0.0764  0.1935  0.3490
   13BDTP    C924970   1.496   4.787   3.206 -0.0757  0.2640  0.3612
   13BDTP   C1024971   1.612   4.823   3.145 -0.0707  0.1203  0.2863
   13BDTP    S224972   1.585   4.900   2.982 -0.0617 -0.1796  0.1414
   14FTM     S124973   1.435   5.141   2.783  0.0590  0.1053  0.2466
   14FTM     C124974   1.424   5.138   2.603 -0.0272  0.0043  0.2532
   14FTM     C224975   1.350   5.031   2.563 -0.0106 -0.0426  0.3465
   14FTM     C324976   1.299   4.947   2.667  0.0681 -0.0035  0.4170
   14FTM     C424977   1.335   4.990   2.791  0.1134  0.0756  0.3762
   14FTM     F124978   1.324   5.004   2.429 -0.0659 -0.1234  0.3738
   14FTM     C524979   1.515   5.239   2.524 -0.0241  0.8001  0.5780
   14FTM     C624980   1.666   5.210   2.538 -0.0527  0.1381  0.5996
   14FTM     C724981   1.698   5.060   2.508  0.4827 -0.0097 -0.1213
   14FTM     C824982   1.730   4.981   2.641  0.2453  0.0972  0.6034
   14FTM     C924983   1.851   5.022   2.726  0.4010 -0.2325 -0.5115
   14FTM    C1024984   1.987   4.966   2.683  0.2757  0.1120 -0.3397
   14FTM    C1124985   1.773   5.315   2.495 -0.6132 -0.1932  0.3716
   14FTM    C1224986   1.751   5.451   2.554  0.2257 -0.0890  0.3102
   15FTM     S124987   1.297   4.768   3.456  0.0148 -0.1888  0.3376
   15FTM     C124988   1.192   4.651   3.543 -0.2573 -0.3868 -0.2404
   15FTM     C224989   1.104   4.594   3.457 -0.3487  0.1937 -0.5400
   15FTM     C324990   1.112   4.637   3.321 -0.2160  0.8129 -0.3431
   15FTM     C424991   1.210   4.730   3.302 -0.0165  0.7028  0.1225
   15FTM     F124992   1.010   4.500   3.497 -0.5580  0.1988 -1.0102
   15FTM     C524993   1.196   4.666   3.689 -0.6004  0.0436 -0.0630
   15FTM     C624994   1.279   4.568   3.774 -0.5162 -0.2030  0.1890
   15FTM     C724995   1.430   4.546   3.739 -0.6229 -0.1793  0.0554
   15FTM     C824996   1.475   4.457   3.627  0.5568  0.3166  0.5978
   15FTM     C924997   1.409   4.317   3.657 -0.1675  0.0119  0.7598
   15FTM    C1024998   1.441   4.212   3.553 -0.0360  0.4801  0.8729
   15FTM    C1124999   1.250   4.576   3.925  0.1838 -0.1799  0.4322
   15FTM    C1225000   1.307   4.699   3.997  0.6460 -0.3700  0.1401
   16TPM     C125001   1.741   4.823   3.207  0.4581  0.1865 -0.1449
   16TPM     C225002   1.863   4.827   3.146  0.5407 -0.1848 -0.0075
   16TPM     C325003   1.972   4.795   3.234  0.3468 -0.5076  0.1187
   16TPM     C425004   1.933   4.767   3.362  0.1164 -0.3822  0.0775
   16TPM     S125005   1.754   4.778   3.381  0.1264  0.1570 -0.1256
   17BDD     C125006   2.052   4.548   3.664  0.0093  0.0824 -0.0701
   17BDD     C225007   2.165   4.613   3.623  0.0245  0.1048  0.0066
   17BDD     C325008   2.142   4.703   3.511  0.0492  0.2272  0.0982
   17BDD     C425009   2.012   4.704   3.468  0.0526  0.2961  0.0901
   17BDD     S125010   1.910   4.594   3.565  0.0250  0.2128 -0.0328
   17BDD     C525011   2.298   4.596   3.685  0.0167  0.0145 -0.0017
   17BDD     C625012   2.250   4.783   3.450  0.0686  0.2711  0.1904
   17BDD     O125013   2.231   4.860   3.353  0.0900  0.3766  0.2694
   17BDD     O225014   2.317   4.519   3.782 -0.0047 -0.0908 -0.0806
   17BDD     C725015   2.383   4.766   3.512  0.0609  0.1811  0.1822
   17BDD     C825016   2.406   4.677   3.624  0.0361  0.0587  0.0905
   17BDD     C925017   2.536   4.675   3.667  0.0327 -0.0105  0.0986
   17BDD     S225018   2.638   4.785   3.570  0.0604  0.0729  0.2215
   17BDD    C1025019   2.496   4.831   3.471  0.0760  0.2034  0.2587
   17BDD    C1125020   2.529   4.937   3.366  0.3435 -0.2270 -0.8840
   17BDD    C1225021   2.607   4.904   3.239  0.2254 -0.6606  0.1576
   17BDD    C1325022   2.616   5.026   3.148 -0.2790  0.2326 -0.0266
   17BDD    C1425023   2.644   5.170   3.201  0.4927  0.0960  0.2052
   17BDD    C1525024   2.672   5.259   3.088  0.2206 -0.2216 -0.3014
   17BDD    C1625025   2.711   5.401   3.133  0.5513  0.0917 -0.0731
   17BDD    C1725026   2.578   4.769   3.170 -0.2637 -0.5381  0.4783
   17BDD    C1825027   2.438   4.748   3.118  0.3427  0.0300 -0.0021
   17BDD    C1925028   2.615   4.626   3.792  0.3889 -0.0654  0.6273
   17BDD    C2025029   2.567   4.686   3.931  0.0138  0.4271  0.1896
   17BDD    C2125030   2.619   4.822   3.960  0.2107 -0.4456  0.2269
   17BDD    C2225031   2.770   4.845   3.972  0.0214  0.1421  0.0757
   17BDD    C2325032   2.805   4.987   3.996 -0.4116 -0.5861  0.1890
   17BDD    C2425033   2.951   5.024   4.009  0.2817 -0.3744 -0.0563
   17BDD    C2525034   2.594   4.588   4.049  0.0512 -0.0652  0.1256
   17BDD    C2625035   2.514   4.458   4.044  0.5506 -0.0699 -0.4713
   18TPM     C125036   2.015   4.450   3.767  0.1285  0.0540 -0.1409
   18TPM     C225037   1.949   4.335   3.734 -0.2467  0.2640 -0.1265
   18TPM     C325038   1.958   4.232   3.835 -0.5346  0.2254 -0.1390
   18TPM     C425039   2.031   4.268   3.944 -0.3789 -0.0142 -0.1630
   18TPM     S125040   2.095   4.436   3.929  0.1475 -0.2112 -0.1717
   19BDTP    C125041   2.301   3.963   4.424  0.0111  0.0257  0.0516
   19BDTP    C225042   2.179   3.891   4.406  0.0176  0.0367 -0.0368
   19BDTP    C325043   2.086   3.925   4.308  0.1306 -0.0084 -0.1602
   19BDTP    C425044   2.115   4.034   4.224  0.2427 -0.0669 -0.1984
   19BDTP    C525045   2.237   4.105   4.242  0.2364 -0.0780 -0.1100
   19BDTP    C625046   2.330   4.072   4.340  0.1233 -0.0329  0.0134
   19BDTP    C725047   2.034   4.087   4.116  0.3707 -0.1207 -0.3212
   19BDTP    C825048   2.089   4.193   4.053  0.4596 -0.1708 -0.3291
   19BDTP    S125049   2.250   4.241   4.121  0.3937 -0.1570 -0.1822
   19BDTP    C925050   2.382   3.910   4.532 -0.1168  0.0793  0.1745
   19BDTP   C1025051   2.327   3.803   4.595 -0.2058  0.1295  0.1824
   19BDTP    S225052   2.166   3.755   4.527 -0.1398  0.1158  0.0355
   20FTM     S125053   1.985   3.659   4.269 -0.3503  0.1589  0.1492
   20FTM     C125054   1.807   3.640   4.247 -0.3641  0.4888 -0.0392
   20FTM     C225055   1.746   3.761   4.258 -0.1206  0.6506 -0.4153
   20FTM     C325056   1.832   3.873   4.284  0.0865  0.5310 -0.5760
   20FTM     C425057   1.963   3.837   4.293 -0.0013  0.2689 -0.3144
   20FTM     F125058   1.609   3.777   4.246 -0.0708  0.9168 -0.6363
   20FTM     C525059   1.751   3.510   4.201  0.7210  0.1614  0.4537
   20FTM     C625060   1.678   3.429   4.308 -0.1391 -0.6110  0.2540
   20FTM     C725061   1.760   3.389   4.433 -0.0109  0.3051  0.4841
   20FTM     C825062   1.675   3.350   4.553 -0.0464 -0.0694 -0.7186
   20FTM     C925063   1.643   3.203   4.563 -0.1489 -0.2868  0.0599
   20FTM    C1025064   1.598   3.171   4.701  0.0733  0.0062 -0.3848
   20FTM    C1125065   1.609   3.306   4.261  0.0884 -0.8481  0.5935
   20FTM    C1225066   1.498   3.320   4.157  0.4980 -0.4015 -0.1473
   21FTM     S125067   2.612   4.117   4.299  0.0671 -0.3589 -0.1178
   21FTM     C125068   2.675   4.280   4.343  0.4564 -0.5477  0.0357
   21FTM     C225069   2.575   4.356   4.397  0.6327 -0.3558  0.0972
   21FTM     C325070   2.447   4.293   4.407  0.4794 -0.0576  0.0303
   21FTM     C425071   2.448   4.165   4.359  0.1759 -0.0197 -0.0861
   21FTM     F125072   2.594   4.486   4.440  0.9433 -0.4389  0.2176
   21FTM     C525073   2.823   4.303   4.331 -0.3187  0.0477 -0.1280
   21FTM     C625074   2.910   4.263   4.455  1.1148 -0.0773  0.5659
   21FTM     C725075   2.870   4.327   4.588  0.0879 -0.1488 -0.3182
   21FTM     C825076   2.745   4.272   4.668  0.1933 -0.9373 -0.2985
   21FTM     C925077   2.741   4.123   4.688  1.0660 -0.2187 -0.6546
   21FTM    C1025078   2.611   4.072   4.757 -0.4826 -0.7442  0.2668
   21FTM    C1125079   3.062   4.259   4.431 -0.2623  0.6773 -0.5623
   21FTM    C1225080   3.157   4.166   4.515  0.1435 -0.2228 -0.0339
   22TPM     C125081   2.398   3.718   4.693 -0.1220 -0.0574 -0.5953
   22TPM     C225082   2.341   3.642   4.790 -0.3424 -0.0058 -0.6835
   22TPM     C325083   2.436   3.568   4.869 -0.5125  0.1436 -0.3386
   22TPM     C425084   2.565   3.589   4.833 -0.4219  0.2059  0.0127
   22TPM     S125085   2.578   3.704   4.694 -0.1122  0.0797 -0.0656
   23BDD     C125086   2.789   3.327   5.016  0.1427 -0.0182  0.1229
   23BDD     C225087   2.871   3.435   4.999  0.0997  0.0060  0.0722
   23BDD     C325088   2.806   3.546   4.931  0.0500 -0.0445  0.0373
   23BDD     C425089   2.676   3.520   4.898  0.0558 -0.1065  0.0619
   23BDD     S125090   2.626   3.356   4.949  0.1240 -0.1059  0.1304
   23BDD     C525091   3.012   3.441   5.044  0.1026  0.0765  0.0541
   23BDD     C625092   2.875   3.673   4.901 -0.0015 -0.0294 -0.0194
   23BDD     O125093   2.819   3.768   4.843 -0.0443 -0.0730 -0.0496
   23BDD     O225094   3.068   3.345   5.102  0.1455  0.1201  0.0843
   23BDD     C725095   3.016   3.679   4.946  0.0015  0.0410 -0.0374
   23BDD     C825096   3.081   3.568   5.014  0.0512  0.0916 -0.0025
   23BDD     C925097   3.211   3.593   5.047  0.0454  0.1536 -0.0269
   23BDD     S225098   3.261   3.758   4.996 -0.0227  0.1530 -0.0957
   23BDD    C1025099   3.098   3.787   4.929 -0.0414  0.0653 -0.0882
   23BDD    C1125100   3.076   3.931   4.878 -0.5381  0.0449  0.1544
   23BDD    C1225101   3.084   4.039   4.989 -0.1123 -0.1127  0.6204
   23BDD    C1325102   2.988   4.022   5.107  0.4333  0.5043 -0.3466
   23BDD    C1425103   2.834   4.041   5.084  0.1165 -0.6225 -0.4051
   23BDD    C1525104   2.750   4.006   5.205 -0.0899 -0.5489  0.0907
   23BDD    C1625105   2.609   4.002   5.164  0.4837 -0.5945 -0.4644
   23BDD    C1725106   3.096   4.178   4.926  0.0811  0.4340 -0.2842
   23BDD    C1825107   3.109   4.296   5.020  0.0326 -0.1849  0.1173
   23BDD    C1925108   3.321   3.518   5.114 -0.0103 -0.7556  0.1280
   23BDD    C2025109   3.438   3.486   5.029 -0.0731 -0.2638  0.3536
   23BDD    C2125110   3.548   3.402   5.098  0.0767 -0.2138 -0.2056
   23BDD    C2225111   3.612   3.452   5.226 -0.2509  0.3855 -0.2734
   23BDD    C2325112   3.734   3.368   5.282 -0.1217  0.4623 -0.4291
   23BDD    C2425113   3.858   3.358   5.191 -0.0562  0.2789 -0.3757
   23BDD    C2525114   3.392   3.420   4.893 -0.0494  0.4744  0.0592
   23BDD    C2625115   3.500   3.403   4.789  0.2242  0.4816  0.3665
   24TPM     C125116   2.797   3.193   5.080  0.0984 -0.1146  0.0290
   24TPM     C225117   2.823   3.188   5.214  0.0706 -0.1649  0.0324
   24TPM     C325118   2.777   3.066   5.277 -0.0154 -0.1537 -0.0074
   24TPM     C425119   2.717   2.979   5.191 -0.0530 -0.0947 -0.0411
   24TPM     S125120   2.713   3.044   5.023  0.0176 -0.0485 -0.0251
   25BDTP    C125121   2.423   2.434   5.298 -0.0453  0.1183  0.0527
   25BDTP    C225122   2.355   2.486   5.184  0.0295  0.0252 -0.0355
   25BDTP    C325123   2.389   2.607   5.125  0.0282  0.0067 -0.0746
   25BDTP    C425124   2.495   2.680   5.181 -0.0505  0.0835 -0.0243
   25BDTP    C525125   2.564   2.628   5.295 -0.1252  0.1764  0.0639
   25BDTP    C625126   2.530   2.507   5.353 -0.1239  0.1950  0.1030
   25BDTP    C725127   2.549   2.808   5.138 -0.0676  0.0817 -0.0506
   25BDTP    C825128   2.652   2.853   5.212 -0.1505  0.1677  0.0129
   25BDTP    S125129   2.697   2.741   5.348 -0.2186  0.2632  0.1148
   25BDTP    C925130   2.370   2.306   5.341 -0.0281  0.1200  0.0790
   25BDTP   C1025131   2.266   2.261   5.266  0.0548  0.0340  0.0156
   25BDTP    S225132   2.221   2.373   5.131  0.1228 -0.0615 -0.0864
   26FTM     S125133   2.267   2.810   4.958  0.0922  0.1292 -0.1263
   26FTM     C125134   2.270   2.775   4.781  0.1183  0.2046 -0.1406
   26FTM     C225135   2.321   2.651   4.759 -0.1396  0.1029 -0.1687
   26FTM     C325136   2.359   2.577   4.876 -0.3678 -0.0362 -0.1804
   26FTM     C425137   2.337   2.647   4.991 -0.2817 -0.0414 -0.1607
   26FTM     F125138   2.335   2.597   4.632 -0.1845  0.1300 -0.1851
   26FTM     C525139   2.203   2.861   4.674 -0.2534  0.3226 -0.3075
   26FTM     C625140   2.289   2.977   4.613  0.3433  0.2308  0.4073
   26FTM     C725141   2.330   3.088   4.711  0.5930  0.4810  0.1273
   26FTM     C825142   2.219   3.169   4.786  0.5379  0.1298 -0.2548
   26FTM     C925143   2.152   3.261   4.690 -0.1999 -0.3256 -0.3876
   26FTM    C1025144   2.040   3.343   4.757  0.7572  0.1941  0.1282
   26FTM    C1125145   2.398   2.962   4.513 -0.0873  0.2337 -0.3192
   26FTM    C1225146   2.372   2.895   4.383  0.7016  0.4741  0.0075
   27FTM     S125147   2.702   2.296   5.451 -0.2580  0.0656  0.1668
   27FTM     C125148   2.773   2.321   5.615 -0.1046 -0.3818  0.1706
   27FTM     C225149   2.726   2.436   5.669 -0.0216 -0.5065  0.5139
   27FTM     C325150   2.634   2.511   5.589 -0.0712 -0.2676  0.7883
   27FTM     C425151   2.609   2.450   5.469 -0.1961  0.0504  0.6508
   27FTM     F125152   2.764   2.482   5.795  0.1040 -0.8444  0.6000
   27FTM     C525153   2.882   2.236   5.674 -0.1597  0.4659  0.1833
   27FTM     C625154   2.937   2.103   5.614 -0.3063  0.8472  0.0285
   27FTM     C725155   3.068   2.055   5.670  0.0413  0.6781 -0.4263
   27FTM     C825156   3.189   2.151   5.649  0.4248  0.1105 -0.4456
   27FTM     C925157   3.322   2.080   5.683  0.1353  0.3059 -0.5489
   27FTM    C1025158   3.444   2.170   5.671 -0.5528  0.1621  0.7026
   27FTM    C1125159   2.829   2.000   5.591 -0.4390 -0.6022 -0.1884
   27FTM    C1225160   2.867   1.883   5.504  0.4591 -0.1679  0.5414
   28TPM     C125161   2.186   2.134   5.265  0.2505 -0.1015 -0.2162
   28TPM     C225162   2.187   2.033   5.356  0.7687 -0.2198 -0.3484
   28TPM     C325163   2.094   1.928   5.328  0.7879 -0.3072 -0.0936
   28TPM     C425164   2.021   1.948   5.214  0.2844 -0.2556  0.2328
   28TPM     S125165   2.065   2.104   5.134 -0.2573 -0.0914  0.2441
   29BDD     C125166   1.763   1.647   5.202  0.0247  0.1455  0.2046
   29BDD     C225167   1.729   1.726   5.095  0.1062  0.0488  0.1065
   29BDD     C325168   1.818   1.840   5.078  0.3337 -0.1646 -0.1459
   29BDD     C425169   1.918   1.846   5.171  0.4223 -0.2275 -0.2366
   29BDD     S125170   1.908   1.710   5.287  0.2270 -0.0238 -0.0120
   29BDD     C525171   1.615   1.700   5.006 -0.0220  0.1489  0.2409
   29BDD     C625172   1.800   1.939   4.969  0.4549 -0.2984 -0.2881
   29BDD     O125173   1.877   2.037   4.954  0.6511 -0.4824 -0.5058
   29BDD     O225174   1.538   1.602   5.021 -0.2182  0.3329  0.4585
   29BDD     C725175   1.686   1.913   4.880  0.3267 -0.1982 -0.1535
   29BDD     C825176   1.597   1.799   4.897  0.0992  0.0151  0.0987
   29BDD     C925177   1.497   1.793   4.804  0.0106  0.0780  0.1893
   29BDD     S225178   1.507   1.929   4.688  0.2058 -0.1256 -0.0352
   29BDD    C1025179   1.652   1.992   4.774  0.4082 -0.2950 -0.2518
   29BDD    C1125180   1.707   2.115   4.704 -0.8931 -0.5718  0.3657
   29BDD    C1225181   1.639   2.244   4.741  1.1921 -0.4049 -0.1914
   29BDD    C1325182   1.682   2.375   4.664 -0.4570  0.1694 -0.5438
   29BDD    C1425183   1.710   2.371   4.520  0.2698  0.4439  0.1601
   29BDD    C1525184   1.792   2.490   4.468  0.3533 -0.3490 -0.4432
   29BDD    C1625185   1.844   2.492   4.327 -0.4985 -0.3462  0.1165
   29BDD    C1725186   1.608   2.276   4.892 -0.2209  0.7998  0.1153
   29BDD    C1825187   1.727   2.328   4.984 -0.0794  0.1969 -0.3200
   29BDD    C1925188   1.387   1.689   4.771  0.2550 -0.7513  0.2549
   29BDD    C2025189   1.411   1.588   4.653 -0.3710 -0.1602  0.0095
   29BDD    C2125190   1.562   1.545   4.620  0.1133  0.3198 -0.4174
   29BDD    C2225191   1.622   1.461   4.726  0.1866  0.1332  0.1276
   29BDD    C2325192   1.774   1.445   4.711  0.0166 -0.0656 -0.3844
   29BDD    C2425193   1.829   1.368   4.824  0.1646  0.1100 -0.0617
   29BDD    C2525194   1.299   1.474   4.623 -0.6361 -0.6488  0.2777
   29BDD    C2625195   1.297   1.389   4.498 -0.3326 -0.2131  0.0533
   30TPM     C125196   1.723   1.517   5.255 -0.1179 -0.2233 -0.0878
   30TPM     C225197   1.678   1.413   5.178  0.0502 -0.3312 -0.0415
   30TPM     C325198   1.674   1.287   5.248  0.1571 -0.2866  0.0457
   30TPM     C425199   1.717   1.295   5.377  0.0707 -0.1447  0.0660
   30TPM     S125200   1.765   1.463   5.422 -0.1543 -0.0556 -0.0243
   31BDTP    C125201   1.838   0.816   5.771  0.0077 -0.0739  0.0386
   31BDTP    C225202   1.943   0.908   5.799  0.0158 -0.0962  0.0806
   31BDTP    C325203   1.957   1.029   5.733  0.0430 -0.0799  0.1160
   31BDTP    C425204   1.862   1.062   5.634  0.0632 -0.0398  0.1097
   31BDTP    C525205   1.757   0.970   5.606  0.0551 -0.0175  0.0679
   31BDTP    C625206   1.743   0.849   5.672  0.0278 -0.0338  0.0325
   31BDTP    C725207   1.856   1.182   5.552  0.0926 -0.0165  0.1415
   31BDTP    C825208   1.752   1.184   5.465  0.1068  0.0216  0.1255
   31BDTP    S125209   1.648   1.035   5.474  0.0849  0.0334  0.0684
   31BDTP    C925210   1.844   0.697   5.852 -0.0217 -0.0972  0.0070
   31BDTP   C1025211   1.948   0.694   5.939 -0.0359 -0.1353  0.0226
   31BDTP    S225212   2.052   0.843   5.930 -0.0140 -0.1472  0.0801
   32FTM     S125213   2.171   1.190   5.629 -0.0468  0.0394  0.0558
   32FTM     C125214   2.264   1.287   5.748 -0.1857  0.4072 -0.1346
   32FTM     C225215   2.220   1.262   5.874 -0.1020  0.5378 -0.0783
   32FTM     C325216   2.113   1.167   5.885  0.0708  0.3641  0.1119
   32FTM     C425217   2.075   1.118   5.764  0.1214  0.0915  0.2043
   32FTM     F125218   2.273   1.323   5.986 -0.1771  0.8225 -0.1954
   32FTM     C525219   2.376   1.384   5.698  0.5182  0.0636  0.1037
   32FTM     C625220   2.346   1.525   5.649  0.1137  0.6562  0.0241
   32FTM     C725221   2.460   1.621   5.640 -0.2822  0.3821  0.7164
   32FTM     C825222   2.521   1.641   5.781 -0.2703  0.2913 -0.1129
   32FTM     C925223   2.614   1.756   5.793 -0.3866  0.5828  0.3259
   32FTM    C1025224   2.711   1.742   5.913  0.0913  0.0302 -0.1170
   32FTM    C1125225   2.249   1.528   5.537  0.8952 -0.0519  0.0385
   32FTM    C1225226   2.121   1.597   5.586  0.0257  0.4350  0.0658
   33FTM     S125227   1.627   0.676   5.465  0.1859  0.2049 -0.0347
   33FTM     C125228   1.499   0.564   5.523  0.2683 -0.0243 -0.2929
   33FTM     C225229   1.477   0.583   5.656  0.3442 -0.4353 -0.2176
   33FTM     C325230   1.556   0.684   5.719  0.3430 -0.5932  0.0390
   33FTM     C425231   1.642   0.744   5.632  0.2635 -0.2933  0.1645
   33FTM     F125232   1.383   0.511   5.728  0.4194 -0.6929 -0.3766
   33FTM     C525233   1.425   0.467   5.433 -0.9276 -0.7276  0.2373
   33FTM     C625234   1.355   0.528   5.315 -0.4446 -0.0848  0.6754
   33FTM     C725235   1.325   0.422   5.206 -0.1141 -0.2652 -0.0188
   33FTM     C825236   1.233   0.295   5.237 -0.3357 -0.5959  0.0519
   33FTM     C925237   1.224   0.197   5.119 -0.1063 -0.1856  0.3709
   33FTM    C1025238   1.179   0.056   5.155 -0.0029  0.2819 -0.0257
   33FTM    C1125239   1.253   0.636   5.348  0.1572  0.3019  0.3892
   33FTM    C1225240   1.199   0.704   5.214 -0.1184  0.4399  0.2004
   34TPM     C125241   1.995   0.593   6.031  0.0367  0.3245 -0.0805
   34TPM     C225242   2.006   0.458   6.017 -0.3051  0.3133 -0.2620
   34TPM     C325243   2.063   0.392   6.131 -0.6390 -0.0087 -0.2778
   34TPM     C425244   2.095   0.476   6.233 -0.5519 -0.2432 -0.1082
   34TPM     S125245   2.056   0.648   6.192 -0.0373 -0.0740  0.0858
   35BDD     C125246   2.372   0.494   6.513 -0.1765 -0.0076 -0.0460
   35BDD     C225247   2.317   0.369   6.525 -0.1126 -0.0319 -0.0117
   35BDD     C325248   2.215   0.340   6.427 -0.0568 -0.1333 -0.0409
   35BDD     C425249   2.192   0.444   6.341 -0.0791 -0.1848 -0.0970
   35BDD     S125250   2.298   0.584   6.377 -0.1712 -0.1099 -0.1172
   35BDD     C525251   2.358   0.271   6.628 -0.1005  0.0372  0.0492
   35BDD     C625252   2.143   0.211   6.422  0.0164 -0.1754 -0.0119
   35BDD     O125253   2.054   0.187   6.337  0.0645 -0.2628 -0.0371
   35BDD     O225254   2.447   0.296   6.713 -0.1485  0.1246  0.0744
   35BDD     C725255   2.184   0.113   6.525  0.0285 -0.1063  0.0491
   35BDD     C825256   2.286   0.142   6.624 -0.0273 -0.0049  0.0783
   35BDD     C925257   2.309   0.038   6.710 -0.0051  0.0466  0.1346
   35BDD     S225258   2.203  -0.102   6.674  0.0871 -0.0281  0.1547
   35BDD    C1025259   2.129  -0.011   6.538  0.0924 -0.1307  0.0836
   35BDD    C1125260   2.018  -0.089   6.471 -0.3566 -0.9882  0.1690
   35BDD    C1225261   1.895  -0.120   6.557 -0.6941  0.0503 -0.3083
   35BDD    C1325262   1.845  -0.005   6.648  0.0199  0.4255 -0.2752
   35BDD    C1425263   1.783  -0.039   6.784  0.2692 -0.0923 -0.0523
   35BDD    C1525264   1.866  -0.123   6.884 -0.0153  0.4217  0.1933
   35BDD    C1625265   1.803  -0.135   7.021 -0.0925  0.1404 -0.4830
   35BDD    C1725266   1.792  -0.202   6.467  0.1459  0.5966 -0.0741
   35BDD    C1825267   1.676  -0.260   6.552 -0.2549  0.1991 -0.4629
   35BDD    C1925268   2.401   0.016   6.824 -0.9283  0.0299 -0.2563
   35BDD    C2025269   2.368   0.089   6.958 -0.2533 -0.8114  0.0870
   35BDD    C2125270   2.488   0.102   7.053  0.1865  0.0962 -0.2006
   35BDD    C2225271   2.615   0.172   7.001 -0.4453 -0.2773  0.0172
   35BDD    C2325272   2.730   0.151   7.099 -0.2058 -0.2270  0.5669
   35BDD    C2425273   2.854   0.212   7.047  0.0840  0.2003 -0.1025
   35BDD    C2525274   2.232   0.054   7.019  0.4159 -0.8655 -0.3664
   35BDD    C2625275   2.223  -0.084   7.095  0.3485 -0.7855  1.1273
   36TPM     C125276   2.460   0.578   6.591 -0.1804  0.0890  0.2153
   36TPM     C225277   2.425   0.707   6.619  0.0309  0.1321  0.2860
   36TPM     C325278   2.520   0.776   6.702  0.2286 -0.0153  0.1827
   36TPM     C425279   2.628   0.701   6.736  0.1683 -0.1708  0.0333
   36TPM     S125280   2.618   0.535   6.666 -0.1456 -0.1429  0.0112
   37BDTP    C125281   3.104   0.926   7.072 -0.2053  0.1640 -0.0559
   37BDTP    C225282   3.155   0.800   7.029 -0.2325  0.1054  0.0845
   37BDTP    C325283   3.080   0.711   6.953 -0.2768  0.0055  0.2427
   37BDTP    C425284   2.950   0.749   6.917 -0.2954 -0.0388  0.2638
   37BDTP    C525285   2.899   0.875   6.959 -0.2683  0.0197  0.1234
   37BDTP    C625286   2.974   0.964   7.036 -0.2240  0.1196 -0.0350
   37BDTP    C725287   2.854   0.673   6.838 -0.3404 -0.1409  0.4155
   37BDTP    C825288   2.735   0.736   6.820 -0.3484 -0.1615  0.3960
   37BDTP    S125289   2.729   0.900   6.900 -0.2999 -0.0545  0.1826
   37BDTP    C925290   3.200   1.001   7.151 -0.1603  0.2660 -0.2077
   37BDTP   C1025291   3.319   0.938   7.169 -0.1523  0.2866 -0.1880
   37BDTP    S225292   3.326   0.775   7.089 -0.2009  0.1797  0.0251
   38FTM     S125293   3.214   0.468   7.038  0.0017  0.0620  0.2170
   38FTM     C125294   3.229   0.339   6.913  0.1184 -0.1625  0.4612
   38FTM     C225295   3.178   0.382   6.795  0.2365 -0.3708  0.3318
   38FTM     C325296   3.126   0.516   6.794  0.2432 -0.3685  0.0420
   38FTM     C425297   3.137   0.576   6.916  0.1265 -0.1514 -0.0538
   38FTM     F125298   3.176   0.304   6.680  0.3455 -0.5758  0.4683
   38FTM     C525299   3.277   0.200   6.928  0.0020 -0.2103  0.3570
   38FTM     C625300   3.426   0.170   6.914 -0.6122  0.3304  0.1831
   38FTM     C725301   3.525   0.254   6.996 -1.1717  0.1377 -0.4064
   38FTM     C825302   3.512   0.248   7.149  0.1828 -0.0587  0.3081
   38FTM     C925303   3.591   0.362   7.216  0.1369 -0.4265  0.3633
   38FTM    C1025304   3.534   0.394   7.349  0.7130  0.2410 -0.4001
   38FTM    C1125305   3.456   0.025   6.910  0.6679 -0.3374  0.6017
   38FTM    C1225306   3.404  -0.054   6.787  0.0674 -0.8154  0.1176
   39FTM     S125307   2.901   1.139   7.247  0.1457  0.6274 -0.0868
   39FTM     C125308   2.833   1.298   7.196 -0.6639  0.1909 -0.4255
   39FTM     C225309   2.827   1.305   7.061 -0.9025 -0.2036 -0.4386
   39FTM     C325310   2.874   1.190   6.989 -0.4805 -0.1907 -0.1920
   39FTM     C425311   2.916   1.091   7.073  0.1002  0.2273  0.0167
   39FTM     F125312   2.780   1.417   6.993 -1.5172 -0.5998 -0.6746
   39FTM     C525313   2.826   1.414   7.288 -0.4974 -0.0914 -0.7742
   39FTM     C625314   2.702   1.492   7.329  0.1721  0.6769 -0.1428
   39FTM     C725315   2.733   1.621   7.400  0.4297  0.1832  0.3324
   39FTM     C825316   2.763   1.740   7.302 -0.4102  0.2901 -0.3914
   39FTM     C925317   2.647   1.778   7.220  0.2034 -0.4219 -0.0579
   39FTM    C1025318   2.670   1.921   7.167  0.0619 -0.6920 -0.5034
   39FTM    C1125319   2.594   1.406   7.400  0.7829 -0.2429 -0.4969
   39FTM    C1225320   2.457   1.476   7.426  0.2042 -0.3134  0.4603
   40TPM     C125321   3.438   0.979   7.235 -0.4623 -0.2361  0.4328
   40TPM     C225322   3.562   0.926   7.216 -0.5708 -0.4331  0.2630
   40TPM     C325323   3.661   0.977   7.308 -0.3052 -0.3839 -0.0472
   40TPM     C425324   3.613   1.068   7.397  0.0061 -0.1494 -0.1137
   40TPM     S125325   3.437   1.098   7.371 -0.0125  0.0289  0.2127
   41BDD     C125326   3.870   1.154   7.679 -0.0804 -0.1601  0.1224
   41BDD     C225327   3.804   1.271   7.656 -0.0796 -0.1562  0.1402
   41BDD     C325328   3.702   1.260   7.553 -0.0460 -0.1277  0.1040
   41BDD     C425329   3.693   1.134   7.499 -0.0216 -0.1103  0.0593
   41BDD     S125330   3.811   1.022   7.574 -0.0390 -0.1284  0.0594
   41BDD     C525331   3.831   1.397   7.728 -0.1099 -0.1785  0.1910
   41BDD     C625332   3.618   1.374   7.511 -0.0394 -0.1188  0.1149
   41BDD     O125333   3.530   1.364   7.423 -0.0103 -0.0942  0.0836
   41BDD     O225334   3.918   1.407   7.817 -0.1390 -0.2031  0.2223
   41BDD     C725335   3.645   1.500   7.583 -0.0696 -0.1411  0.1658
   41BDD     C825336   3.746   1.511   7.686 -0.1033 -0.1696  0.2021
   41BDD     C925337   3.756   1.637   7.740 -0.1277 -0.1870  0.2470
   41BDD     S225338   3.638   1.749   7.666 -0.1104 -0.1689  0.2467
   41BDD    C1025339   3.578   1.617   7.560 -0.0689 -0.1372  0.1836
   41BDD    C1125340   3.475   1.662   7.460 -0.0730 -0.4782 -0.4152
   41BDD    C1225341   3.328   1.666   7.498 -0.2962  0.0014 -0.2676
   41BDD    C1325342   3.245   1.734   7.392  0.8880 -0.0410 -0.4157
   41BDD    C1425343   3.199   1.656   7.262 -0.0381 -0.2243  0.0860
   41BDD    C1525344   3.119   1.750   7.176 -0.2760 -0.7815  0.2308
   41BDD    C1625345   3.068   1.684   7.057 -0.5114  0.1591  0.8895
   41BDD    C1725346   3.288   1.533   7.554  0.1433 -0.4383 -0.2246
   41BDD    C1825347   3.142   1.525   7.615  0.1197 -0.4816 -0.0493
   41BDD    C1925348   3.839   1.704   7.851 -0.1459 -0.8514 -0.2660
   41BDD    C2025349   3.773   1.704   7.993  0.3654 -0.2635 -0.3945
   41BDD    C2125350   3.840   1.796   8.107  0.5094 -0.4041  0.6145
   41BDD    C2225351   3.907   1.924   8.070  0.1223 -0.0923  0.1321
   41BDD    C2325352   3.815   2.026   8.003  0.4075 -0.0864 -0.6767
   41BDD    C2425353   3.858   2.166   8.029  0.0790  0.3711  0.3674
   41BDD    C2525354   3.722   1.566   8.051  0.0150 -0.3055 -0.1081
   41BDD    C2625355   3.644   1.569   8.180 -0.2324 -0.1388  0.2726
   42TPM     C125356   3.982   1.115   7.767 -0.1963  0.2546  0.1250
   42TPM     C225357   3.971   1.109   7.903 -0.3686 -0.0639  0.0993
   42TPM     C325358   4.070   1.024   7.966 -0.3995 -0.1491  0.0329
   42TPM     C425359   4.156   0.966   7.877 -0.2507  0.1044  0.0081
   42TPM     S125360   4.119   1.013   7.707 -0.0585  0.4734  0.0669
   43BDTP    C125361   4.554   0.521   8.084  0.3403 -0.0065  0.0448
   43BDTP    C225362   4.563   0.503   7.943  0.0814 -0.0517  0.0334
   43BDTP    C325363   4.490   0.580   7.853 -0.0576 -0.0571  0.1398
   43BDTP    C425364   4.405   0.679   7.904  0.0641 -0.0160  0.2636
   43BDTP    C525365   4.396   0.697   8.045  0.3231  0.0292  0.2754
   43BDTP    C625366   4.469   0.620   8.135  0.4619  0.0346  0.1688
   43BDTP    C725367   4.321   0.771   7.831 -0.0407 -0.0127  0.3876
   43BDTP    C825368   4.250   0.856   7.909  0.1246  0.0322  0.4904
   43BDTP    S125369   4.280   0.832   8.086  0.4367  0.0766  0.4447
   43BDTP    C925370   4.639   0.429   8.158  0.4454 -0.0097 -0.0789
   43BDTP   C1025371   4.710   0.344   8.079  0.2799 -0.0547 -0.1817
   43BDTP    S225372   4.679   0.369   7.902 -0.0323 -0.0991 -0.1360
   44FTM     S125373   4.675   0.568   7.633 -0.0923 -0.0147 -0.1272
   44FTM     C125374   4.596   0.559   7.472 -0.4967  0.0061  0.0678
   44FTM     C225375   4.461   0.558   7.487 -0.4615 -0.0096  0.4063
   44FTM     C325376   4.412   0.564   7.621 -0.1258 -0.0381  0.5314
   44FTM     C425377   4.513   0.569   7.713  0.1034 -0.0444  0.2808
   44FTM     F125378   4.373   0.551   7.379 -0.7311  0.0008  0.6227
   44FTM     C525379   4.680   0.543   7.347 -0.0975 -0.2822 -0.4792
   44FTM     C625380   4.726   0.398   7.315  0.0040 -0.2335  0.4500
   44FTM     C725381   4.619   0.283   7.319  0.2332  0.2729 -0.0765
   44FTM     C825382   4.504   0.300   7.218 -0.2827 -0.6154  0.3960
   44FTM     C925383   4.422   0.175   7.186 -0.0689 -0.5884 -0.3036
   44FTM    C1025384   4.348   0.208   7.053 -0.3227  0.0476 -0.6731
   44FTM    C1125385   4.821   0.406   7.193 -0.0326  0.3103  0.0537
   44FTM    C1225386   4.903   0.275   7.163  0.1090  0.7809 -0.9471
   45FTM     S125387   4.459   0.535   8.412  0.2298 -0.0568 -0.0987
   45FTM     C125388   4.487   0.665   8.533  0.3754 -0.4346  0.2765
   45FTM     C225389   4.502   0.785   8.470  0.2780 -0.2330  0.6330
   45FTM     C325390   4.492   0.783   8.327  0.0888  0.2166  0.6363
   45FTM     C425391   4.469   0.658   8.279  0.0398  0.3641  0.2699
   45FTM     F125392   4.525   0.904   8.539  0.3544 -0.4436  0.9775
   45FTM     C525393   4.482   0.636   8.681  0.0541 -0.2588 -0.1701
   45FTM     C625394   4.596   0.651   8.783 -0.9307  0.6968 -0.3509
   45FTM     C725395   4.558   0.612   8.933 -0.1219 -0.2833  0.0459
   45FTM     C825396   4.542   0.462   8.966  0.5435 -1.2811  0.2470
   45FTM     C925397   4.656   0.372   8.925  0.0048 -0.3038 -0.2580
   45FTM    C1025398   4.638   0.238   8.982  0.0456  0.9336 -0.4625
   45FTM    C1125399   4.699   0.765   8.767  0.4341 -0.2142 -0.5862
   45FTM    C1225400   4.839   0.722   8.809 -0.0465 -0.2263  0.2628
   46TPM     C125401   4.803   0.245   8.128 -0.1501  0.2384 -0.2739
   46TPM     C225402   4.830   0.217   8.259 -0.4495  0.3323 -0.1898
   46TPM     C325403   4.920   0.106   8.276 -0.5865  0.2661  0.1006
   46TPM     C425404   4.961   0.049   8.159 -0.3915  0.1217  0.2375
   46TPM     S125405   4.889   0.133   8.017 -0.0169  0.0576  0.0089
   47BDD     C125406   5.057  -0.327   8.090 -0.0423 -0.0468  0.1578
   47BDD     C225407   5.136  -0.289   8.195 -0.0498 -0.0114  0.1509
   47BDD     C325408   5.115  -0.151   8.235 -0.0153  0.0184  0.0691
   47BDD     C425409   5.020  -0.086   8.161  0.0181  0.0054  0.0154
   47BDD     S125410   4.951  -0.193   8.035  0.0083 -0.0453  0.0632
   47BDD     C525411   5.234  -0.377   8.261 -0.0889 -0.0038  0.2186
   47BDD     C625412   5.189  -0.089   8.347 -0.0163  0.0587  0.0474
   47BDD     O125413   5.171   0.030   8.382  0.0136  0.0842 -0.0231
   47BDD     O225414   5.252  -0.496   8.226 -0.1189 -0.0296  0.2890
   47BDD     C725415   5.287  -0.177   8.413 -0.0554  0.0660  0.1152
   47BDD     C825416   5.308  -0.315   8.372 -0.0901  0.0365  0.1969
   47BDD     C925417   5.403  -0.380   8.447 -0.1233  0.0494  0.2508
   47BDD     S225418   5.472  -0.273   8.573 -0.1136  0.1002  0.2029
   47BDD    C1025419   5.366  -0.139   8.518 -0.0628  0.1013  0.1080
   47BDD    C1125420   5.379  -0.017   8.602 -0.8961 -0.1328 -0.6546
   47BDD    C1225421   5.273  -0.006   8.711 -0.5677 -0.0779 -0.5379
   47BDD    C1325422   5.263   0.145   8.748  0.9020  0.2480 -0.3216
   47BDD    C1425423   5.162   0.194   8.854 -0.2166  0.8111  0.2670
   47BDD    C1525424   5.141   0.339   8.877 -0.2224 -0.3837 -0.3799
   47BDD    C1625425   5.080   0.372   9.013 -0.3426  0.2973 -0.7406
   47BDD    C1725426   5.279  -0.104   8.829 -0.5966  0.0695 -0.3779
   47BDD    C1825427   5.394  -0.092   8.929 -0.8899 -0.6647 -0.0287
   47BDD    C1925428   5.464  -0.517   8.437 -0.6404 -0.3427 -0.9112
   47BDD    C2025429   5.475  -0.594   8.575 -0.4066 -1.4157 -0.3329
   47BDD    C2125430   5.618  -0.634   8.613  0.1990 -0.3227 -0.5099
   47BDD    C2225431   5.644  -0.661   8.770  0.2691  0.0244  0.3517
   47BDD    C2325432   5.649  -0.540   8.860 -0.0671  0.0830 -0.0936
   47BDD    C2425433   5.671  -0.591   9.002  0.0425 -0.0563  0.5581
   47BDD    C2525434   5.355  -0.656   8.645 -0.5499 -0.0882  0.0493
   47BDD    C2625435   5.328  -0.802   8.630  0.2326  0.6974 -0.0619
   48TPM     C125436   5.037  -0.446   8.008 -0.4624 -0.2730  0.4861
   48TPM     C225437   4.998  -0.566   8.061 -0.2581 -0.4370  0.2687
   48TPM     C325438   4.997  -0.673   7.966  0.0880 -0.3028  0.1084
   48TPM     C425439   5.035  -0.636   7.840  0.1476 -0.0368  0.2043
   48TPM     S125440   5.075  -0.461   7.832 -0.2317  0.0663  0.5061
   49BDTP    C125441   5.015  -1.083   7.398  0.1583  0.0422 -0.0141
   49BDTP    C225442   4.990  -0.965   7.322  0.1396  0.0620  0.0228
   49BDTP    C325443   4.989  -0.838   7.379  0.0852  0.0410  0.0688
   49BDTP    C425444   5.015  -0.827   7.517  0.0472 -0.0007  0.0794
   49BDTP    C525445   5.040  -0.945   7.592  0.0658 -0.0207  0.0426
   49BDTP    C625446   5.041  -1.072   7.536  0.1202 -0.0000 -0.0036
   49BDTP    C725447   5.020  -0.707   7.597 -0.0111 -0.0286  0.1247
   49BDTP    C825448   5.047  -0.728   7.728 -0.0370 -0.0679  0.1234
   49BDTP    S125449   5.070  -0.904   7.768  0.0091 -0.0753  0.0650
   49BDTP    C925450   5.010  -1.203   7.317  0.2165  0.0696 -0.0594
   49BDTP   C1025451   4.983  -1.181   7.186  0.2422  0.1090 -0.0581
   49BDTP    S225452   4.960  -1.005   7.147  0.1964  0.1164  0.0003
   50FTM     S125453   4.845  -0.589   7.312  0.4161 -0.0491 -0.0272
   50FTM     C125454   4.911  -0.503   7.168  0.0229  0.3516  0.0276
   50FTM     C225455   5.012  -0.575   7.113  0.0117  0.6006 -0.3301
   50FTM     C325456   5.045  -0.699   7.179  0.3010  0.4973 -0.6607
   50FTM     C425457   4.965  -0.722   7.287  0.5417  0.1586 -0.5524
   50FTM     F125458   5.082  -0.534   7.001 -0.2612  0.9367 -0.3794
   50FTM     C525459   4.848  -0.372   7.122 -0.7443 -0.8017  0.4299
   50FTM     C625460   4.879  -0.243   7.209  0.4658  0.5192  0.1265
   50FTM     C725461   4.858  -0.252   7.361 -0.1370 -0.2098 -0.3799
   50FTM     C825462   4.911  -0.134   7.452  0.1785  0.4733  0.3517
   50FTM     C925463   4.857  -0.153   7.596 -0.3528  0.8458  0.4400
   50FTM    C1025464   4.888  -0.033   7.690 -0.3306  0.0922 -0.0265
   50FTM    C1125465   4.808  -0.117   7.155 -0.1308  0.0279  0.4203
   50FTM    C1225466   4.858  -0.068   7.016 -0.7937  0.2248  0.9238
   51FTM     S125467   4.937  -1.248   7.735 -0.2793 -0.1952  0.1213
   51FTM     C125468   5.038  -1.389   7.782  0.1281  0.0007 -0.1528
   51FTM     C225469   5.155  -1.388   7.712 -0.0266  0.2756 -0.4103
   51FTM     C325470   5.172  -1.280   7.620 -0.4611  0.3493 -0.4103
   51FTM     C425471   5.066  -1.195   7.619 -0.6449  0.1231 -0.1440
   51FTM     F125472   5.252  -1.486   7.726  0.2158  0.4771 -0.6616
   51FTM     C525473   4.976  -1.496   7.872  1.0618  0.6019  1.1271
   51FTM     C625474   4.965  -1.488   8.022 -1.0047 -0.6487 -0.3945
   51FTM     C725475   4.921  -1.614   8.089 -0.2996 -0.2486 -0.1369
   51FTM     C825476   5.020  -1.738   8.095  0.4367  0.0248 -0.1943
   51FTM     C925477   4.961  -1.850   8.181 -0.0180 -1.1664 -0.4605
   51FTM    C1025478   5.055  -1.966   8.209 -0.0260 -0.3991  0.6710
   51FTM    C1125479   4.902  -1.354   8.076 -0.0129 -0.2684 -0.1122
   51FTM    C1225480   4.873  -1.332   8.233 -0.2389  0.5286  0.1984
   52TPM     C125481   4.969  -1.275   7.076 -0.2406  0.1911 -0.0333
   52TPM     C225482   4.976  -1.411   7.085 -0.5920  0.1862  0.2375
   52TPM     C325483   4.975  -1.477   6.957 -0.2424 -0.0346  0.3459
   52TPM     C425484   4.967  -1.392   6.851  0.3753 -0.1976  0.1578
   52TPM     S125485   4.960  -1.220   6.905  0.5652 -0.0846 -0.1734
   53BDD     C125486   4.963  -1.632   6.543 -0.0626 -0.0254  0.0773
   53BDD     C225487   4.936  -1.510   6.489 -0.0739 -0.0396  0.0511
   53BDD     C325488   4.929  -1.403   6.588 -0.0664 -0.0165  0.0268
   53BDD     C425489   4.950  -1.446   6.716 -0.0495  0.0153  0.0345
   53BDD     S125490   4.980  -1.623   6.722 -0.0418  0.0175  0.0731
   53BDD     C525491   4.917  -1.486   6.345 -0.0920 -0.0744  0.0477
   53BDD     C625492   4.901  -1.263   6.551 -0.0762 -0.0260 -0.0036
   53BDD     O125493   4.895  -1.171   6.636 -0.0696 -0.0062 -0.0246
   53BDD     O225494   4.923  -1.577   6.260 -0.0986 -0.0947  0.0688
   53BDD     C725495   4.882  -1.239   6.407 -0.0942 -0.0610 -0.0069
   53BDD     C825496   4.889  -1.345   6.308 -0.1019 -0.0844  0.0176
   53BDD     C925497   4.868  -1.302   6.180 -0.1186 -0.1154  0.0098
   53BDD     S225498   4.838  -1.125   6.174 -0.1263 -0.1182 -0.0288
   53BDD    C1025499   4.855  -1.116   6.352 -0.1054 -0.0751 -0.0329
   53BDD    C1125500   4.833  -0.981   6.407  0.1580 -0.9166  0.3372
   53BDD    C1225501   4.933  -0.861   6.394  0.3712  0.1723 -0.7120
   53BDD    C1325502   5.064  -0.887   6.475 -0.2327  0.1366 -0.2231
   53BDD    C1425503   5.064  -0.911   6.627  0.0686  0.0805  0.0223
   53BDD    C1525504   5.108  -0.791   6.707  0.6062 -0.4065  0.6190
   53BDD    C1625505   5.128  -0.836   6.853  0.2390 -0.7358  0.1630
   53BDD    C1725506   4.975  -0.819   6.252 -0.0077  0.1522 -0.3740
   53BDD    C1825507   4.870  -0.780   6.147  0.7924  0.0696  0.1716
   53BDD    C1925508   4.880  -1.379   6.051 -0.2602  0.4538 -0.1552
   53BDD    C2025509   4.797  -1.330   5.935  0.2072  0.6101 -0.3386
   53BDD    C2125510   4.650  -1.308   5.970  0.1533  0.1262 -0.3987
   53BDD    C2225511   4.545  -1.253   5.882  0.6775 -0.8310  0.2974
   53BDD    C2325512   4.580  -1.126   5.796  0.4537  0.0427  0.2080
   53BDD    C2425513   4.472  -1.107   5.692  0.1726  0.0597 -0.1313
   53BDD    C2525514   4.831  -1.397   5.803  0.6981  0.6016  0.0005
   53BDD    C2625515   4.829  -1.551   5.788 -0.2075  0.5444  0.2666
   54TPM     C125516   4.989  -1.768   6.494 -0.0973 -0.1262  0.1551
   54TPM     C225517   5.088  -1.801   6.406  0.0670  0.0198  0.2809
   54TPM     C325518   5.095  -1.942   6.378  0.2558  0.0405  0.2239
   54TPM     C425519   5.003  -2.017   6.446  0.2356 -0.0892  0.0548
   54TPM     S125520   4.898  -1.913   6.550 -0.0257 -0.2494 -0.0465
   55BDTP    C125521   5.101  -2.626   6.557 -0.0474 -0.1516  0.0401
   55BDTP    C225522   5.014  -2.588   6.663  0.2100 -0.0798  0.2288
   55BDTP    C325523   4.960  -2.461   6.674  0.3370 -0.0355  0.3452
   55BDTP    C425524   4.994  -2.366   6.575  0.2043 -0.0631  0.2723
   55BDTP    C525525   5.081  -2.404   6.469 -0.0532 -0.1349  0.0834
   55BDTP    C625526   5.135  -2.531   6.459 -0.1800 -0.1792 -0.0329
   55BDTP    C725527   4.950  -2.228   6.566  0.2957 -0.0274  0.3661
   55BDTP    C825528   5.000  -2.161   6.459  0.1216 -0.0683  0.2581
   55BDTP    S125529   5.109  -2.264   6.356 -0.1826 -0.1581  0.0224
   55BDTP    C925530   5.145  -2.764   6.567 -0.1389 -0.1874 -0.0539
   55BDTP   C1025531   5.095  -2.831   6.673  0.0352 -0.1464  0.0542
   55BDTP    S225532   4.986  -2.728   6.777  0.3395 -0.0566  0.2898
   56FTM     S125533   4.714  -2.336   6.763  0.0269 -0.2635 -0.0830
   56FTM     C125534   4.673  -2.351   6.938 -0.1979  0.2289 -0.0894
   56FTM     C225535   4.770  -2.421   7.002 -0.2496  0.4576  0.2464
   56FTM     C325536   4.879  -2.467   6.921 -0.1210  0.2683  0.5223
   56FTM     C425537   4.865  -2.430   6.791  0.0348 -0.1177  0.3936
   56FTM     F125538   4.767  -2.449   7.138 -0.4169  0.8518  0.3235
   56FTM     C525539   4.549  -2.307   6.995  0.5606 -0.2741  0.9335
   56FTM     C625540   4.489  -2.339   7.136 -0.7490 -0.0682 -0.0284
   56FTM     C725541   4.552  -2.262   7.258 -0.4282 -0.2690 -0.2231
   56FTM     C825542   4.503  -2.126   7.276  0.2270 -0.5131  0.1867
   56FTM     C925543   4.375  -2.106   7.356  0.2202  0.6819 -0.5472
   56FTM    C1025544   4.335  -1.961   7.361 -0.2361  0.1584  0.3482
   56FTM    C1125545   4.441  -2.480   7.162  0.2670  0.1131 -0.1190
   56FTM    C1225546   4.313  -2.491   7.241 -0.4795 -0.8027  0.0937
   57FTM     S125547   5.347  -2.452   6.288 -0.0852 -0.1329  0.1667
   57FTM     C125548   5.414  -2.576   6.175 -0.3661 -0.5782  0.4835
   57FTM     C225549   5.345  -2.693   6.189 -0.5344 -0.4349  0.8937
   57FTM     C325550   5.239  -2.693   6.286 -0.4569  0.0190  0.9841
   57FTM     C425551   5.226  -2.573   6.348 -0.2217  0.2301  0.6319
   57FTM     F125552   5.374  -2.807   6.115 -0.7683 -0.7061  1.2114
   57FTM     C525553   5.531  -2.536   6.085  0.1631  0.0616 -0.0349
   57FTM     C625554   5.664  -2.596   6.098 -0.6797  0.1706  0.5456
   57FTM     C725555   5.772  -2.520   6.009 -0.4473  0.0001  0.0896
   57FTM     C825556   5.768  -2.524   5.860 -0.2540 -0.5142  0.3702
   57FTM     C925557   5.889  -2.449   5.799  0.5814  0.1359  0.0532
   57FTM    C1025558   5.863  -2.419   5.655 -0.1361 -0.4989 -0.1584
   57FTM    C1125559   5.706  -2.646   6.235  0.3820  0.8668 -0.8406
   57FTM    C1225560   5.850  -2.687   6.264  0.1308 -0.2429  0.2494
   58TPM     C125561   5.132  -2.968   6.706  0.4714  0.2729 -0.3565
   58TPM     C225562   5.070  -3.046   6.799  0.2937  0.5478 -0.2441
   58TPM     C325563   5.121  -3.180   6.807 -0.1855  0.3600 -0.2363
   58TPM     C425564   5.223  -3.205   6.720 -0.3728 -0.0582 -0.3429
   58TPM     S125565   5.262  -3.060   6.621  0.0441 -0.2486 -0.4624
   59BDD     C125566   5.366  -3.564   6.812  0.1866  0.1670  0.0910
   59BDD     C225567   5.419  -3.538   6.689  0.0763  0.1447  0.0381
   59BDD     C325568   5.380  -3.408   6.636 -0.1094  0.0623 -0.0262
   59BDD     C425569   5.297  -3.338   6.720 -0.1379  0.0231 -0.0215
   59BDD     S125570   5.263  -3.430   6.870  0.0658  0.0864  0.0638
   59BDD     C525571   5.508  -3.630   6.616  0.1376  0.1984  0.0447
   59BDD     C625572   5.426  -3.359   6.505 -0.2519  0.0256 -0.0899
   59BDD     O125573   5.392  -3.247   6.459 -0.4121 -0.0453 -0.1452
   59BDD     O225574   5.542  -3.741   6.661  0.2977  0.2694  0.1003
   59BDD     C725575   5.515  -3.451   6.431 -0.1907  0.0794 -0.0832
   59BDD     C825576   5.554  -3.580   6.484 -0.0049  0.1616 -0.0190
   59BDD     C925577   5.637  -3.650   6.401  0.0238  0.2011 -0.0238
   59BDD     S225578   5.671  -3.559   6.250 -0.1801  0.1377 -0.1090
   59BDD    C1025579   5.568  -3.424   6.308 -0.3009  0.0571 -0.1361
   59BDD    C1125580   5.554  -3.313   6.205  0.0042 -0.0500  0.0112
   59BDD    C1225581   5.664  -3.210   6.190  0.1071 -0.3920 -0.2692
   59BDD    C1325582   5.671  -3.130   6.062  0.1183 -0.3662  0.0081
   59BDD    C1425583   5.807  -3.061   6.047 -0.6773 -0.4716 -0.2258
   59BDD    C1525584   5.851  -2.993   5.919  0.2360  0.2513  0.9600
   59BDD    C1625585   5.851  -3.079   5.795  0.5165 -0.0395 -0.1774
   59BDD    C1725586   5.685  -3.122   6.317  0.1243  0.6900  0.2557
   59BDD    C1825587   5.572  -3.021   6.348  0.2767  0.2476 -0.2679
   59BDD    C1925588   5.687  -3.792   6.408  0.2974  0.6684  0.2440
   59BDD    C2025589   5.625  -3.904   6.321 -0.0075 -0.5315 -0.5445
   59BDD    C2125590   5.472  -3.904   6.317 -0.0562 -0.0963  0.1660
   59BDD    C2225591   5.388  -3.952   6.438  0.2374  0.4675  0.4005
   59BDD    C2325592   5.244  -3.954   6.388  0.7795  0.4013 -0.6989
   59BDD    C2425593   5.148  -4.035   6.487 -0.3420 -0.6206  0.5019
   59BDD    C2525594   5.689  -4.037   6.336 -0.0006 -0.2113  0.9649
   59BDD    C2625595   5.650  -4.152   6.239  0.2009  0.8641  0.1371
   60TPM     C125596   5.376  -3.670   6.914  0.1291  0.3083  0.3037
   60TPM     C225597   5.496  -3.721   6.953  0.0736  0.2873  0.4474
   60TPM     C325598   5.490  -3.793   7.078 -0.1786 -0.0952  0.2186
   60TPM     C425599   5.366  -3.797   7.134 -0.3153 -0.3663 -0.0998
   60TPM     S125600   5.245  -3.709   7.032 -0.1349 -0.1573 -0.1352
    1BDTP    C125601   9.560   2.191   3.881  0.0784 -0.0776 -0.0307
    1BDTP    C225602   9.561   2.137   4.013  0.0918 -0.1038 -0.0415
    1BDTP    C325603   9.467   2.044   4.057  0.0775 -0.0882 -0.0402
    1BDTP    C425604   9.367   2.004   3.966  0.0479 -0.0446 -0.0277
    1BDTP    C525605   9.367   2.058   3.834  0.0343 -0.0183 -0.0169
    1BDTP    C625606   9.461   2.150   3.791  0.0493 -0.0340 -0.0182
    1BDTP    C725607   9.259   1.910   3.989  0.0283 -0.0213 -0.0240
    1BDTP    C825608   9.179   1.891   3.881  0.0012  0.0207 -0.0110
    1BDTP    S125609   9.228   1.990   3.737 -0.0033  0.0367 -0.0017
    1BDTP    C925610   9.668   2.285   3.859  0.0982 -0.1009 -0.0344
    1BDTP   C1025611   9.749   2.304   3.966  0.1252 -0.1429 -0.0473
    1BDTP    S225612   9.700   2.205   4.110  0.1299 -0.1588 -0.0567
    2FTM     S125613   9.466   1.819   4.241  0.1308  0.2035 -0.3326
    2FTM     C125614   9.463   1.863   4.416 -0.6749  0.2512 -0.3507
    2FTM     C225615   9.463   1.998   4.430 -1.0011  0.2570 -0.3858
    2FTM     C325616   9.466   2.075   4.309 -0.6530  0.2257 -0.4001
    2FTM     C425617   9.467   1.995   4.198 -0.0401  0.1948 -0.3755
    2FTM     F125618   9.461   2.061   4.554 -1.6344  0.2912 -0.4069
    2FTM     C525619   9.428   1.764   4.521 -0.1699  0.2621  0.3133
    2FTM     C625620   9.533   1.673   4.573 -0.9734 -0.1623  0.4477
    2FTM     C725621   9.480   1.571   4.674  0.1198 -0.1448 -0.2172
    2FTM     C825622   9.390   1.461   4.618  0.0420  0.1294 -0.0072
    2FTM     C925623   9.456   1.350   4.531  0.5195  0.3460  0.5280
    2FTM    C1025624   9.359   1.250   4.465 -0.1813  0.3518 -0.0095
    2FTM    C1125625   9.670   1.738   4.626  0.4459  0.0244 -0.2067
    2FTM    C1225626   9.665   1.818   4.760 -0.2831 -0.1054  0.6760
    3FTM     S125627   9.332   2.338   3.628 -0.3153 -0.1656 -0.1501
    3FTM     C125628   9.406   2.376   3.468 -0.0977 -0.1959 -0.0571
    3FTM     C225629   9.513   2.296   3.447  0.2031  0.1055  0.3014
    3FTM     C325630   9.544   2.202   3.551  0.2813  0.3719  0.5202
    3FTM     C425631   9.457   2.211   3.656  0.0315  0.2712  0.3228
    3FTM     F125632   9.591   2.303   3.332  0.4258  0.1581  0.4525
    3FTM     C525633   9.350   2.474   3.372  0.5423  0.2452  0.1835
    3FTM     C625634   9.218   2.455   3.290  0.6697 -0.4510 -0.5393
    3FTM     C725635   9.100   2.438   3.381  0.3804  0.1018 -0.9079
    3FTM     C825636   8.955   2.436   3.326 -0.1345 -0.2739  0.6277
    3FTM     C925637   8.901   2.577   3.269 -0.2368  0.2463  0.3076
    3FTM    C1025638   8.747   2.565   3.250 -0.4108 -0.2717 -0.5591
    3FTM    C1125639   9.213   2.351   3.178 -0.5409  0.1103  0.3650
    3FTM    C1225640   9.318   2.373   3.063 -0.1171  0.2050  0.0713
    4TPM     C125641   9.870   2.380   3.964  0.2052 -0.3451  0.5801
    4TPM     C225642   9.954   2.415   3.862  0.0706 -0.4458  0.4324
    4TPM     C325643  10.060   2.503   3.903 -0.1899  0.0323  0.0876
    4TPM     C425644  10.056   2.537   4.035 -0.2539  0.4976 -0.0277
    4TPM     S125645   9.918   2.458   4.119  0.0119  0.3670  0.2931
    5BDD     C125646  10.325   2.647   4.305  0.1695 -0.2423 -0.3040
    5BDD     C225647  10.326   2.744   4.209  0.0798 -0.1420 -0.2049
    5BDD     C325648  10.235   2.717   4.099 -0.1678  0.0689 -0.0556
    5BDD     C425649  10.167   2.599   4.113 -0.2634  0.1263 -0.0426
    5BDD     S125650  10.211   2.515   4.265 -0.0499 -0.0796 -0.2170
    5BDD     C525651  10.411   2.865   4.214  0.2185 -0.2362 -0.2439
    5BDD     C625652  10.220   2.808   3.983 -0.3007  0.2057  0.0693
    5BDD     O125653  10.142   2.784   3.889 -0.5142  0.3875  0.1982
    5BDD     O225654  10.489   2.889   4.309  0.4320 -0.4180 -0.3729
    5BDD     C725655  10.305   2.929   3.989 -0.1620  0.1115  0.0302
    5BDD     C825656  10.395   2.957   4.099  0.0856 -0.0993 -0.1192
    5BDD     C925657  10.464   3.074   4.084  0.1812 -0.1566 -0.1320
    5BDD     S225658  10.420   3.158   3.932 -0.0323  0.0492  0.0423
    5BDD    C1025659  10.305   3.026   3.892 -0.2517  0.2118  0.1293
    5BDD    C1125660  10.229   3.036   3.763 -0.1222 -0.5162  0.1229
    5BDD    C1225661  10.304   2.993   3.636  1.1735  0.1497 -0.0094
    5BDD    C1325662  10.441   3.052   3.594 -0.9039 -0.3889  0.0066
    5BDD    C1425663  10.452   3.184   3.514 -0.1718  0.6942 -0.5828
    5BDD    C1525664  10.589   3.212   3.466  0.4352 -0.6049 -0.2239
    5BDD    C1625665  10.589   3.338   3.373 -0.7569 -0.2021 -0.5682
    5BDD    C1725666  10.189   2.997   3.539  0.1095 -0.0245  0.1545
    5BDD    C1825667  10.199   2.926   3.407 -0.2620 -0.0801  0.3005
    5BDD    C1925668  10.585   3.136   4.154  0.3851  0.8817 -0.4301
    5BDD    C2025669  10.556   3.271   4.220  0.4296  0.4348 -0.4475
    5BDD    C2125670  10.690   3.349   4.249 -0.0723 -0.6595  0.2303
    5BDD    C2225671  10.663   3.504   4.268  0.5329  0.4203 -0.4831
    5BDD    C2325672  10.642   3.579   4.138  0.4468 -0.0724  0.2688
    5BDD    C2425673  10.587   3.716   4.155 -0.8389 -0.4317  0.1493
    5BDD    C2525674  10.460   3.276   4.341 -0.6124  0.1348  0.3233
    5BDD    C2625675  10.473   3.173   4.453 -0.6087  0.0369  0.7510
    6TPM     C125676  10.394   2.630   4.440  0.0719 -0.1504 -0.3045
    6TPM     C225677  10.508   2.690   4.487  0.4173 -0.5139 -0.6660
    6TPM     C325678  10.556   2.633   4.610  0.4121 -0.4185 -0.6200
    6TPM     C425679  10.479   2.531   4.658  0.0628  0.0178 -0.2233
    6TPM     S125680  10.339   2.498   4.549 -0.2894  0.3445  0.1256
    7BDTP    C125681  10.597   2.162   5.158 -0.0951  0.0687  0.0600
    7BDTP    C225682  10.688   2.270   5.175  0.0248  0.0003 -0.1415
    7BDTP    C325683  10.695   2.377   5.087  0.0753 -0.1205 -0.2865
    7BDTP    C425684  10.607   2.378   4.977  0.0043 -0.1766 -0.2303
    7BDTP    C525685  10.516   2.270   4.960 -0.1156 -0.1082 -0.0291
    7BDTP    C625686  10.509   2.163   5.048 -0.1661  0.0124  0.1159
    7BDTP    C725687  10.595   2.478   4.873  0.0370 -0.3004 -0.3541
    7BDTP    C825688  10.501   2.451   4.780 -0.0514 -0.3280 -0.2565
    7BDTP    S125689  10.413   2.294   4.811 -0.1885 -0.2010  0.0056
    7BDTP    C925690  10.609   2.061   5.262 -0.1278  0.1925  0.1835
    7BDTP   C1025691  10.704   2.089   5.355 -0.0394  0.2201  0.0861
    7BDTP    S225692  10.791   2.245   5.324  0.0978  0.0931 -0.1762
    8FTM     S125693  10.909   2.555   5.004  0.0801 -0.2712  0.1451
    8FTM     C125694  10.953   2.685   5.121  0.1467  0.1512 -0.3404
    8FTM     C225695  10.874   2.676   5.231 -0.0491  0.7805 -0.4197
    8FTM     C325696  10.778   2.570   5.231 -0.2577  0.9680 -0.1153
    8FTM     C425697  10.783   2.495   5.117 -0.2204  0.4660  0.2080
    8FTM     F125698  10.885   2.763   5.339 -0.0511  1.2240 -0.7730
    8FTM     C525699  11.075   2.777   5.100  0.3596  0.2698  0.1098
    8FTM     C625700  11.089   2.859   4.978 -0.4753 -0.8997  0.6068
    8FTM     C725701  11.108   2.781   4.851 -0.6242  0.2559 -0.0385
    8FTM     C825702  11.240   2.703   4.829 -0.7842 -0.7337 -0.1590
    8FTM     C925703  11.372   2.763   4.874 -0.5279  0.1998 -0.6133
    8FTM    C1025704  11.483   2.668   4.841 -0.4489 -0.6238  0.0767
    8FTM    C1125705  10.995   2.980   4.962 -0.3042  0.4625  0.7638
    8FTM    C1225706  10.969   3.075   5.080 -0.0960 -0.3740  0.3782
    9FTM     S125707  10.473   1.928   4.890  0.0188 -0.1120 -0.3134
    9FTM     C125708  10.317   1.840   4.913  0.2184 -0.3878  0.0209
    9FTM     C225709  10.244   1.902   5.009  0.2760 -0.4627  0.1132
    9FTM     C325710  10.302   2.017   5.070  0.1708 -0.3138 -0.0665
    9FTM     C425711  10.425   2.046   5.018  0.0282 -0.1186 -0.3039
    9FTM     F125712  10.118   1.856   5.048  0.4272 -0.6705  0.3656
    9FTM     C525713  10.304   1.720   4.829  0.1093  0.8773 -0.3163
    9FTM     C625714  10.176   1.673   4.751 -0.1657  0.0124 -0.1829
    9FTM     C725715  10.193   1.541   4.673 -0.1521 -0.4452 -0.9906
    9FTM     C825716  10.231   1.408   4.738  0.0207 -0.3782  0.4957
    9FTM     C925717  10.250   1.289   4.641 -0.0946 -0.1679 -0.1830
    9FTM    C1025718  10.304   1.164   4.700  0.1952 -0.0763  0.0026
    9FTM    C1125719  10.110   1.783   4.663 -0.3163 -0.3531 -0.7026
    9FTM    C1225720  10.202   1.845   4.561  0.2617 -0.1586 -0.0127
   10TPM     C125721  10.738   2.021   5.476 -0.5814  0.2444  0.3788
   10TPM     C225722  10.794   2.083   5.584 -0.2928  0.0757  0.3270
   10TPM     C325723  10.817   1.995   5.696  0.2984 -0.1701  0.0240
   10TPM     C425724  10.778   1.866   5.673  0.4606 -0.1888 -0.1554
   10TPM     S125725  10.709   1.846   5.508 -0.1253  0.1048  0.0461
   11BDD     C125726  10.916   1.654   5.972  0.1182  0.0271 -0.2971
   11BDD     C225727  10.831   1.568   5.907 -0.0120  0.0710 -0.1853
   11BDD     C325728  10.765   1.629   5.794 -0.2723  0.1606  0.0134
   11BDD     C425729  10.800   1.760   5.773 -0.3368  0.1837  0.0499
   11BDD     S125730  10.919   1.816   5.895 -0.0761  0.0948 -0.1618
   11BDD     C525731  10.808   1.428   5.948  0.0981  0.0322 -0.2565
   11BDD     C625732  10.668   1.555   5.709 -0.4475  0.2200  0.1595
   11BDD     O125733  10.611   1.607   5.611 -0.6720  0.2973  0.3307
   11BDD     O225734  10.866   1.376   6.046  0.3226 -0.0451 -0.4278
   11BDD     C725735  10.646   1.415   5.749 -0.3374  0.1812  0.0882
   11BDD     C825736  10.712   1.354   5.863 -0.0771  0.0916 -0.1104
   11BDD     C925737  10.677   1.223   5.883 -0.0126  0.0685 -0.1469
   11BDD     S225738  10.558   1.167   5.762 -0.2732  0.1574  0.0646
   11BDD    C1025739  10.560   1.329   5.685 -0.4675  0.2252  0.2002
   11BDD    C1125740  10.471   1.357   5.567 -0.6091  0.6411  0.6500
   11BDD    C1225741  10.322   1.376   5.597  0.3774  0.1126  1.1985
   11BDD    C1325742  10.248   1.440   5.481  0.1215 -1.1929 -0.3439
   11BDD    C1425743  10.302   1.573   5.431 -0.2599 -0.0293 -0.4791
   11BDD    C1525744  10.192   1.640   5.346 -0.3492  0.3549  0.4228
   11BDD    C1625745  10.127   1.578   5.225 -0.1189 -0.3571 -0.1670
   11BDD    C1725746  10.244   1.272   5.673 -0.1149 -0.2584 -0.4387
   11BDD    C1825747  10.218   1.134   5.610  0.2304  0.3292  1.2374
   11BDD    C1925748  10.706   1.112   5.986 -0.2041 -0.4271 -0.6543
   11BDD    C2025749  10.848   1.068   5.994 -0.6763  0.5466  0.0246
   11BDD    C2125750  10.863   0.985   6.124  0.2705 -0.3611  0.2039
   11BDD    C2225751  10.825   1.058   6.254 -0.1427 -0.1059 -0.6572
   11BDD    C2325752  10.805   0.953   6.372 -0.4583 -0.0196  0.4445
   11BDD    C2425753  10.734   1.013   6.494  0.4093  0.0476  0.7750
   11BDD    C2525754  10.911   0.996   5.876 -0.0813  0.0464 -0.1732
   11BDD    C2625755  10.864   0.857   5.834  0.1573  0.3113  0.5045
   12TPM     C125756  10.985   1.652   6.102  0.1626 -0.2579  0.1896
   12TPM     C225757  11.094   1.574   6.125  0.0047 -0.3905  0.4932
   12TPM     C325758  11.177   1.620   6.233 -0.1178 -0.3648  0.5766
   12TPM     C425759  11.131   1.734   6.293 -0.0532 -0.2124  0.3366
   12TPM     S125760  10.979   1.792   6.216  0.1690 -0.0888 -0.0160
   13BDTP    C125761  11.450   2.130   6.671 -0.0567 -0.1904  0.0880
   13BDTP    C225762  11.456   2.007   6.743  0.0015 -0.2187  0.0349
   13BDTP    C325763  11.399   1.890   6.695  0.0153 -0.2140  0.0066
   13BDTP    C425764  11.334   1.893   6.571 -0.0304 -0.1797  0.0316
   13BDTP    C525765  11.328   2.016   6.499 -0.0885 -0.1513  0.0846
   13BDTP    C625766  11.385   2.134   6.547 -0.1023 -0.1560  0.1130
   13BDTP    C725767  11.268   1.785   6.502 -0.0267 -0.1683  0.0103
   13BDTP    C825768  11.213   1.819   6.383 -0.0786 -0.1332  0.0443
   13BDTP    S125769  11.238   1.995   6.342 -0.1395 -0.1096  0.1081
   13BDTP    C925770  11.516   2.239   6.740 -0.0603 -0.2018  0.1093
   13BDTP   C1025771  11.571   2.204   6.859 -0.0084 -0.2369  0.0752
   13BDTP    S225772  11.546   2.029   6.900  0.0524 -0.2604  0.0115
   14FTM     S125773  11.578   1.688   6.779  0.1151  0.1541  0.0491
   14FTM     C125774  11.519   1.563   6.895 -0.0988  0.2656  0.0601
   14FTM     C225775  11.386   1.583   6.920 -0.1800  0.2085 -0.3083
   14FTM     C325776  11.325   1.693   6.852 -0.0832  0.0778 -0.6143
   14FTM     C425777  11.413   1.760   6.773  0.0773  0.0333 -0.4756
   14FTM     F125778  11.313   1.502   7.006 -0.3468  0.2712 -0.3905
   14FTM     C525779  11.613   1.458   6.942 -0.2938 -0.0323  0.2241
   14FTM     C625780  11.641   1.419   7.089 -0.6395 -0.3887  0.0188
   14FTM     C725781  11.673   1.268   7.097 -0.4880  0.2502  0.2443
   14FTM     C825782  11.544   1.182   7.083 -0.7236 -0.2123  0.2096
   14FTM     C925783  11.567   1.033   7.063 -0.2687 -0.5475  0.4670
   14FTM    C1025784  11.429   0.978   7.059  0.0975  0.6535 -0.3961
   14FTM    C1125785  11.743   1.500   7.172  0.4448 -0.0583  0.0864
   14FTM    C1225786  11.726   1.653   7.179  0.8968 -0.5895  0.2087
   15FTM     S125787  11.447   2.278   6.303 -0.3747  0.1005 -0.0460
   15FTM     C125788  11.381   2.445   6.293 -0.2757  0.1432  0.0092
   15FTM     C225789  11.309   2.473   6.405 -0.0303  0.2473  0.1417
   15FTM     C325790  11.302   2.369   6.503  0.0927  0.2990  0.2069
   15FTM     C425791  11.370   2.257   6.465 -0.0636  0.2324  0.1215
   15FTM     F125792  11.247   2.595   6.425  0.0975  0.3021  0.2121
   15FTM     C525793  11.435   2.540   6.190  0.4845 -0.4365 -0.6566
   15FTM     C625794  11.369   2.546   6.054 -0.4304 -0.3790  0.3494
   15FTM     C725795  11.222   2.566   6.040 -0.0570  0.3254  0.8621
   15FTM     C825796  11.154   2.666   6.126 -0.2573  0.2622 -0.2127
   15FTM     C925797  11.008   2.687   6.105  0.5133 -0.1148  0.6023
   15FTM    C1025798  10.973   2.782   5.990 -0.0234 -0.2519 -0.1227
   15FTM    C1125799  11.425   2.438   5.956  0.1495 -0.9049  0.3732
   15FTM    C1225800  11.579   2.442   5.924  0.4703 -0.1600 -0.1586
   16TPM     C125801  11.656   2.286   6.933 -0.3279 -0.1753 -0.0853
   16TPM     C225802  11.765   2.251   7.008 -0.7034 -0.5139  0.3140
   16TPM     C325803  11.821   2.361   7.082 -0.6703 -0.7037  0.5724
   16TPM     C425804  11.756   2.479   7.064 -0.2696 -0.5098  0.3702
   16TPM     S125805  11.617   2.461   6.951  0.0998 -0.0689 -0.1665
   17BDD     C125806  11.853   2.856   7.098  0.1132 -0.2917 -0.1292
   17BDD     C225807  11.884   2.800   7.218  0.0868 -0.2588 -0.1072
   17BDD     C325808  11.857   2.657   7.224 -0.0573 -0.2295 -0.0250
   17BDD     C425809  11.807   2.607   7.107 -0.1386 -0.2405  0.0146
   17BDD     S125810  11.790   2.735   6.982 -0.0405 -0.2883 -0.0485
   17BDD     C525811  11.938   2.875   7.333  0.1931 -0.2530 -0.1607
   17BDD     C625812  11.883   2.576   7.345 -0.1090 -0.1916  0.0114
   17BDD     O125813  11.860   2.453   7.349 -0.2332 -0.1662  0.0823
   17BDD     O225814  11.961   2.998   7.329  0.3173 -0.2783 -0.2315
   17BDD     C725815  11.937   2.651   7.460 -0.0027 -0.1858 -0.0423
   17BDD     C825816  11.963   2.794   7.454  0.1413 -0.2152 -0.1245
   17BDD     C925817  12.014   2.845   7.571  0.2227 -0.2042 -0.1638
   17BDD     S225818  12.031   2.717   7.696  0.1247 -0.1564 -0.1009
   17BDD    C1025819  11.967   2.595   7.580 -0.0291 -0.1529 -0.0203
   17BDD    C1125820  11.960   2.447   7.627 -1.1554  0.1537 -0.3097
   17BDD    C1225821  12.085   2.366   7.677  0.2015 -0.2764  0.2652
   17BDD    C1325822  12.137   2.427   7.812 -0.6899  0.8200  0.5126
   17BDD    C1425823  12.228   2.329   7.893 -0.3704 -0.1551 -0.3674
   17BDD    C1525824  12.295   2.405   8.006  0.2729 -0.1332 -0.1252
   17BDD    C1625825  12.384   2.310   8.081 -0.2378  0.0141  0.0435
   17BDD    C1725826  12.194   2.331   7.572  0.7734 -0.6943 -0.2743
   17BDD    C1825827  12.148   2.268   7.433  0.2854  0.3100 -0.3138
   17BDD    C1925828  12.058   2.982   7.610  0.5333 -0.0631  0.4354
   17BDD    C2025829  12.207   2.991   7.600  0.4834 -0.5092 -0.0078
   17BDD    C2125830  12.264   2.962   7.461  0.0685 -0.5276  0.0246
   17BDD    C2225831  12.416   2.961   7.449  0.1775 -0.0045  0.5141
   17BDD    C2325832  12.472   2.932   7.305  0.7301 -0.4872 -0.3526
   17BDD    C2425833  12.408   2.826   7.214 -0.5892 -0.5203 -0.5037
   17BDD    C2525834  12.261   3.123   7.668 -0.1964 -0.7223 -0.3006
   17BDD    C2625835  12.250   3.260   7.599  0.2295  0.0574  0.8864
   18TPM     C125836  11.851   2.994   7.046 -0.1627 -0.0023 -0.4489
   18TPM     C225837  11.741   3.047   6.986 -0.0314  0.2875 -0.4377
   18TPM     C325838  11.759   3.182   6.941  0.1966  0.3712 -0.1011
   18TPM     C425839  11.883   3.233   6.967  0.2392  0.1452  0.1442
   18TPM     S125840  11.988   3.112   7.050 -0.0073 -0.1935 -0.0323
   19BDTP    C125841  12.106   3.811   6.869  0.0167 -0.1172 -0.1169
   19BDTP    C225842  12.030   3.825   6.989  0.0149 -0.1249 -0.1172
   19BDTP    C325843  11.963   3.719   7.049  0.0475 -0.1377 -0.1030
   19BDTP    C425844  11.970   3.593   6.987  0.0836 -0.1431 -0.0879
   19BDTP    C525845  12.046   3.579   6.867  0.0854 -0.1353 -0.0875
   19BDTP    C625846  12.113   3.685   6.808  0.0528 -0.1225 -0.1017
   19BDTP    C725847  11.909   3.469   7.029  0.1213 -0.1561 -0.0714
   19BDTP    C825848  11.934   3.364   6.948  0.1509 -0.1584 -0.0590
   19BDTP    S125849  12.040   3.407   6.807  0.1352 -0.1445 -0.0664
   19BDTP    C925850  12.167   3.935   6.827 -0.0210 -0.1042 -0.1334
   19BDTP   C1025851  12.142   4.041   6.908 -0.0506 -0.1018 -0.1458
   19BDTP    S225852  12.036   3.998   7.050 -0.0349 -0.1157 -0.1383
   20FTM     S125853  11.759   3.884   7.181 -0.0393  0.0670 -0.1790
   20FTM     C125854  11.731   3.842   7.353  0.2886  0.3351 -0.0580
   20FTM     C225855  11.809   3.736   7.389  0.3303  0.3683 -0.0502
   20FTM     C325856  11.893   3.683   7.286  0.1151  0.1915 -0.1358
   20FTM     C425857  11.879   3.750   7.168 -0.0985  0.0172 -0.2119
   20FTM     F125858  11.808   3.681   7.516  0.5659  0.5606  0.0352
   20FTM     C525859  11.645   3.934   7.441 -0.4103 -0.3307  0.5659
   20FTM     C625860  11.714   4.034   7.537  0.0249  0.2258 -0.9981
   20FTM     C725861  11.821   4.133   7.488  0.1594  0.7116  0.4465
   20FTM     C825862  11.961   4.123   7.548  0.1564  0.8095  0.2063
   20FTM     C925863  12.055   4.186   7.457  0.0880 -0.3796 -0.3854
   20FTM    C1025864  12.190   4.231   7.514  0.6356 -0.6478  0.5188
   20FTM    C1125865  11.608   4.117   7.615 -0.1034  0.0989  0.5318
   20FTM    C1225866  11.628   4.183   7.753 -0.3962 -0.3978 -0.1627
   21FTM     S125867  12.298   3.508   6.676 -0.1042  0.0256 -0.1985
   21FTM     C125868  12.357   3.563   6.515 -0.0272  0.2223 -0.1037
   21FTM     C225869  12.301   3.683   6.484  0.0383  0.2915  0.0442
   21FTM     C325870  12.211   3.738   6.581  0.0327  0.1984  0.0919
   21FTM     C425871  12.198   3.658   6.690 -0.0395  0.0528 -0.0235
   21FTM     F125872  12.327   3.751   6.366  0.1072  0.4437  0.1454
   21FTM     C525873  12.437   3.474   6.421 -0.6495  0.1988 -0.8049
   21FTM     C625874  12.365   3.352   6.364  0.4726 -0.1246  0.4177
   21FTM     C725875  12.250   3.371   6.255 -0.1704 -0.4639  0.7225
   21FTM     C825876  12.299   3.449   6.135 -0.1585 -0.2352  0.1820
   21FTM     C925877  12.187   3.488   6.039 -0.6200 -0.2206 -0.2657
   21FTM    C1025878  12.244   3.558   5.918 -0.4300  0.4145  0.3129
   21FTM    C1125879  12.317   3.239   6.463 -0.0976 -0.1582 -0.5218
   21FTM    C1225880  12.425   3.163   6.537 -0.0492  0.2115  0.9140
   22TPM     C125881  12.201   4.174   6.899  0.0277  0.4268  0.1923
   22TPM     C225882  12.242   4.261   6.995  0.2809  0.4203  0.0893
   22TPM     C325883  12.311   4.376   6.943  0.3955  0.2841 -0.0640
   22TPM     C425884  12.321   4.377   6.807  0.2295  0.1863 -0.0781
   22TPM     S125885  12.245   4.231   6.733 -0.0867  0.2599  0.1028
   23BDD     C125886  12.610   4.525   6.583  0.0640 -0.1181 -0.0187
   23BDD     C225887  12.558   4.634   6.647  0.0613 -0.1117 -0.0316
   23BDD     C325888  12.451   4.600   6.739  0.0156 -0.0958 -0.0789
   23BDD     C425889  12.423   4.466   6.744 -0.0159 -0.0901 -0.1014
   23BDD     S125890  12.529   4.373   6.634  0.0096 -0.1044 -0.0648
   23BDD     C525891  12.604   4.772   6.626  0.1006 -0.1203 -0.0010
   23BDD     C625892  12.380   4.702   6.819  0.0048 -0.0868 -0.1000
   23BDD     O125893  12.287   4.673   6.899 -0.0346 -0.0731 -0.1408
   23BDD     O225894  12.697   4.801   6.547  0.1400 -0.1341  0.0398
   23BDD     C725895  12.426   4.841   6.798  0.0441 -0.0951 -0.0693
   23BDD     C825896  12.533   4.874   6.706  0.0898 -0.1111 -0.0219
   23BDD     C925897  12.561   5.008   6.702  0.1212 -0.1168  0.0005
   23BDD     S225898  12.455   5.101   6.812  0.0957 -0.1025 -0.0360
   23BDD    C1025899  12.374   4.950   6.862  0.0414 -0.0889 -0.0821
   23BDD    C1125900  12.276   4.965   6.972  0.3694 -0.6835 -0.7171
   23BDD    C1225901  12.301   4.898   7.116 -0.5217  0.2801 -0.0183
   23BDD    C1325902  12.193   4.939   7.221 -0.0377  0.2834  0.3094
   23BDD    C1425903  12.205   4.890   7.369 -0.1426 -0.1098  0.6768
   23BDD    C1525904  12.204   4.748   7.402 -0.3668  0.1673 -0.2851
   23BDD    C1625905  12.247   4.695   7.542  0.0143 -0.6869 -0.2841
   23BDD    C1725906  12.452   4.920   7.161 -0.2333  0.6220  0.3910
   23BDD    C1825907  12.516   5.055   7.185  0.0985 -0.2284 -0.0570
   23BDD    C1925908  12.642   5.096   6.618  0.2461 -0.1729 -0.3987
   23BDD    C2025909  12.794   5.083   6.639 -1.1311 -0.7235 -0.4107
   23BDD    C2125910  12.842   5.089   6.781 -0.0798 -0.8556  0.2357
   23BDD    C2225911  12.976   5.019   6.810 -0.7314  0.1608  0.6284
   23BDD    C2325912  13.003   4.988   6.951  0.6876  0.6928 -0.1897
   23BDD    C2425913  13.151   4.988   6.992 -0.1677  0.0766  0.7536
   23BDD    C2525914  12.883   5.161   6.542 -0.6570  0.2851 -0.0801
   23BDD    C2625915  12.870   5.140   6.392  0.0993  0.0780  0.1762
   24TPM     C125916  12.724   4.499   6.490 -0.1007 -0.0413 -0.3448
   24TPM     C225917  12.774   4.373   6.482 -0.4996 -0.1867 -0.6202
   24TPM     C325918  12.889   4.361   6.397 -0.3602 -0.3033 -0.4184
   24TPM     C425919  12.927   4.478   6.339  0.1449 -0.2470  0.0109
   24TPM     S125920  12.819   4.614   6.389  0.4864 -0.0405  0.1951
   25BDTP    C125921  13.356   4.553   5.882 -0.2976  0.0643 -0.2401
   25BDTP    C225922  13.273   4.667   5.866 -0.1214  0.2247 -0.0212
   25BDTP    C325923  13.164   4.693   5.949 -0.0123  0.2965  0.1004
   25BDTP    C425924  13.136   4.602   6.052 -0.0799  0.2058  0.0026
   25BDTP    C525925  13.220   4.487   6.068 -0.2560  0.0454 -0.2159
   25BDTP    C625926  13.328   4.461   5.986 -0.3652 -0.0263 -0.3380
   25BDTP    C725927  13.030   4.607   6.150  0.0082  0.2544  0.0965
   25BDTP    C825928  13.029   4.504   6.237 -0.0922  0.1397 -0.0393
   25BDTP    S125929  13.163   4.385   6.208 -0.3123 -0.0460 -0.3054
   25BDTP    C925930  13.463   4.547   5.785 -0.3856  0.0157 -0.3341
   25BDTP   C1025931  13.464   4.650   5.697 -0.2852  0.1303 -0.1981
   25BDTP    S225932  13.330   4.769   5.726 -0.0652  0.3161  0.0679
   26FTM     S125933  13.043   4.936   6.035  0.0118 -0.0501 -0.0249
   26FTM     C125934  12.956   5.030   5.908  0.0055 -0.0267 -0.0035
   26FTM     C225935  12.956   4.960   5.791  0.0696  0.0308 -0.0378
   26FTM     C325936  13.022   4.833   5.793  0.1263  0.0594 -0.0818
   26FTM     C425937  13.075   4.804   5.915  0.1047  0.0225 -0.0811
   26FTM     F125938  12.897   5.008   5.675  0.0809  0.0608 -0.0315
   26FTM     C525939  12.885   5.166   5.934 -0.2206 -0.0972 -0.4936
   26FTM     C625940  12.977   5.285   5.966  0.3694 -0.3666  0.4212
   26FTM     C725941  13.058   5.346   5.850 -0.0692  0.2274  0.3568
   26FTM     C825942  12.984   5.400   5.726  0.1618 -0.7751 -0.2594
   26FTM     C925943  12.899   5.531   5.754  0.7091 -0.3685  0.7285
   26FTM    C1025944  12.974   5.657   5.789 -0.0930 -0.1423  0.0081
   26FTM    C1125945  13.026   5.308   6.113  0.0430  0.3683  0.3016
   26FTM    C1225946  13.058   5.453   6.152  0.0257  0.2469  0.7179
   27FTM     S125947  13.589   4.352   6.029  0.0238  0.0154  0.0839
   27FTM     C125948  13.601   4.173   6.048  0.2557  0.0448  0.2311
   27FTM     C225949  13.476   4.118   6.044  0.3045 -0.0908  0.5671
   27FTM     C325950  13.367   4.209   6.027  0.1679 -0.2227  0.7269
   27FTM     C425951  13.409   4.339   6.017  0.0092 -0.1869  0.5058
   27FTM     F125952  13.454   3.982   6.057  0.4759 -0.1037  0.7502
   27FTM     C525953  13.736   4.109   6.063  0.0354 -0.0960 -0.2215
   27FTM     C625954  13.807   4.134   6.199 -0.5080  0.2180  0.9130
   27FTM     C725955  13.866   4.271   6.246 -0.7426  0.7216 -0.6809
   27FTM     C825956  13.990   4.312   6.168 -0.2328 -0.0306 -0.4944
   27FTM     C925957  13.969   4.385   6.037  0.7291  0.0174 -0.0683
   27FTM    C1025958  14.100   4.440   5.980  0.1660 -0.2312  0.0103
   27FTM    C1125959  13.770   4.022   6.298 -0.6660  0.7893 -0.1495
   27FTM    C1225960  13.833   3.997   6.436 -0.2863 -0.2173  0.0349
   28TPM     C125961  13.551   4.676   5.582  0.0658  0.1511 -0.1947
   28TPM     C225962  13.598   4.576   5.502 -0.0362  0.1538 -0.2582
   28TPM     C325963  13.696   4.621   5.406 -0.0151  0.1217 -0.2518
   28TPM     C425964  13.723   4.754   5.412  0.1031  0.0944 -0.1833
   28TPM     S125965  13.627   4.835   5.542  0.1973  0.1075 -0.1212
   29BDD     C125966  13.893   5.023   5.183 -0.1946  0.1537 -0.2834
   29BDD     C225967  13.975   4.913   5.175 -0.2329  0.1202 -0.2214
   29BDD     C325968  13.930   4.801   5.255 -0.3002  0.1637 -0.1982
   29BDD     C425969  13.814   4.827   5.324 -0.3123  0.2297 -0.2430
   29BDD     S125970  13.754   4.993   5.293 -0.2401  0.2420 -0.3171
   29BDD     C525971  14.098   4.908   5.093 -0.2087  0.0468 -0.1811
   29BDD     C625972  14.003   4.673   5.261 -0.3500  0.1382 -0.1324
   29BDD     O125973  13.964   4.576   5.330 -0.4079  0.1758 -0.1124
   29BDD     O225974  14.137   5.005   5.023 -0.1508  0.0092 -0.2010
   29BDD     C725975  14.126   4.668   5.179 -0.3260  0.0650 -0.0923
   29BDD     C825976  14.171   4.780   5.099 -0.2587  0.0213 -0.1153
   29BDD     C925977  14.286   4.754   5.030 -0.2466 -0.0448 -0.0706
   29BDD     S225978  14.347   4.588   5.061 -0.3187 -0.0571  0.0037
   29BDD    C1025979  14.207   4.558   5.170 -0.3643  0.0314 -0.0300
   29BDD    C1125980  14.205   4.426   5.237  0.3475  0.8942 -0.1805
   29BDD    C1225981  14.281   4.406   5.366 -0.2031  0.3760  0.7926
   29BDD    C1325982  14.436   4.420   5.353 -0.1308 -0.4570 -0.6572
   29BDD    C1425983  14.504   4.311   5.270 -0.1799 -0.2261  0.2515
   29BDD    C1525984  14.642   4.349   5.216 -0.8447 -0.6016  0.8505
   29BDD    C1625985  14.717   4.238   5.140  0.3532 -0.2241 -0.3911
   29BDD    C1725986  14.209   4.292   5.440 -0.6289 -0.5315  0.2310
   29BDD    C1825987  14.247   4.287   5.594 -0.2429 -0.1318  0.0963
   29BDD    C1925988  14.377   4.829   4.931 -0.1492 -0.5460 -0.1106
   29BDD    C2025989  14.300   4.870   4.807 -0.1255  0.3481  0.1629
   29BDD    C2125990  14.397   4.968   4.746 -0.1315 -0.4901 -0.5020
   29BDD    C2225991  14.360   5.032   4.614 -0.4706 -0.5503  0.5500
   29BDD    C2325992  14.233   5.118   4.607 -0.4647  0.3352  0.5356
   29BDD    C2425993  14.211   5.228   4.699 -0.1008  0.4314 -0.3684
   29BDD    C2525994  14.250   4.753   4.720  0.1724  0.5506 -0.7284
   29BDD    C2625995  14.356   4.661   4.661 -0.1376 -0.3894  0.1930
   30TPM     C125996  13.892   5.164   5.139 -0.1406 -0.1260  0.3631
   30TPM     C225997  13.940   5.201   5.017 -0.2518 -0.2587  0.2797
   30TPM     C325998  13.911   5.337   4.982 -0.2366 -0.2807  0.1810
   30TPM     C425999  13.841   5.405   5.078 -0.1141 -0.1646  0.1891
   30TPM     S126000  13.806   5.300   5.221 -0.0073 -0.0174  0.3230
   31BDTP    C126001  13.636   5.996   5.017 -0.0087 -0.0416 -0.3892
   31BDTP    C226002  13.537   5.939   5.102  0.0485  0.0776 -0.2424
   31BDTP    C326003  13.541   5.807   5.145  0.1020  0.1501 -0.0223
   31BDTP    C426004  13.649   5.728   5.101  0.0991  0.1031  0.0573
   31BDTP    C526005  13.748   5.784   5.016  0.0418 -0.0161 -0.0895
   31BDTP    C626006  13.743   5.916   4.973 -0.0114 -0.0886 -0.3095
   31BDTP    C726007  13.675   5.588   5.133  0.1481  0.1613  0.2785
   31BDTP    C826008  13.787   5.539   5.076  0.1311  0.0923  0.3048
   31BDTP    S126009  13.876   5.661   4.975  0.0501 -0.0559  0.0527
   31BDTP    C926010  13.610   6.135   4.985 -0.0579 -0.0997 -0.6105
   31BDTP   C1026011  13.498   6.185   5.042 -0.0407 -0.0306 -0.6365
   31BDTP    S226012  13.409   6.063   5.143  0.0403  0.1175 -0.3845
   32FTM     S126013  13.348   5.618   5.219  0.1544  0.3808 -0.0472
   32FTM     C126014  13.296   5.619   5.392  0.0748  0.2846 -0.0702
   32FTM     C226015  13.353   5.725   5.456  0.0637  0.2356  0.0206
   32FTM     C326016  13.438   5.809   5.377  0.1151  0.2686  0.1111
   32FTM     C426017  13.447   5.766   5.248  0.1674  0.3459  0.0891
   32FTM     F126018  13.331   5.751   5.591  0.0063  0.1575  0.0268
   32FTM     C526019  13.200   5.510   5.429 -0.4818 -0.7235 -0.5082
   32FTM     C626020  13.237   5.360   5.399 -0.9301 -0.0785 -0.4001
   32FTM     C726021  13.128   5.253   5.432  0.4496  0.3439  0.7451
   32FTM     C826022  12.994   5.253   5.354 -0.0843  0.1907  0.2015
   32FTM     C926023  12.988   5.221   5.206  0.0536  0.1175  0.2934
   32FTM    C1026024  13.024   5.331   5.108 -0.0742  0.2840 -0.0090
   32FTM    C1126025  13.378   5.327   5.459  0.1054 -0.2624  0.0445
   32FTM    C1226026  13.435   5.191   5.422  0.2445 -0.2031 -1.0550
   33FTM     S126027  13.908   5.878   4.743 -0.1331  0.3251 -0.1830
   33FTM     C126028  14.039   6.000   4.718  0.3085 -0.0597  0.2184
   33FTM     C226029  14.034   6.094   4.816  0.5509 -0.2707  0.4389
   33FTM     C326030  13.931   6.079   4.914  0.4116 -0.1491  0.3119
   33FTM     C426031  13.854   5.969   4.890  0.0506  0.1655 -0.0163
   33FTM     F126032  14.123   6.201   4.822  0.9135 -0.5866  0.7687
   33FTM     C526033  14.122   6.005   4.592 -0.6708  0.2548 -0.3792
   33FTM     C626034  14.162   5.882   4.505 -0.4991 -0.7506 -0.3508
   33FTM     C726035  14.242   5.920   4.374  0.1366  0.5947 -0.5708
   33FTM     C826036  14.175   6.011   4.269 -0.0048  0.6644 -0.7742
   33FTM     C926037  14.210   5.986   4.126  0.1719  0.0313 -0.2051
   33FTM    C1026038  14.173   5.843   4.080  0.1804  0.1253  0.1428
   33FTM    C1126039  14.215   5.767   4.586 -0.7005  0.1513  0.3104
   33FTM    C1226040  14.268   5.638   4.520  0.0113  0.0800  0.6738
   34TPM     C126041  13.457   6.320   5.044 -0.2601  0.0551 -0.0159
   34TPM     C226042  13.354   6.380   5.110 -0.2884  0.1329 -0.1281
   34TPM     C326043  13.350   6.523   5.094 -0.1930  0.1308 -0.1749
   34TPM     C426044  13.449   6.572   5.015 -0.0919  0.0515 -0.0983
   34TPM     S126045  13.557   6.441   4.954 -0.1095 -0.0275  0.0397
   35BDD     C126046  13.412   6.960   5.015  0.0886 -0.1111 -0.1400
   35BDD     C226047  13.473   6.931   4.897  0.0454 -0.1247 -0.1591
   35BDD     C326048  13.494   6.789   4.876 -0.0756 -0.1355 -0.2077
   35BDD     C426049  13.448   6.712   4.979 -0.1231 -0.1303 -0.2247
   35BDD     S126050  13.375   6.812   5.109 -0.0195 -0.1112 -0.1812
   35BDD     C526051  13.515   7.033   4.798  0.1140 -0.1280 -0.1334
   35BDD     C626052  13.559   6.735   4.755 -0.1399 -0.1508 -0.2352
   35BDD     O126053  13.577   6.612   4.737 -0.2443 -0.1601 -0.2769
   35BDD     O226054  13.497   7.155   4.816  0.2184 -0.1187 -0.0917
   35BDD     C726055  13.601   6.836   4.656 -0.0713 -0.1541 -0.2096
   35BDD     C826056  13.580   6.978   4.677  0.0497 -0.1434 -0.1611
   35BDD     C926057  13.626   7.056   4.574  0.0972 -0.1488 -0.1436
   35BDD     S226058  13.699   6.955   4.444 -0.0064 -0.1677 -0.1872
   35BDD    C1026059  13.662   6.807   4.538 -0.1144 -0.1677 -0.2284
   35BDD    C1126060  13.740   6.690   4.489  0.3895  0.4648  0.1077
   35BDD    C1226061  13.697   6.606   4.364  0.3264 -0.3516  0.7293
   35BDD    C1326062  13.685   6.707   4.245 -0.1445  0.2249 -0.2119
   35BDD    C1426063  13.638   6.665   4.105 -0.7519 -0.4475 -0.4547
   35BDD    C1526064  13.506   6.604   4.115 -0.2461 -0.0560 -0.4500
   35BDD    C1626065  13.438   6.578   3.989 -0.8136  0.1365  0.4158
   35BDD    C1726066  13.770   6.475   4.315  0.4894 -0.5551  0.4784
   35BDD    C1826067  13.807   6.377   4.426 -0.1620 -0.4835  0.1491
   35BDD    C1926068  13.644   7.206   4.568  0.4753 -0.0005 -0.2395
   35BDD    C2026069  13.566   7.279   4.463  0.6120  0.5863  0.1669
   35BDD    C2126070  13.408   7.252   4.458 -0.1141  0.2136  0.7410
   35BDD    C2226071  13.316   7.320   4.563 -0.8868 -0.1103  0.5935
   35BDD    C2326072  13.203   7.225   4.595  0.0116 -0.7273  0.4030
   35BDD    C2426073  13.082   7.309   4.640 -0.4202  0.1545  0.1991
   35BDD    C2526074  13.620   7.422   4.442  0.2971  0.1618 -0.0036
   35BDD    C2626075  13.567   7.497   4.317  0.0343  0.1563 -0.0350
   36TPM     C126076  13.371   7.082   5.083 -0.0852 -0.0495 -0.1540
   36TPM     C226077  13.468   7.175   5.104  0.2927 -0.4399 -0.1448
   36TPM     C326078  13.437   7.269   5.209  0.6881 -0.3496 -0.1060
   36TPM     C426079  13.316   7.247   5.268  0.6120  0.1096 -0.0857
   36TPM     S126080  13.232   7.105   5.196  0.0301  0.4665 -0.1143
   37BDTP    C126081  13.093   7.532   5.783  0.2860  0.0030  0.0844
   37BDTP    C226082  13.082   7.393   5.815  0.1717  0.0149  0.0981
   37BDTP    C326083  13.118   7.292   5.727  0.0502 -0.0247  0.0931
   37BDTP    C426084  13.168   7.329   5.601  0.0411 -0.0787  0.0738
   37BDTP    C526085  13.178   7.467   5.568  0.1554 -0.0905  0.0601
   37BDTP    C626086  13.142   7.568   5.656  0.2768 -0.0507  0.0650
   37BDTP    C726087  13.211   7.242   5.493 -0.0739 -0.1263  0.0651
   37BDTP    C826088  13.254   7.308   5.383 -0.0517 -0.1729  0.0459
   37BDTP    S126089  13.244   7.489   5.399  0.1180 -0.1627  0.0360
   37BDTP    C926090  13.049   7.618   5.890  0.4010  0.0509  0.0930
   37BDTP   C1026091  13.006   7.552   6.001  0.3787  0.0974  0.1121
   37BDTP    S226092  13.016   7.372   5.984  0.2091  0.0873  0.1220
   38FTM     S126093  12.911   7.114   5.786 -0.1463  0.0147  0.2259
   38FTM     C126094  12.952   6.939   5.800  0.1252  0.0195 -0.4229
   38FTM     C226095  13.085   6.921   5.783  0.1308  0.2692 -0.6551
   38FTM     C326096  13.163   7.039   5.759 -0.0707  0.4672 -0.3504
   38FTM     C426097  13.086   7.152   5.757 -0.2361  0.3658  0.1312
   38FTM     F126098  13.146   6.796   5.789  0.3188  0.3333 -1.1575
   38FTM     C526099  12.849   6.854   5.861  0.5963 -0.1112  0.0355
   38FTM     C626100  12.864   6.706   5.864  0.4171  0.6923 -0.3743
   38FTM     C726101  12.760   6.634   5.960  0.4020 -0.3406 -0.5018
   38FTM     C826102  12.771   6.651   6.115  0.7802 -0.6171  0.0877
   38FTM     C926103  12.654   6.582   6.196  0.4461 -0.1723  1.0899
   38FTM    C1026104  12.670   6.428   6.205  0.7793 -0.0023 -0.3325
   38FTM    C1126105  12.879   6.638   5.721  0.4601 -0.0322  0.0137
   38FTM    C1226106  12.942   6.503   5.721  0.0432  0.4406 -0.1959
   39FTM     S126107  13.212   7.838   5.732  0.1203 -0.2240 -0.0728
   39FTM     C126108  13.168   7.966   5.614 -0.1690 -0.1496  0.1155
   39FTM     C226109  13.112   7.910   5.504 -0.3990 -0.0833  0.1975
   39FTM     C326110  13.100   7.768   5.504 -0.3652 -0.0863  0.1209
   39FTM     C426111  13.149   7.712   5.618 -0.1006 -0.1572 -0.0247
   39FTM     F126112  13.068   7.985   5.396 -0.6539 -0.0160  0.3468
   39FTM     C526113  13.211   8.109   5.630  0.2868  0.5912 -0.1047
   39FTM     C626114  13.104   8.211   5.678 -0.2784 -0.5388  0.0718
   39FTM     C726115  13.156   8.357   5.668  0.0310  0.4335  0.4265
   39FTM     C826116  13.155   8.416   5.526  0.4107 -0.1028  0.3328
   39FTM     C926117  13.024   8.408   5.447  0.6655 -0.2000  0.3258
   39FTM    C1026118  12.991   8.537   5.368 -0.6119  0.2183  0.4343
   39FTM    C1126119  13.034   8.209   5.815 -0.2966  0.3659 -0.1565
   39FTM    C1226120  12.935   8.098   5.845 -0.0832  0.7159 -0.2284
   40TPM     C126121  12.953   7.603   6.126 -0.4046 -0.2249 -0.0695
   40TPM     C226122  12.891   7.724   6.142 -0.1625 -0.1190  0.0937
   40TPM     C326123  12.836   7.744   6.274  0.0756 -0.0923  0.1888
   40TPM     C426124  12.857   7.639   6.359  0.0151 -0.1776  0.0984
   40TPM     S126125  12.948   7.506   6.278 -0.3501 -0.2996 -0.1159
   41BDD     C126126  12.665   7.523   6.681 -0.1227  0.0876 -0.1120
   41BDD     C226127  12.694   7.655   6.704 -0.0536  0.0715 -0.1069
   41BDD     C326128  12.770   7.716   6.596  0.0546  0.0125 -0.0645
   41BDD     C426129  12.797   7.630   6.493  0.0667 -0.0154 -0.0381
   41BDD     S126130  12.729   7.466   6.524 -0.0567  0.0303 -0.0646
   41BDD     C526131  12.654   7.729   6.825 -0.0848  0.1094 -0.1404
   41BDD     C626132  12.812   7.857   6.599  0.1422 -0.0142 -0.0517
   41BDD     O126133  12.878   7.910   6.506  0.2356 -0.0650 -0.0153
   41BDD     O226134  12.589   7.676   6.918 -0.1782  0.1603 -0.1768
   41BDD     C726135  12.772   7.932   6.720  0.1112  0.0241 -0.0854
   41BDD     C826136  12.696   7.871   6.827  0.0028  0.0831 -0.1276
   41BDD     C926137  12.669   7.957   6.930 -0.0091  0.1109 -0.1541
   41BDD     S226138  12.737   8.120   6.899  0.1142  0.0651 -0.1278
   41BDD    C1026139  12.802   8.063   6.742  0.1802  0.0076 -0.0802
   41BDD    C1126140  12.892   8.158   6.670  0.5098  0.5534  0.4256
   41BDD    C1226141  13.040   8.152   6.696  0.0051  0.6421 -0.5764
   41BDD    C1326142  13.069   8.135   6.848 -0.1645  0.1720  0.5526
   41BDD    C1426143  13.208   8.122   6.905 -0.4727  0.2666 -0.0937
   41BDD    C1526144  13.213   8.087   7.057 -0.3266 -0.2300 -0.4360
   41BDD    C1626145  13.347   8.070   7.129  0.3955  0.2886  0.2362
   41BDD    C1726146  13.115   8.263   6.614 -0.1541  0.0643  0.4068
   41BDD    C1826147  13.107   8.403   6.671  0.5275  0.1018  0.4917
   41BDD    C1926148  12.595   7.948   7.062 -0.2449  0.2293  0.0024
   41BDD    C2026149  12.675   7.878   7.173 -0.0420  0.1190  0.0524
   41BDD    C2126150  12.814   7.935   7.210 -0.1182  0.2801  0.3315
   41BDD    C2226151  12.826   8.072   7.278 -0.2145 -0.1998  0.0386
   41BDD    C2326152  12.957   8.103   7.339 -0.3504  0.1634  0.0764
   41BDD    C2426153  12.971   8.240   7.393 -0.2463 -0.3475 -0.1594
   41BDD    C2526154  12.579   7.844   7.279  0.6429 -0.1767 -0.6316
   41BDD    C2626155  12.633   7.755   7.390  0.2600 -0.7382 -0.1263
   42TPM     C126156  12.606   7.414   6.762  0.3138 -0.0885  0.4310
   42TPM     C226157  12.659   7.289   6.749  0.8761  0.1051  0.7856
   42TPM     C326158  12.598   7.191   6.836  1.0011 -0.0172  0.7365
   42TPM     C426159  12.499   7.242   6.914  0.5341 -0.3039  0.3444
   42TPM     S126160  12.474   7.418   6.885 -0.1046 -0.4431  0.0044
   43BDTP    C126161  12.115   7.017   7.368 -0.0641  0.3359 -0.0089
   43BDTP    C226162  12.117   6.908   7.276 -0.1590  0.3704 -0.0523
   43BDTP    C326163  12.190   6.911   7.158 -0.1987  0.3748 -0.0765
   43BDTP    C426164  12.264   7.027   7.129 -0.1420  0.3437 -0.0572
   43BDTP    C526165  12.261   7.136   7.220 -0.0470  0.3092 -0.0137
   43BDTP    C626166  12.189   7.133   7.339 -0.0074  0.3050  0.0106
   43BDTP    C726167  12.346   7.053   7.012 -0.1674  0.3413 -0.0758
   43BDTP    C826168  12.405   7.175   7.013 -0.0971  0.3073 -0.0489
   43BDTP    S126169  12.365   7.274   7.160  0.0113  0.2735  0.0041
   43BDTP    C926170  12.032   6.991   7.484 -0.0387  0.3383  0.0098
   43BDTP   C1026171  11.973   6.869   7.484 -0.1090  0.3723 -0.0173
   43BDTP    S226172  12.014   6.770   7.337 -0.2174  0.4063 -0.0701
   44FTM     S126173  12.016   6.748   7.004 -0.0052  0.0386  0.0581
   44FTM     C126174  12.092   6.643   6.878  0.1544  0.1874  0.0299
   44FTM     C226175  12.227   6.657   6.882  0.1473  0.2178  0.1879
   44FTM     C326176  12.279   6.748   6.980  0.0203  0.1297  0.3369
   44FTM     C426177  12.180   6.805   7.054 -0.0729  0.0283  0.2917
   44FTM     F126178  12.312   6.588   6.797  0.2553  0.3277  0.2068
   44FTM     C526179  11.999   6.571   6.777 -0.3837  0.2953 -0.3105
   44FTM     C626180  11.860   6.625   6.731  0.1146 -0.2497 -0.6679
   44FTM     C726181  11.875   6.747   6.640  0.5237 -0.3905  0.2312
   44FTM     C826182  11.950   6.731   6.506 -0.1668  0.4102  0.1622
   44FTM     C926183  11.886   6.653   6.397 -0.7600  0.3676  0.4754
   44FTM    C1026184  11.988   6.602   6.299 -0.0395  0.0173  0.1423
   44FTM    C1126185  11.735   6.621   6.827 -0.0726 -0.7321 -0.0199
   44FTM    C1226186  11.714   6.477   6.882  0.0094 -0.1747  0.0650
   45FTM     S126187  12.336   7.331   7.474  0.0185  0.2259 -0.4726
   45FTM     C126188  12.245   7.455   7.568 -0.1372 -0.4608  0.3112
   45FTM     C226189  12.112   7.434   7.556 -0.1051 -0.8289  0.5724
   45FTM     C326190  12.072   7.322   7.475  0.0390 -0.6047  0.1884
   45FTM     C426191  12.180   7.256   7.423  0.1199 -0.0471 -0.3859
   45FTM     F126192  12.017   7.514   7.617 -0.2044 -1.3907  1.1752
   45FTM     C526193  12.328   7.557   7.636 -0.5812 -0.1311 -0.1296
   45FTM     C626194  12.344   7.574   7.792  0.7955 -0.4851  0.5347
   45FTM     C726195  12.410   7.453   7.861 -0.5423 -0.1452 -0.5383
   45FTM     C826196  12.549   7.421   7.808 -0.4740 -0.4731 -0.8211
   45FTM     C926197  12.653   7.527   7.823 -0.1393  0.2400 -0.4660
   45FTM    C1026198  12.792   7.494   7.774 -0.0835  0.0281 -0.8807
   45FTM    C1126199  12.197   7.614   7.854  0.3474  0.1580  0.3377
   45FTM    C1226200  12.213   7.657   8.001  0.4683  0.3702  0.1640
   46TPM     C126201  11.876   6.819   7.590  0.1527  0.1513 -0.3825
   46TPM     C226202  11.778   6.725   7.579  0.1687  0.1762 -0.7629
   46TPM     C326203  11.690   6.718   7.693  0.0669 -0.1838 -0.8593
   46TPM     C426204  11.721   6.808   7.791 -0.0267 -0.4833 -0.5520
   46TPM     S126205  11.864   6.908   7.746  0.0066 -0.3325 -0.1142
   47BDD     C126206  11.476   6.733   8.096 -0.0398  0.1356 -0.0084
   47BDD     C226207  11.547   6.843   8.134 -0.0083  0.0941  0.0522
   47BDD     C326208  11.646   6.885   8.037  0.0793  0.0545  0.1230
   47BDD     C426209  11.648   6.807   7.925  0.1134  0.0666  0.1154
   47BDD     S126210  11.528   6.674   7.934  0.0381  0.1283  0.0191
   47BDD     C526211  11.527   6.913   8.263 -0.0576  0.0893  0.0470
   47BDD     C626212  11.734   7.002   8.058  0.1261  0.0063  0.1955
   47BDD     O126213  11.819   7.039   7.973  0.2016 -0.0278  0.2568
   47BDD     O226214  11.442   6.877   8.347 -0.1332  0.1233 -0.0138
   47BDD     C726215  11.714   7.073   8.186  0.0768  0.0014  0.1907
   47BDD     C826216  11.615   7.030   8.284 -0.0108  0.0410  0.1199
   47BDD     C926217  11.612   7.109   8.396 -0.0449  0.0292  0.1276
   47BDD     S226218  11.733   7.241   8.387  0.0305 -0.0326  0.2238
   47BDD    C1026219  11.785   7.183   8.225  0.1083 -0.0399  0.2511
   47BDD    C1126220  11.878   7.271   8.148 -0.0484 -0.3589  0.6042
   47BDD    C1226221  12.020   7.222   8.136 -0.1088 -0.4267  0.0952
   47BDD    C1326222  12.094   7.205   8.264 -0.3753  0.9067  0.2781
   47BDD    C1426223  12.128   7.324   8.349  0.3932 -0.2734  0.2760
   47BDD    C1526224  12.201   7.303   8.479  0.2657  0.4084  0.0995
   47BDD    C1626225  12.255   7.412   8.567 -0.3515  0.0940  0.0420
   47BDD    C1726226  12.104   7.281   8.027  0.1079  0.4919 -0.0260
   47BDD    C1826227  12.080   7.225   7.889 -0.0701  0.2444  0.0860
   47BDD    C1926228  11.533   7.096   8.528 -0.2255  0.3213  0.5103
   47BDD    C2026229  11.406   7.185   8.543 -0.0387 -0.3477 -0.5427
   47BDD    C2126230  11.432   7.337   8.538 -0.4272 -0.2155 -0.3386
   47BDD    C2226231  11.541   7.394   8.628  0.3589  0.3355  0.1159
   47BDD    C2326232  11.533   7.362   8.782 -0.3226 -0.0797  0.5883
   47BDD    C2426233  11.639   7.428   8.867 -0.2222 -0.6529 -0.1815
   47BDD    C2526234  11.284   7.140   8.461  0.8269  0.3842  0.5946
   47BDD    C2626235  11.155   7.207   8.508  0.3823 -0.2539  0.3803
   48TPM     C126236  11.358   6.655   8.143  0.1230  0.1352 -0.2695
   48TPM     C226237  11.307   6.659   8.270  0.0067  0.6185 -0.3295
   48TPM     C326238  11.195   6.571   8.290 -0.2523  0.9738 -0.1974
   48TPM     C426239  11.161   6.500   8.179 -0.3334  0.7611 -0.0360
   48TPM     S126240  11.268   6.538   8.039 -0.0871  0.0907 -0.0387
   49BDTP    C126241  10.709   6.060   8.202 -0.1993  0.2388 -0.2573
   49BDTP    C226242  10.795   6.010   8.101 -0.0692  0.1792 -0.1175
   49BDTP    C326243  10.909   6.077   8.059 -0.0062  0.1466 -0.0002
   49BDTP    C426244  10.939   6.201   8.119 -0.0745  0.1739 -0.0219
   49BDTP    C526245  10.853   6.251   8.221 -0.2047  0.2335 -0.1614
   49BDTP    C626246  10.739   6.183   8.263 -0.2678  0.2663 -0.2787
   49BDTP    C726247  11.051   6.289   8.092 -0.0295  0.1490  0.0832
   49BDTP    C826248  11.053   6.401   8.168 -0.1185  0.1866  0.0293
   49BDTP    S126249  10.913   6.412   8.283 -0.2719  0.2587 -0.1614
   49BDTP    C926250  10.597   5.972   8.229 -0.2443  0.2636 -0.3619
   49BDTP   C1026251  10.595   5.860   8.154 -0.1553  0.2260 -0.3083
   49BDTP    S226252  10.735   5.849   8.038 -0.0020  0.1541 -0.1175
   50FTM     S126253  11.174   6.030   7.947  0.1352 -0.1675 -0.0348
   50FTM     C126254  11.179   5.997   7.770  0.3961 -0.0756 -0.0449
   50FTM     C226255  11.053   5.994   7.719  0.4852  0.3185 -0.3004
   50FTM     C326256  10.947   6.016   7.813  0.3592  0.5667 -0.4992
   50FTM     C426257  10.993   6.037   7.940  0.1673  0.3561 -0.3925
   50FTM     F126258  11.025   5.971   7.585  0.6862  0.4776 -0.3695
   50FTM     C526259  11.308   5.981   7.692 -0.1599 -0.2168  0.5717
   50FTM     C626260  11.360   6.097   7.603 -0.0706 -0.0568  0.1410
   50FTM     C726261  11.472   6.067   7.504 -0.8144  0.6483 -0.2504
   50FTM     C826262  11.449   5.947   7.412  0.3356  0.4847  0.3696
   50FTM     C926263  11.334   5.947   7.309  0.2907  0.0032  0.8031
   50FTM    C1026264  11.338   5.827   7.216  0.0265  0.0559 -0.1525
   50FTM    C1126265  11.373   6.220   7.689  0.1843 -0.6608  0.1593
   50FTM    C1226266  11.399   6.362   7.635  0.1975 -0.3511 -0.0128
   51FTM     S126267  10.484   6.227   8.391  0.1677  0.6540 -0.3236
   51FTM     C126268  10.502   6.251   8.569 -0.1338 -0.1309 -0.1788
   51FTM     C226269  10.633   6.263   8.601 -0.1581 -0.6977  0.1640
   51FTM     C326270  10.726   6.255   8.493  0.0512 -0.5598  0.3307
   51FTM     C426271  10.664   6.235   8.373  0.2420  0.1355  0.1085
   51FTM     F126272  10.677   6.283   8.731 -0.3713 -1.3752  0.3471
   51FTM     C526273  10.377   6.256   8.656 -0.8778 -0.0107 -0.0059
   51FTM     C626274  10.259   6.161   8.635  0.6374 -0.1777  0.5802
   51FTM     C726275  10.131   6.182   8.729 -0.7877  0.1794  0.1545
   51FTM     C826276  10.144   6.195   8.884 -0.7203 -0.2532  0.3442
   51FTM     C926277  10.202   6.074   8.965 -0.0221 -0.2817  0.2362
   51FTM    C1026278  10.200   6.111   9.107  0.4017 -0.0128 -0.3769
   51FTM    C1126279  10.287   6.014   8.602 -0.4062  0.1478  0.5335
   51FTM    C1226280  10.174   5.953   8.524 -0.7611  0.3736 -0.1709
   52TPM     C126281  10.495   5.760   8.155 -0.2828  0.0826  0.1365
   52TPM     C226282  10.451   5.692   8.265 -0.5801  0.2093  0.0985
   52TPM     C326283  10.348   5.596   8.236 -0.5633  0.2367 -0.0560
   52TPM     C426284  10.313   5.590   8.105 -0.2532  0.1309 -0.1359
   52TPM     S126285  10.408   5.707   8.006  0.0440 -0.0125 -0.0215
   53BDD     C126286  10.204   5.267   7.902 -0.1580  0.1142 -0.0944
   53BDD     C226287  10.117   5.274   8.006 -0.1311  0.0428 -0.0672
   53BDD     C326288  10.140   5.387   8.094 -0.0742 -0.0477  0.0346
   53BDD     C426289  10.245   5.465   8.055 -0.0586 -0.0440  0.0839
   53BDD     S126290  10.322   5.403   7.906 -0.1140  0.0730  0.0060
   53BDD     C526291  10.008   5.176   8.029 -0.1566  0.0552 -0.1342
   53BDD     C626292  10.057   5.413   8.214 -0.0374 -0.1345  0.0794
   53BDD     O126293  10.077   5.511   8.289  0.0116 -0.2124  0.1674
   53BDD     O226294   9.988   5.078   7.954 -0.2056  0.1332 -0.2223
   53BDD     C726295   9.948   5.315   8.237 -0.0629 -0.1221  0.0126
   53BDD     C826296   9.925   5.202   8.149 -0.1198 -0.0317 -0.0894
   53BDD     C926297   9.820   5.124   8.188 -0.1354 -0.0354 -0.1388
   53BDD     S226298   9.743   5.186   8.337 -0.0799 -0.1524 -0.0607
   53BDD    C1026299   9.861   5.322   8.341 -0.0360 -0.1935  0.0396
   53BDD    C1126300   9.853   5.410   8.464 -0.6630  0.4255 -0.1965
   53BDD    C1226301   9.735   5.494   8.501  0.8584 -0.7283  0.3172
   53BDD    C1326302   9.736   5.576   8.626 -0.9468  0.2210  0.3348
   53BDD    C1426303   9.757   5.504   8.755 -0.7594  0.9245 -0.0619
   53BDD    C1526304   9.731   5.583   8.881 -0.1518 -0.3547  0.0628
   53BDD    C1626305   9.791   5.716   8.921 -0.5799 -0.1646  0.0439
   53BDD    C1726306   9.659   5.564   8.383  0.3185 -0.0413 -0.9350
   53BDD    C1826307   9.505   5.604   8.397 -0.1904  0.1842 -0.1837
   53BDD    C1926308   9.764   4.994   8.133 -0.2012  0.1884  0.4549
   53BDD    C2026309   9.616   4.984   8.104  0.1434 -0.1319 -0.2871
   53BDD    C2126310   9.554   4.844   8.090  0.7144 -0.3457 -0.2290
   53BDD    C2226311   9.564   4.759   8.213 -0.3014 -0.2715 -0.0136
   53BDD    C2326312   9.591   4.614   8.189  0.5122  0.3210  0.4072
   53BDD    C2426313   9.584   4.543   8.326 -0.4022  0.2919  0.0283
   53BDD    C2526314   9.559   5.085   7.998  0.7509  0.3351 -0.2034
   53BDD    C2626315   9.596   5.072   7.852  0.0600 -0.1186 -0.1412
   54TPM     C126316  10.226   5.183   7.781 -0.1011 -0.0101 -0.4541
   54TPM     C226317  10.126   5.121   7.712 -0.0883 -0.0480 -0.4387
   54TPM     C326318  10.169   5.059   7.589 -0.0066 -0.3803 -0.2443
   54TPM     C426319  10.303   5.073   7.565  0.0430 -0.5957 -0.1114
   54TPM     S126320  10.384   5.167   7.695 -0.0101 -0.3940 -0.2224
   55BDTP    C126321  10.627   4.866   7.069 -0.2038  0.0777 -0.1922
   55BDTP    C226322  10.532   4.762   7.092 -0.0783  0.0143  0.0488
   55BDTP    C326323  10.438   4.767   7.194  0.0838  0.0168  0.1994
   55BDTP    C426324  10.437   4.879   7.278  0.1244  0.0850  0.1087
   55BDTP    C526325  10.531   4.984   7.255 -0.0011  0.1485 -0.1320
   55BDTP    C626326  10.625   4.979   7.153 -0.1633  0.1460 -0.2828
   55BDTP    C726327  10.349   4.906   7.389  0.2836  0.1010  0.2310
   55BDTP    C826328  10.372   5.024   7.451  0.2837  0.1726  0.0951
   55BDTP    S126329  10.509   5.118   7.377  0.0822  0.2300 -0.2066
   55BDTP    C926330  10.715   4.839   6.958 -0.3630  0.0618 -0.3142
   55BDTP   C1026331  10.691   4.721   6.896 -0.3632 -0.0099 -0.1785
   55BDTP    S226332  10.554   4.628   6.970 -0.1616 -0.0673  0.1232
   56FTM     S126333  10.161   4.677   7.242 -0.1360 -0.2051 -0.2314
   56FTM     C126334  10.138   4.499   7.235  0.0134 -0.2207 -0.3295
   56FTM     C226335  10.258   4.438   7.212  0.0647 -0.1080 -0.3628
   56FTM     C326336  10.371   4.524   7.198 -0.0073 -0.0052 -0.3150
   56FTM     C426337  10.338   4.655   7.211 -0.1173 -0.0405 -0.2430
   56FTM     F126338  10.271   4.300   7.201  0.1798 -0.0911 -0.4382
   56FTM     C526339  10.013   4.430   7.257 -0.1689  0.3316  0.2891
   56FTM     C626340   9.924   4.394   7.139  0.0486 -0.1191  0.1388
   56FTM     C726341   9.820   4.501   7.088 -0.3021  0.2581  0.2109
   56FTM     C826342   9.696   4.526   7.187  0.0118 -0.0598  0.1930
   56FTM     C926343   9.612   4.408   7.234 -0.2787 -0.8676 -0.0549
   56FTM    C1026344   9.501   4.446   7.327  0.0782 -0.2547  0.2037
   56FTM    C1126345  10.000   4.307   7.026 -0.0919 -0.3653  0.0624
   56FTM    C1226346   9.911   4.232   6.937  0.3618  0.2625  0.1247
   57FTM     S126347  10.897   5.069   7.102 -0.2564  0.0651 -0.1872
   57FTM     C126348  10.921   5.247   7.087 -0.0653  0.0912  0.4013
   57FTM     C226349  10.804   5.311   7.113  0.0469  0.1463  0.7946
   57FTM     C326350  10.691   5.228   7.144 -0.0075  0.1708  0.6654
   57FTM     C426351  10.723   5.096   7.143 -0.1666  0.1334  0.1566
   57FTM     F126352  10.792   5.449   7.109  0.2056  0.1775  1.2952
   57FTM     C526353  11.054   5.292   7.028 -0.3898  0.1929  0.2650
   57FTM     C626354  11.048   5.334   6.878  0.6838  0.6729 -0.7144
   57FTM     C726355  11.020   5.481   6.842  0.3264  0.3238  0.1627
   57FTM     C826356  11.127   5.572   6.902  0.6238  0.4668 -0.4074
   57FTM     C926357  11.215   5.626   6.795  0.1757  0.3292 -0.5562
   57FTM    C1026358  11.337   5.691   6.872 -0.1619 -0.1444  0.3229
   57FTM    C1126359  10.983   5.224   6.793  0.0175  0.8395 -0.2198
   57FTM    C1226360  10.993   5.215   6.645  0.3133  0.1653  0.0703
   58TPM     C126361  10.763   4.657   6.784 -0.3253  0.1724  0.6595
   58TPM     C226362  10.734   4.536   6.728 -0.3977  0.1695  0.7021
   58TPM     C326363  10.839   4.486   6.642 -0.6201  0.2916  0.3545
   58TPM     C426364  10.947   4.568   6.633 -0.7172  0.3877  0.0471
   58TPM     S126365  10.925   4.717   6.733 -0.5340  0.3308  0.1734
   59BDD     C126366  11.215   4.463   6.364  0.1618  0.0350 -0.1196
   59BDD     C226367  11.288   4.495   6.475  0.1401 -0.0573 -0.0793
   59BDD     C326368  11.206   4.535   6.588  0.1146 -0.2143 -0.0411
   59BDD     C426369  11.072   4.534   6.561  0.1173 -0.2394 -0.0530
   59BDD     S126370  11.039   4.482   6.392  0.1518 -0.0683 -0.1128
   59BDD     C526371  11.435   4.489   6.482  0.1419 -0.0046 -0.0740
   59BDD     C626372  11.263   4.573   6.719  0.0886 -0.3337  0.0057
   59BDD     O126373  11.192   4.608   6.816  0.0667 -0.4691  0.0384
   59BDD     O226374  11.506   4.454   6.385  0.1638  0.1308 -0.1069
   59BDD     C726375  11.411   4.568   6.726  0.0905 -0.2811  0.0107
   59BDD     C826376  11.493   4.527   6.613  0.1159 -0.1241 -0.0273
   59BDD     C926377  11.627   4.529   6.640  0.1132 -0.0989 -0.0155
   59BDD     S226378  11.659   4.580   6.809  0.0787 -0.2701  0.0443
   59BDD    C1026379  11.483   4.599   6.837  0.0688 -0.3734  0.0510
   59BDD    C1126380  11.452   4.665   6.973 -0.3564  0.0426 -0.3541
   59BDD    C1226381  11.444   4.813   6.988 -0.2149 -0.4559  0.2174
   59BDD    C1326382  11.437   4.871   7.128 -0.2254  0.2693 -0.0376
   59BDD    C1426383  11.537   4.817   7.233  0.1112 -0.3323  0.5346
   59BDD    C1526384  11.677   4.882   7.214  0.3616  0.2737  0.1502
   59BDD    C1626385  11.785   4.811   7.289 -0.4434  0.6794 -0.3527
   59BDD    C1726386  11.350   4.881   6.884 -0.3403  0.3559  0.3558
   59BDD    C1826387  11.367   5.031   6.881  0.2400 -0.0839  0.2548
   59BDD    C1926388  11.749   4.508   6.553  0.7971 -0.1801  0.7481
   59BDD    C2026389  11.847   4.401   6.585 -0.0230  0.2563  0.6298
   59BDD    C2126390  11.786   4.261   6.580 -0.0224 -0.4741  0.6892
   59BDD    C2226391  11.889   4.139   6.570  1.0606 -0.4037  0.0927
   59BDD    C2326392  11.979   4.136   6.449 -0.3779  0.8526 -0.1696
   59BDD    C2426393  12.095   4.044   6.468  0.4601 -0.0302 -0.0007
   59BDD    C2526394  11.942   4.420   6.702  0.6388 -0.5459  0.5431
   59BDD    C2626395  12.008   4.563   6.707 -0.1039  0.4043  0.0402
   60TPM     C126396  11.248   4.439   6.222  0.2881  0.0005 -0.0235
   60TPM     C226397  11.333   4.337   6.191 -0.1687 -0.3202 -0.2530
   60TPM     C326398  11.324   4.293   6.055 -0.7768 -0.3670 -0.2034
   60TPM     C426399  11.232   4.361   5.981 -0.7838 -0.0822  0.0641
   60TPM     S126400  11.149   4.487   6.079 -0.0168  0.2703  0.2753
    1BDTP    C126401   6.908   7.708   2.474 -0.0534 -0.0126 -0.1408
    1BDTP    C226402   6.932   7.574   2.434 -0.1636 -0.0721 -0.0126
    1BDTP    C326403   7.021   7.490   2.500 -0.2509 -0.0908  0.0824
    1BDTP    C426404   7.090   7.542   2.611 -0.2285 -0.0490  0.0495
    1BDTP    C526405   7.065   7.676   2.652 -0.1184  0.0107 -0.0788
    1BDTP    C626406   6.976   7.759   2.586 -0.0311  0.0294 -0.1738
    1BDTP    C726407   7.187   7.474   2.695 -0.3054 -0.0578  0.1313
    1BDTP    C826408   7.236   7.551   2.796 -0.2589 -0.0085  0.0715
    1BDTP    S126409   7.166   7.719   2.798 -0.1111  0.0563 -0.0970
    1BDTP    C926410   6.811   7.775   2.390  0.0234 -0.0037 -0.2226
    1BDTP   C1026411   6.762   7.699   2.290 -0.0232 -0.0530 -0.1628
    1BDTP    S226412   6.832   7.531   2.287 -0.1709 -0.1178  0.0057
    2FTM     S126413   6.883   7.248   2.437  0.1223 -0.2196 -0.1549
    2FTM     C126414   6.980   7.115   2.362  0.3767 -0.1014 -0.0364
    2FTM     C226415   7.111   7.150   2.359  0.3198  0.1197 -0.0046
    2FTM     C326416   7.144   7.279   2.414  0.0805  0.2085 -0.0688
    2FTM     C426417   7.034   7.344   2.460 -0.0500  0.0501 -0.1525
    2FTM     F126418   7.210   7.068   2.307  0.4811  0.2550  0.0846
    2FTM     C526419   6.918   6.981   2.326  0.1754  0.5679  0.5887
    2FTM     C626420   6.862   6.953   2.186  0.4560 -0.5595  0.0631
    2FTM     C726421   6.750   7.045   2.130 -0.6242  0.3232 -0.9298
    2FTM     C826422   6.634   7.076   2.218 -0.0847 -0.2192 -0.4921
    2FTM     C926423   6.569   7.203   2.180 -0.4389  0.2499 -0.0397
    2FTM    C1026424   6.442   7.246   2.254  0.1647 -0.2493  0.4728
    2FTM    C1126425   6.839   6.800   2.152  0.2307 -0.4614  0.6041
    2FTM    C1226426   6.816   6.755   2.007  0.4252  0.3387  0.1785
    3FTM     S126427   7.079   8.015   2.676  0.3213 -0.0061 -0.0253
    3FTM     C126428   6.954   8.132   2.731  0.1789 -0.0675 -0.2162
    3FTM     C226429   6.830   8.079   2.714  0.2300 -0.1190 -0.4272
    3FTM     C326430   6.825   7.947   2.658  0.3794 -0.1144 -0.4526
    3FTM     C426431   6.949   7.898   2.632  0.4451 -0.0573 -0.2547
    3FTM     F126432   6.714   8.147   2.747  0.1446 -0.1740 -0.6099
    3FTM     C526433   6.995   8.266   2.783 -0.4993  0.5181  0.0568
    3FTM     C626434   6.975   8.390   2.700 -0.4960 -0.8593 -0.5882
    3FTM     C726435   7.008   8.521   2.784 -0.0833  0.5011  0.2387
    3FTM     C826436   6.888   8.569   2.862  0.3411 -0.0460 -0.5181
    3FTM     C926437   6.914   8.712   2.911  0.3770  0.0941 -0.0130
    3FTM    C1026438   6.788   8.787   2.947  0.3116 -0.0128  0.4436
    3FTM    C1126439   7.050   8.383   2.565 -0.0312 -0.6323  0.4389
    3FTM    C1226440   7.204   8.365   2.579  0.4420  0.0312  0.1079
    4TPM     C126441   6.663   7.733   2.184 -0.0929 -0.3323 -0.4772
    4TPM     C226442   6.654   7.850   2.115  0.0658 -0.2915 -0.4300
    4TPM     C326443   6.547   7.853   2.018 -0.1050 -0.0073 -0.2353
    4TPM     C426444   6.474   7.737   2.014 -0.3940  0.1686 -0.1342
    4TPM     S126445   6.536   7.616   2.132 -0.4732 -0.0126 -0.2780
    5BDD     C126446   6.176   7.781   1.761  0.1871  0.0075  0.0688
    5BDD     C226447   6.204   7.647   1.759  0.1669  0.0038  0.0359
    5BDD     C326448   6.313   7.610   1.847  0.1158 -0.0445  0.0790
    5BDD     C426449   6.367   7.716   1.915  0.0977 -0.0770  0.1442
    5BDD     S126450   6.285   7.870   1.873  0.1436 -0.0491  0.1562
    5BDD     C526451   6.131   7.549   1.677  0.1937  0.0446 -0.0366
    5BDD     C626452   6.360   7.471   1.861  0.0867 -0.0567  0.0539
    5BDD     O126453   6.455   7.438   1.937  0.0426 -0.0985  0.0911
    5BDD     O226454   6.037   7.581   1.601  0.2378  0.0863 -0.0738
    5BDD     C726455   6.287   7.372   1.778  0.1135 -0.0161 -0.0185
    5BDD     C826456   6.178   7.409   1.690  0.1646  0.0323 -0.0616
    5BDD     C926457   6.124   7.303   1.623  0.1826  0.0646 -0.1269
    5BDD     S226458   6.207   7.150   1.665  0.1367  0.0368 -0.1388
    5BDD    C1026459   6.315   7.238   1.777  0.0933 -0.0199 -0.0515
    5BDD    C1126460   6.418   7.157   1.846 -0.3542  0.1446 -0.2626
    5BDD    C1226461   6.528   7.085   1.774 -0.0382  0.5577  0.2983
    5BDD    C1326462   6.597   7.176   1.677 -0.9307 -0.7917  0.5202
    5BDD    C1426463   6.663   7.308   1.727  0.7894  0.3724  0.9216
    5BDD    C1526464   6.747   7.298   1.848 -0.7516  0.3369 -0.3044
    5BDD    C1626465   6.802   7.429   1.898  0.5153  0.3316 -0.3853
    5BDD    C1726466   6.491   6.937   1.719 -0.1128 -0.1737 -0.3977
    5BDD    C1826467   6.613   6.850   1.680 -0.4897 -0.8560  0.0789
    5BDD    C1926468   6.006   7.296   1.536  0.4410  0.0437  0.0802
    5BDD    C2026469   5.902   7.188   1.568 -0.0837  0.4945 -0.1985
    5BDD    C2126470   5.796   7.165   1.458 -0.5560 -0.1251  0.4865
    5BDD    C2226471   5.684   7.260   1.430  1.3734  0.2234  0.1210
    5BDD    C2326472   5.725   7.378   1.350  0.0814 -0.0479  0.1870
    5BDD    C2426473   5.604   7.461   1.305  0.3219 -0.7277 -0.8121
    5BDD    C2526474   5.855   7.168   1.715  0.0893  0.7813 -0.0922
    5BDD    C2626475   5.812   7.024   1.747 -0.1601  0.0677  0.0526
    6TPM     C126476   6.076   7.880   1.697  0.3985  0.1202 -0.1582
    6TPM     C226477   5.966   7.841   1.627  0.5679 -0.1138 -0.2972
    6TPM     C326478   5.877   7.950   1.592  0.2750 -0.3270 -0.2260
    6TPM     C426479   5.920   8.071   1.637 -0.1179 -0.2559 -0.0326
    6TPM     S126480   6.077   8.058   1.726 -0.1486  0.0890  0.0752
    7BDTP    C126481   5.573   8.594   1.605  0.1550  0.1237  0.0597
    7BDTP    C226482   5.648   8.615   1.724  0.0808  0.1798  0.0961
    7BDTP    C326483   5.742   8.525   1.771  0.0869  0.2246  0.1709
    7BDTP    C426484   5.763   8.407   1.697  0.1698  0.2136  0.2118
    7BDTP    C526485   5.689   8.386   1.577  0.2438  0.1576  0.1753
    7BDTP    C626486   5.595   8.477   1.530  0.2379  0.1130  0.1005
    7BDTP    C726487   5.855   8.299   1.725  0.1922  0.2534  0.2898
    7BDTP    C826488   5.853   8.199   1.634  0.2785  0.2298  0.3133
    7BDTP    S126489   5.735   8.227   1.500  0.3433  0.1547  0.2400
    7BDTP    C926490   5.481   8.702   1.576  0.1326  0.0844 -0.0183
    7BDTP   C1026491   5.483   8.803   1.667  0.0464  0.1075 -0.0418
    7BDTP    S226492   5.602   8.774   1.802 -0.0185  0.1826  0.0314
    8FTM     S126493   5.972   8.494   1.941  0.6057  0.3768 -0.1730
    8FTM     C126494   5.955   8.554   2.110  0.4323 -0.0400 -0.0405
    8FTM     C226495   5.832   8.609   2.128  0.2855 -0.3915  0.0721
    8FTM     C326496   5.746   8.609   2.013  0.2984 -0.3586  0.0625
    8FTM     C426497   5.805   8.551   1.905  0.4604  0.0303 -0.0616
    8FTM     F126498   5.791   8.664   2.248  0.1308 -0.7637  0.1907
    8FTM     C526499   6.052   8.511   2.210  0.1867  0.4471 -0.1757
    8FTM     C626500   6.173   8.595   2.257 -0.2318  0.2261  0.4313
    8FTM     C726501   6.270   8.651   2.152  0.2475  0.3147 -0.2214
    8FTM     C826502   6.358   8.553   2.071 -0.3181  0.2402  0.2478
    8FTM     C926503   6.463   8.614   1.983  0.1202 -0.0009 -0.8299
    8FTM    C1026504   6.557   8.516   1.918  0.0411  0.0365  0.6867
    8FTM    C1126505   6.130   8.704   2.352 -0.0691 -0.2343 -0.3737
    8FTM    C1226506   6.068   8.660   2.483 -0.2977  0.1141  0.3115
    9FTM     S126507   5.406   8.297   1.419  0.2522 -0.0871 -0.0118
    9FTM     C126508   5.364   8.316   1.245 -0.2377  0.2060  0.1332
    9FTM     C226509   5.433   8.421   1.192 -0.5951  0.4687  0.1787
    9FTM     C326510   5.521   8.491   1.281 -0.5114  0.4585  0.1054
    9FTM     C426511   5.519   8.438   1.407 -0.0760  0.1787  0.0003
    9FTM     F126512   5.421   8.459   1.059 -1.0189  0.7346  0.2895
    9FTM     C526513   5.283   8.213   1.173  0.1977 -0.4145 -0.0973
    9FTM     C626514   5.353   8.118   1.074  0.6510 -0.1485  0.0459
    9FTM     C726515   5.477   8.036   1.126  0.2721 -0.3407  0.4283
    9FTM     C826516   5.451   7.966   1.261 -0.3419  1.2719  0.1259
    9FTM     C926517   5.570   7.878   1.300  0.1674  0.7432 -0.7106
    9FTM    C1026518   5.545   7.787   1.417 -0.4066 -0.1973 -0.2192
    9FTM    C1126519   5.374   8.164   0.927 -0.6913  0.4012 -0.1098
    9FTM    C1226520   5.268   8.242   0.854  0.4502 -0.2368 -0.3349
   10TPM     C126521   5.390   8.914   1.672  0.3885  0.2814 -0.2712
   10TPM     C226522   5.334   8.978   1.778  0.6226  0.3994 -0.2188
   10TPM     C326523   5.232   9.072   1.742  0.3747  0.1843 -0.0819
   10TPM     C426524   5.209   9.080   1.608 -0.0484 -0.0976 -0.0299
   10TPM     S126525   5.317   8.967   1.516 -0.1676 -0.1135 -0.1508
   11BDD     C126526   4.891   9.180   1.395 -0.0710 -0.1257  0.1912
   11BDD     C226527   4.909   9.284   1.482 -0.0219 -0.0618  0.1044
   11BDD     C326528   5.022   9.265   1.571  0.1538  0.0980 -0.0834
   11BDD     C426529   5.089   9.148   1.550  0.2360  0.1529 -0.1369
   11BDD     S126530   5.014   9.052   1.418  0.0992  0.0093  0.0440
   11BDD     C526531   4.824   9.405   1.486 -0.1347 -0.1447  0.1907
   11BDD     C626532   5.061   9.365   1.673  0.2335  0.1898 -0.2029
   11BDD     O126533   5.159   9.349   1.750  0.3849  0.3273 -0.3648
   11BDD     O226534   4.726   9.421   1.410 -0.2862 -0.2825  0.3526
   11BDD     C726535   4.975   9.486   1.677  0.1209  0.1068 -0.1164
   11BDD     C826536   4.862   9.504   1.588 -0.0547 -0.0527  0.0713
   11BDD     C926537   4.796   9.622   1.609 -0.1372 -0.1075  0.1248
   11BDD     S226538   4.871   9.718   1.741 -0.0003  0.0362 -0.0561
   11BDD    C1026539   4.994   9.589   1.764  0.1699  0.1714 -0.2033
   11BDD    C1126540   5.097   9.626   1.867  0.2676 -0.4787 -0.5546
   11BDD    C1226541   5.053   9.652   2.014  0.2273  0.0996 -0.1027
   11BDD    C1326542   5.168   9.699   2.100  0.0351 -0.8918  0.0309
   11BDD    C1426543   5.242   9.833   2.066 -0.6531 -0.1230  0.2476
   11BDD    C1526544   5.158   9.959   2.022 -0.0353  0.1165 -0.2378
   11BDD    C1626545   5.253  10.080   2.010 -0.4403  0.1051 -0.4785
   11BDD    C1726546   4.967   9.542   2.087  0.5840  0.0321  0.5520
   11BDD    C1826547   5.040   9.405   2.092 -0.1886 -0.4097 -0.6592
   11BDD    C1926548   4.668   9.677   1.551 -0.5858 -0.6216  0.4971
   11BDD    C2026549   4.688   9.790   1.444 -0.2123  0.1129  0.6053
   11BDD    C2126550   4.571   9.791   1.342 -0.7058 -0.2933 -0.5736
   11BDD    C2226551   4.526   9.668   1.275 -0.8295  0.1501 -0.5601
   11BDD    C2326552   4.450   9.687   1.144  0.5550 -0.4521  0.2284
   11BDD    C2426553   4.419   9.555   1.067 -0.4823  0.0649 -0.1417
   11BDD    C2526554   4.727   9.928   1.507 -0.4208  0.2516  0.0416
   11BDD    C2626555   4.640   9.991   1.611  0.0437  0.2706  0.0426
   12TPM     C126556   4.799   9.155   1.276  0.0164  0.2001 -0.0421
   12TPM     C226557   4.666   9.181   1.288  0.0423  0.2053  0.2414
   12TPM     C326558   4.584   9.113   1.192 -0.1916  0.0215  0.5645
   12TPM     C426559   4.655   9.034   1.106 -0.3957 -0.1236  0.5274
   12TPM     S126560   4.831   9.041   1.140 -0.3080 -0.0389  0.0780
   13BDTP    C126561   4.374   8.751   0.619  0.0286 -0.0520 -0.0430
   13BDTP    C226562   4.497   8.792   0.561  0.0093 -0.0556 -0.0869
   13BDTP    C326563   4.595   8.858   0.634 -0.0041  0.0296 -0.1464
   13BDTP    C426564   4.571   8.885   0.770  0.0019  0.1230 -0.1635
   13BDTP    C526565   4.448   8.843   0.827  0.0210  0.1268 -0.1196
   13BDTP    C626566   4.349   8.777   0.755  0.0345  0.0414 -0.0601
   13BDTP    C726567   4.658   8.952   0.864 -0.0094  0.2213 -0.2223
   13BDTP    C826568   4.606   8.962   0.989  0.0002  0.2975 -0.2247
   13BDTP    S126569   4.440   8.889   1.004  0.0250  0.2561 -0.1527
   13BDTP    C926570   4.287   8.684   0.524  0.0398 -0.1502  0.0158
   13BDTP   C1026571   4.339   8.673   0.400  0.0302 -0.2270  0.0182
   13BDTP    S226572   4.504   8.746   0.385  0.0055 -0.1852 -0.0538
   14FTM     S126573   4.822   8.747   0.507 -0.0103  0.0233 -0.2902
   14FTM     C126574   4.959   8.857   0.469  0.0034 -0.0648 -0.4940
   14FTM     C226575   4.929   8.985   0.505  0.1057 -0.0308 -0.5257
   14FTM     C326576   4.799   9.004   0.564  0.1782  0.0632 -0.3965
   14FTM     C426577   4.729   8.888   0.573  0.1296  0.1027 -0.2615
   14FTM     F126578   5.016   9.091   0.488  0.1400 -0.0830 -0.6735
   14FTM     C526579   5.076   8.815   0.386 -0.4300  0.7714 -0.3373
   14FTM     C626580   5.195   8.741   0.457 -0.7411  0.0149  0.3489
   14FTM     C726581   5.175   8.598   0.515 -0.2597 -0.5480 -0.2564
   14FTM     C826582   5.150   8.479   0.421 -0.1117 -0.5796 -0.2591
   14FTM     C926583   5.097   8.349   0.477 -0.3292  0.5862 -0.2705
   14FTM    C1026584   5.115   8.236   0.375 -0.2690  0.3294  0.0825
   14FTM    C1126585   5.284   8.819   0.558  0.0093 -0.3168  0.7682
   14FTM    C1226586   5.360   8.936   0.485 -0.3789  0.0221 -0.4104
   15FTM     S126587   4.147   8.584   0.825  0.3206  0.2224 -0.1292
   15FTM     C126588   4.018   8.642   0.938  0.2535 -0.1138 -0.0292
   15FTM     C226589   4.038   8.774   0.967 -0.0370 -0.0749 -0.0015
   15FTM     C326590   4.152   8.835   0.905 -0.2207  0.2124 -0.0550
   15FTM     C426591   4.221   8.749   0.826 -0.0656  0.3991 -0.1261
   15FTM     F126592   3.955   8.846   1.051 -0.1538 -0.2964  0.0740
   15FTM     C526593   3.916   8.543   0.984  0.2393  0.2208 -0.2645
   15FTM     C626594   3.772   8.567   0.929 -0.1006  0.6919  0.1915
   15FTM     C726595   3.752   8.548   0.776 -0.0926  0.3006  0.4752
   15FTM     C826596   3.773   8.416   0.708 -0.2720  0.1755 -0.2571
   15FTM     C926597   3.699   8.293   0.766 -0.2784 -0.1728  0.4576
   15FTM    C1026598   3.772   8.160   0.745  0.7282 -0.4534  0.4566
   15FTM    C1126599   3.689   8.685   0.991 -0.0964  0.1453 -0.2952
   15FTM    C1226600   3.687   8.691   1.147  0.8359  0.9808 -0.0014
   16TPM     C126601   4.272   8.611   0.287  0.5448 -0.3224  0.2882
   16TPM     C226602   4.274   8.650   0.157  1.0887 -0.1333  0.3490
   16TPM     C326603   4.200   8.563   0.069  1.0130  0.2835 -0.0053
   16TPM     C426604   4.140   8.458   0.133  0.4115  0.4122 -0.3362
   16TPM     S126605   4.175   8.460   0.310 -0.1103  0.0136 -0.2252
   17BDD     C126606   4.047   8.104  -0.008 -0.1133  0.0184  0.2056
   17BDD     C226607   3.965   8.193  -0.072 -0.1141  0.0162  0.2046
   17BDD     C326608   3.994   8.332  -0.038 -0.1334  0.0157  0.2236
   17BDD     C426609   4.097   8.346   0.051 -0.1472  0.0168  0.2393
   17BDD     S126610   4.166   8.187   0.098 -0.1367  0.0191  0.2310
   17BDD     C526611   3.858   8.155  -0.166 -0.0970  0.0157  0.1850
   17BDD     C626612   3.918   8.445  -0.095 -0.1376  0.0143  0.2258
   17BDD     O126613   3.943   8.564  -0.065 -0.1543  0.0136  0.2425
   17BDD     O226614   3.833   8.036  -0.195 -0.0803  0.0160  0.1683
   17BDD     C726615   3.811   8.407  -0.189 -0.1205  0.0129  0.2067
   17BDD     C826616   3.782   8.268  -0.222 -0.1011  0.0136  0.1872
   17BDD     C926617   3.679   8.254  -0.311 -0.0875  0.0129  0.1712
   17BDD     S226618   3.611   8.413  -0.358 -0.0978  0.0108  0.1795
   17BDD    C1026619   3.729   8.496  -0.252 -0.1214  0.0117  0.2050
   17BDD    C1126620   3.730   8.647  -0.270  0.0008  0.5271 -0.6849
   17BDD    C1226621   3.603   8.726  -0.230  0.1961 -0.7993  0.0563
   17BDD    C1326622   3.597   8.871  -0.286  0.3549 -0.2354  0.3670
   17BDD    C1426623   3.600   8.883  -0.433  0.3713  0.7801 -0.2296
   17BDD    C1526624   3.575   9.021  -0.475  0.2456 -0.1075  0.1109
   17BDD    C1626625   3.587   9.047  -0.625 -0.4246 -0.2292 -0.0667
   17BDD    C1726626   3.565   8.701  -0.082 -0.0076  0.3520 -0.6381
   17BDD    C1826627   3.646   8.760   0.024 -0.9098 -0.2948 -0.0968
   17BDD    C1926628   3.616   8.136  -0.377  0.0315 -0.1267  0.5070
   17BDD    C2026629   3.470   8.114  -0.363 -0.3736  0.5780 -1.3035
   17BDD    C2126630   3.419   8.090  -0.221 -0.4158  0.7305  0.5745
   17BDD    C2226631   3.465   7.972  -0.143 -0.5070  0.2058 -0.6110
   17BDD    C2326632   3.397   7.975  -0.007  0.0385 -0.0239 -0.2597
   17BDD    C2426633   3.462   7.885   0.092 -0.4176  0.1395  0.4079
   17BDD    C2526634   3.434   7.996  -0.462 -0.4604  0.2136 -0.3314
   17BDD    C2626635   3.290   7.957  -0.493  0.6238 -0.5070  0.5484
   18TPM     C126636   4.069   7.965   0.001  0.5825 -0.1350 -0.4876
   18TPM     C226637   4.018   7.870  -0.083  0.9001 -0.2351 -0.5708
   18TPM     C326638   4.064   7.736  -0.054  0.8086 -0.1998 -0.2456
   18TPM     C426639   4.150   7.729   0.051  0.4211 -0.0733  0.0857
   18TPM     S126640   4.180   7.892   0.123  0.1395  0.0121  0.0122
   19BDTP    C126641   4.443   7.203   0.204 -0.2005 -0.0454  0.1679
   19BDTP    C226642   4.522   7.303   0.269 -0.0893 -0.0726  0.0746
   19BDTP    C326643   4.492   7.438   0.263  0.0736 -0.0409 -0.0690
   19BDTP    C426644   4.378   7.477   0.190  0.1295  0.0205 -0.1236
   19BDTP    C526645   4.299   7.378   0.126  0.0182  0.0477 -0.0303
   19BDTP    C626646   4.330   7.242   0.131 -0.1447  0.0159  0.1134
   19BDTP    C726647   4.327   7.611   0.170  0.2925  0.0625 -0.2684
   19BDTP    C826648   4.214   7.617   0.095  0.3085  0.1190 -0.2882
   19BDTP    S126649   4.158   7.454   0.038  0.1198  0.1270 -0.1261
   19BDTP    C926650   4.495   7.069   0.224 -0.3635 -0.0874  0.3128
   19BDTP   C1026651   4.607   7.063   0.299 -0.3797 -0.1440  0.3325
   19BDTP    S226652   4.663   7.227   0.356 -0.1910 -0.1520  0.1704
   20FTM     S126653   4.599   7.506   0.515  0.2683 -0.1200 -0.1538
   20FTM     C126654   4.701   7.655   0.517 -0.3844  0.3350 -0.2173
   20FTM     C226655   4.704   7.711   0.393 -0.4661  0.1799 -0.2897
   20FTM     C326656   4.629   7.643   0.292 -0.0370 -0.2908 -0.2999
   20FTM     C426657   4.567   7.531   0.339  0.3877 -0.5029 -0.2332
   20FTM     F126658   4.774   7.827   0.365 -0.9347  0.4549 -0.3511
   20FTM     C526659   4.757   7.702   0.651  0.1913 -0.4237  0.2828
   20FTM     C626660   4.880   7.631   0.715  0.4892  0.0243  0.5591
   20FTM     C726661   5.002   7.638   0.619 -0.7250 -0.2158 -0.3239
   20FTM     C826662   5.073   7.774   0.584  0.2163  0.4467  0.3273
   20FTM     C926663   5.127   7.854   0.700  0.1171 -0.0282  0.7656
   20FTM    C1026664   5.223   7.774   0.787  0.7190 -0.5238 -0.2504
   20FTM    C1126665   4.863   7.481   0.753  0.0926  0.1129  0.3705
   20FTM    C1226666   4.758   7.457   0.858 -0.2214  0.4279 -0.0711
   21FTM     S126667   4.173   7.000   0.174  0.0791 -0.0061 -0.0754
   21FTM     C126668   4.078   6.947   0.030  0.5298 -0.3195 -0.2612
   21FTM     C226669   4.100   7.032  -0.074  0.9056 -0.5822 -0.4027
   21FTM     C326670   4.189   7.141  -0.049  0.8668 -0.5566 -0.3757
   21FTM     C426671   4.237   7.140   0.079  0.4476 -0.2647 -0.2083
   21FTM     F126672   4.040   7.016  -0.198  1.3071 -0.8615 -0.5651
   21FTM     C526673   3.991   6.820   0.024 -0.0111 -0.8884  0.1797
   21FTM     C626674   4.037   6.712  -0.070 -0.1127 -0.0382  0.0420
   21FTM     C726675   3.945   6.595  -0.076  0.1532  0.5362  0.1801
   21FTM     C826676   3.805   6.612  -0.141  0.0149 -0.1466  0.0718
   21FTM     C926677   3.727   6.484  -0.143 -0.1777 -0.4879  0.0737
   21FTM    C1026678   3.601   6.490  -0.229 -0.4367  0.1698  0.5796
   21FTM    C1126679   4.191   6.680  -0.081 -0.0422 -0.4996 -0.2777
   21FTM    C1226680   4.253   6.642  -0.213  0.7626 -0.3217  1.0959
   22TPM     C126681   4.677   6.944   0.349  0.1940  0.0476 -0.1293
   22TPM     C226682   4.669   6.814   0.308  0.0986  0.0348 -0.0698
   22TPM     C326683   4.735   6.721   0.397 -0.0417  0.0178  0.0162
   22TPM     C426684   4.792   6.780   0.505 -0.0533  0.0177  0.0223
   22TPM     S126685   4.769   6.959   0.504  0.1136  0.0394 -0.0809
   23BDD     C126686   4.961   6.481   0.703 -0.0464 -0.0528  0.0608
   23BDD     C226687   5.011   6.594   0.763  0.0021 -0.0275 -0.0260
   23BDD     C326688   4.961   6.717   0.704  0.0709 -0.0507 -0.1346
   23BDD     C426689   4.874   6.697   0.601  0.0738 -0.0930 -0.1289
   23BDD     S126690   4.848   6.522   0.569 -0.0092 -0.1069  0.0127
   23BDD     C526691   5.106   6.592   0.875 -0.0131  0.0184 -0.0124
   23BDD     C626692   5.002   6.850   0.753  0.1311 -0.0302 -0.2400
   23BDD     O126693   4.959   6.957   0.703  0.1905 -0.0501 -0.3336
   23BDD     O226694   5.149   6.486   0.926 -0.0724  0.0383  0.0812
   23BDD     C726695   5.097   6.849   0.866  0.1158  0.0160 -0.2264
   23BDD     C826696   5.147   6.725   0.925  0.0470  0.0391 -0.1178
   23BDD     C926697   5.234   6.745   1.028  0.0440  0.0814 -0.1235
   23BDD     S226698   5.260   6.920   1.060  0.1272  0.0952 -0.2651
   23BDD    C1026699   5.147   6.961   0.926  0.1643  0.0410 -0.3132
   23BDD    C1126700   5.132   7.113   0.907 -0.6131  0.2045  0.3410
   23BDD    C1226701   5.256   7.195   0.856  0.3318  0.5254  0.9905
   23BDD    C1326702   5.315   7.114   0.728 -0.1686 -0.1995 -0.7355
   23BDD    C1426703   5.444   7.157   0.674 -0.1830 -0.1838 -0.2802
   23BDD    C1526704   5.559   7.123   0.771  0.3818 -0.5888 -0.0118
   23BDD    C1626705   5.699   7.131   0.704  0.4345  0.6444  0.4929
   23BDD    C1726706   5.218   7.340   0.825 -0.0786  0.3967  0.1579
   23BDD    C1826707   5.180   7.427   0.945  0.1280  0.1393  0.0207
   23BDD    C1926708   5.304   6.656   1.130  0.5702 -0.2791  0.0028
   23BDD    C2026709   5.413   6.559   1.079  0.4385 -0.0812  0.3821
   23BDD    C2126710   5.531   6.616   0.996  0.2830 -0.6633  0.0734
   23BDD    C2226711   5.607   6.734   1.054  0.1366 -0.3843  0.3753
   23BDD    C2326712   5.729   6.772   0.976  0.0433  0.4706  0.2904
   23BDD    C2426713   5.807   6.883   1.026 -0.0020 -0.3962  0.1623
   23BDD    C2526714   5.463   6.466   1.193  0.1028 -0.1820  0.2411
   23BDD    C2626715   5.353   6.392   1.272  0.2396 -0.9439  0.2650
   24TPM     C126716   4.980   6.338   0.717  0.0537 -0.3458  0.0423
   24TPM     C226717   4.986   6.274   0.837  0.2570 -0.4547 -0.0250
   24TPM     C326718   4.970   6.131   0.827  0.2937 -0.4517 -0.1328
   24TPM     C426719   4.952   6.087   0.700  0.1185 -0.3406 -0.1476
   24TPM     S126720   4.954   6.222   0.581 -0.1082 -0.2302 -0.0257
   25BDTP    C126721   4.784   5.490   0.625  0.2643 -0.0176  0.1618
   25BDTP    C226722   4.758   5.545   0.496  0.1835 -0.0532  0.1628
   25BDTP    C326723   4.785   5.677   0.464  0.1504 -0.0584  0.1135
   25BDTP    C426724   4.840   5.759   0.564  0.1994 -0.0271  0.0606
   25BDTP    C526725   4.866   5.704   0.693  0.2801  0.0086  0.0596
   25BDTP    C626726   4.839   5.572   0.725  0.3134  0.0137  0.1089
   25BDTP    C726727   4.876   5.899   0.555  0.1786 -0.0253  0.0040
   25BDTP    C826728   4.927   5.951   0.669  0.2390  0.0091 -0.0390
   25BDTP    S126729   4.937   5.831   0.804  0.3309  0.0446 -0.0137
   25BDTP    C926730   4.747   5.350   0.635  0.2851 -0.0191  0.2184
   25BDTP   C1026731   4.696   5.298   0.521  0.2247 -0.0538  0.2613
   25BDTP    S226732   4.686   5.418   0.385  0.1327 -0.0893  0.2361
   26FTM     S126733   4.913   5.667   0.212 -0.2301  0.1721  0.0042
   26FTM     C126734   4.818   5.727   0.071 -0.2316  0.0377 -0.0517
   26FTM     C226735   4.697   5.773   0.112 -0.4151 -0.3448 -0.1509
   26FTM     C326736   4.672   5.765   0.253 -0.5624 -0.5515 -0.1884
   26FTM     C426737   4.776   5.711   0.322 -0.4891 -0.3198 -0.1157
   26FTM     F126738   4.603   5.825   0.025 -0.4609 -0.5302 -0.2135
   26FTM     C526739   4.869   5.739  -0.068  0.1206 -0.3505 -0.1575
   26FTM     C626740   4.918   5.615  -0.147  0.5149 -0.2849 -0.2885
   26FTM     C726741   4.803   5.509  -0.181 -0.1164  0.6851 -0.4507
   26FTM     C826742   4.720   5.431  -0.071 -0.0030 -0.1986  0.3393
   26FTM     C926743   4.573   5.395  -0.113  0.7132  0.3597  0.3062
   26FTM    C1026744   4.515   5.333   0.012 -0.1433 -0.6378  0.4269
   26FTM    C1126745   5.044   5.551  -0.109  0.1441  0.5039 -0.0591
   26FTM    C1226746   5.168   5.642  -0.088 -0.1265  0.4927 -0.4109
   27FTM     S126747   5.035   5.563   0.940  0.0596  0.0470 -0.1443
   27FTM     C126748   4.980   5.473   1.086  0.2025 -0.2833 -0.2911
   27FTM     C226749   4.856   5.423   1.065  0.2601 -0.4003 -0.3534
   27FTM     C326750   4.797   5.450   0.938  0.1981 -0.2445 -0.2922
   27FTM     C426751   4.879   5.524   0.858  0.0895  0.0003 -0.1794
   27FTM     F126752   4.788   5.349   1.161  0.3724 -0.6559 -0.4695
   27FTM     C526753   5.061   5.462   1.215  0.1059 -0.3925  0.0631
   27FTM     C626754   5.069   5.586   1.301 -0.0594 -0.1720  0.7318
   27FTM     C726755   5.160   5.564   1.424 -0.1814 -0.6625  0.7043
   27FTM     C826756   5.083   5.498   1.537  0.0455  0.1360 -0.1864
   27FTM     C926757   5.166   5.453   1.653  0.0112  1.1825 -0.2974
   27FTM    C1026758   5.225   5.309   1.636  0.0260  0.2004  0.1424
   27FTM    C1126759   5.087   5.729   1.225  0.1902  1.1069  0.5584
   27FTM    C1226760   5.042   5.847   1.304 -0.3376 -0.6125  0.2299
   28TPM     C126761   4.639   5.169   0.503  0.2142 -0.0158  0.0889
   28TPM     C226762   4.560   5.122   0.401  0.7859 -0.0763 -0.3352
   28TPM     C326763   4.526   4.983   0.414  0.7561 -0.0823 -0.4765
   28TPM     C426764   4.578   4.924   0.525  0.1616 -0.0264 -0.1600
   28TPM     S126765   4.675   5.040   0.623 -0.4109  0.0385  0.3448
   29BDD     C126766   4.643   4.562   0.654 -0.0101  0.0635  0.1697
   29BDD     C226767   4.513   4.562   0.610  0.0131  0.0675  0.1010
   29BDD     C326768   4.470   4.690   0.556  0.0100  0.1005  0.1825
   29BDD     C426769   4.567   4.786   0.561 -0.0156  0.1210  0.3122
   29BDD     S126770   4.719   4.723   0.632 -0.0376  0.1007  0.3412
   29BDD     C526771   4.424   4.444   0.615  0.0391  0.0410 -0.0421
   29BDD     C626772   4.334   4.712   0.503  0.0327  0.1103  0.1288
   29BDD     O126773   4.297   4.822   0.457  0.0299  0.1386  0.1990
   29BDD     O226774   4.462   4.333   0.661  0.0418  0.0126 -0.1123
   29BDD     C726775   4.245   4.594   0.509  0.0585  0.0839 -0.0143
   29BDD     C826776   4.288   4.466   0.562  0.0615  0.0509 -0.0958
   29BDD     C926777   4.191   4.370   0.558  0.0874  0.0303 -0.2255
   29BDD     S226778   4.039   4.433   0.487  0.1093  0.0506 -0.2545
   29BDD    C1026779   4.116   4.594   0.465  0.0819  0.0880 -0.0831
   29BDD    C1126780   4.021   4.691   0.399  0.6914 -0.5809  0.0876
   29BDD    C1226781   3.972   4.684   0.254 -0.2161  0.5707 -0.2148
   29BDD    C1326782   4.085   4.686   0.150 -0.3709 -0.1327  0.5517
   29BDD    C1426783   4.172   4.819   0.145 -0.1536  0.1128 -0.0681
   29BDD    C1526784   4.290   4.801   0.050 -0.0001 -0.4306 -0.4348
   29BDD    C1626785   4.354   4.939   0.030  0.9438  0.1067 -0.4648
   29BDD    C1726786   3.853   4.776   0.227  0.3453 -0.0449 -0.4429
   29BDD    C1826787   3.782   4.774   0.088 -0.0096 -0.0270  0.5626
   29BDD    C1926788   4.184   4.237   0.623  0.6494 -0.0154  0.4844
   29BDD    C2026789   4.072   4.214   0.726 -0.1634 -0.3405 -0.5274
   29BDD    C2126790   4.088   4.299   0.856  0.1579  0.5690 -0.0593
   29BDD    C2226791   4.216   4.272   0.930  0.3691 -0.6764 -0.7516
   29BDD    C2326792   4.220   4.146   1.011  0.1168  0.0893 -0.7928
   29BDD    C2426793   4.349   4.132   1.097 -0.4309  0.3432  0.2973
   29BDD    C2526794   3.932   4.198   0.674  0.6112  0.4767 -0.3826
   29BDD    C2626795   3.897   4.110   0.547 -0.1304  0.0769 -0.4501
   30TPM     C126796   4.737   4.459   0.695 -0.1163  0.2320 -0.4498
   30TPM     C226797   4.711   4.377   0.800 -0.5289  0.3614 -0.4471
   30TPM     C326798   4.825   4.302   0.845 -0.7625  0.2232 -0.0707
   30TPM     C426799   4.938   4.327   0.773 -0.5278 -0.0119  0.2135
   30TPM     S126800   4.909   4.448   0.643  0.0105 -0.0771  0.0264
   31BDTP    C126801   5.536   4.122   0.767 -0.0697 -0.0224 -0.2142
   31BDTP    C226802   5.488   4.070   0.891 -0.0255  0.0865 -0.1505
   31BDTP    C326803   5.358   4.088   0.934 -0.0157  0.1060 -0.1294
   31BDTP    C426804   5.270   4.160   0.852 -0.0515  0.0139 -0.1730
   31BDTP    C526805   5.318   4.213   0.729 -0.0958 -0.0951 -0.2367
   31BDTP    C626806   5.448   4.195   0.685 -0.1056 -0.1148 -0.2579
   31BDTP    C726807   5.130   4.191   0.876 -0.0498  0.0134 -0.1621
   31BDTP    C826808   5.072   4.264   0.777 -0.0901 -0.0892 -0.2139
   31BDTP    S126809   5.185   4.303   0.641 -0.1359 -0.2000 -0.2837
   31BDTP    C926810   5.676   4.091   0.744 -0.0715 -0.0222 -0.2252
   31BDTP   C1026811   5.734   4.019   0.842 -0.0314  0.0806 -0.1734
   31BDTP    S226812   5.621   3.980   0.979  0.0146  0.1914 -0.1035
   32FTM     S126813   5.220   4.107   1.185  0.2800 -0.0210  0.0385
   32FTM     C126814   5.198   3.953   1.276 -0.1309 -0.0393 -0.0850
   32FTM     C226815   5.257   3.851   1.208 -0.6196 -0.1898 -0.2918
   32FTM     C326816   5.321   3.886   1.085 -0.7026 -0.2975 -0.3650
   32FTM     C426817   5.310   4.018   1.057 -0.2628 -0.2273 -0.2093
   32FTM     F126818   5.257   3.720   1.254 -1.0211 -0.2390 -0.4270
   32FTM     C526819   5.121   3.964   1.407  0.9355 -0.2803  0.1077
   32FTM     C626820   5.005   4.069   1.418  0.0826  0.6514 -0.3313
   32FTM     C726821   4.942   4.092   1.560 -0.7725 -0.1829 -0.1417
   32FTM     C826822   5.039   4.115   1.679 -0.0475  0.6295 -0.2839
   32FTM     C926823   5.133   4.237   1.679  0.3436  0.3636  0.7152
   32FTM    C1026824   5.218   4.233   1.808  0.2937 -0.3701 -0.3913
   32FTM    C1126825   4.888   4.067   1.308 -0.6140  0.0825  0.2575
   32FTM    C1226826   4.801   3.940   1.289 -0.0809  0.4037 -0.0261
   33FTM     S126827   5.451   4.148   0.408  0.0963  0.0079 -0.1507
   33FTM     C126828   5.530   4.272   0.305 -0.4551  0.3068 -0.2164
   33FTM     C226829   5.581   4.372   0.383 -0.6319  0.4246 -0.2492
   33FTM     C326830   5.562   4.357   0.524 -0.3561  0.2929 -0.2258
   33FTM     C426831   5.495   4.243   0.556  0.0450  0.0668 -0.1733
   33FTM     F126832   5.647   4.482   0.331 -1.0542  0.6588 -0.3024
   33FTM     C526833   5.548   4.236   0.159  0.1560  0.0002  0.6165
   33FTM     C626834   5.638   4.321   0.072 -0.0671 -0.2119  0.3487
   33FTM     C726835   5.610   4.298  -0.079 -0.3430  0.2516 -0.8860
   33FTM     C826836   5.476   4.331  -0.131 -0.3226 -0.0629 -0.3352
   33FTM     C926837   5.470   4.336  -0.285 -0.2600  1.0063 -0.0424
   33FTM    C1026838   5.332   4.383  -0.338 -0.7160 -0.1644 -0.0284
   33FTM    C1126839   5.785   4.327   0.109 -0.1427 -0.1309  0.6038
   33FTM    C1226840   5.862   4.194   0.094  0.0041 -0.0220 -0.1017
   34TPM     C126841   5.872   3.958   0.844  0.0526  0.1745  0.0887
   34TPM     C226842   5.935   3.883   0.939  0.1640 -0.0783 -0.1837
   34TPM     C326843   6.072   3.853   0.906  0.0229 -0.2971 -0.5923
   34TPM     C426844   6.113   3.905   0.787 -0.1963 -0.2112 -0.6314
   34TPM     S126845   5.981   3.997   0.706 -0.2416  0.1556 -0.1516
   35BDD     C126846   6.414   3.829   0.548 -0.0343 -0.0181 -0.1975
   35BDD     C226847   6.458   3.925   0.634  0.0372 -0.0548 -0.1924
   35BDD     C326848   6.362   3.957   0.739  0.0392  0.0459 -0.2205
   35BDD     C426849   6.247   3.884   0.731 -0.0307  0.1581 -0.2465
   35BDD     S126850   6.250   3.770   0.592 -0.1041  0.1453 -0.2377
   35BDD     C526851   6.589   3.993   0.623  0.1065 -0.1839 -0.1617
   35BDD     C626852   6.389   4.058   0.843  0.1105  0.0274 -0.2205
   35BDD     O126853   6.307   4.086   0.933  0.1122  0.1142 -0.2447
   35BDD     O226854   6.671   3.965   0.532  0.1047 -0.2708 -0.1374
   35BDD     C726855   6.520   4.126   0.832  0.1795 -0.1018 -0.1897
   35BDD     C826856   6.615   4.094   0.727  0.1776 -0.2025 -0.1617
   35BDD     C926857   6.731   4.167   0.734  0.2476 -0.3146 -0.1357
   35BDD     S226858   6.728   4.281   0.873  0.3209 -0.3017 -0.1445
   35BDD    C1026859   6.564   4.222   0.918  0.2511 -0.1385 -0.1847
   35BDD    C1126860   6.494   4.292   1.034 -0.6420  0.0230 -0.4107
   35BDD    C1226861   6.573   4.314   1.165  0.2881 -0.0247 -0.4271
   35BDD    C1326862   6.662   4.437   1.164 -0.9229  0.5918  0.0950
   35BDD    C1426863   6.609   4.574   1.148  0.7038 -0.7888 -0.7082
   35BDD    C1526864   6.724   4.680   1.154 -0.6558  0.3025  0.3482
   35BDD    C1626865   6.666   4.821   1.126 -0.2222  0.2356  0.2598
   35BDD    C1726866   6.648   4.187   1.219 -0.5024 -0.2066  0.1126
   35BDD    C1826867   6.578   4.059   1.253  0.3740 -0.3645  0.2630
   35BDD    C1926868   6.860   4.160   0.654 -0.0186 -0.6083 -0.2613
   35BDD    C2026869   6.843   4.214   0.508 -0.1297 -0.0502  0.2736
   35BDD    C2126870   6.786   4.358   0.491 -0.1078 -0.2551  0.1559
   35BDD    C2226871   6.717   4.398   0.359 -0.7411 -0.0832  0.2350
   35BDD    C2326872   6.608   4.309   0.300  0.2727 -0.6835 -0.4222
   35BDD    C2426873   6.563   4.343   0.154 -0.8079 -0.2793 -0.1885
   35BDD    C2526874   6.962   4.177   0.423 -0.2219 -0.4341  0.7621
   35BDD    C2626875   6.988   4.035   0.399 -0.2055  0.5046  0.2557
   36TPM     C126876   6.474   3.756   0.436 -0.2131  0.0553 -0.3716
   36TPM     C226877   6.522   3.821   0.327  0.1590  0.0272 -0.2258
   36TPM     C326878   6.545   3.736   0.213  0.5416 -0.0011 -0.1329
   36TPM     C426879   6.513   3.605   0.236  0.4613  0.0054 -0.2078
   36TPM     S126880   6.452   3.580   0.403 -0.1083  0.0481 -0.4030
   37BDTP    C126881   6.695   3.154  -0.161  0.0370  0.1754  0.0031
   37BDTP    C226882   6.598   3.086  -0.082 -0.0176  0.1613 -0.0758
   37BDTP    C326883   6.527   3.148   0.020 -0.1000  0.1475 -0.1249
   37BDTP    C426884   6.552   3.284   0.046 -0.1302  0.1475 -0.0949
   37BDTP    C526885   6.649   3.352  -0.033 -0.0758  0.1616 -0.0160
   37BDTP    C626886   6.721   3.290  -0.135  0.0066  0.1754  0.0330
   37BDTP    C726887   6.491   3.369   0.146 -0.2130  0.1346 -0.1344
   37BDTP    C826888   6.537   3.496   0.146 -0.2234  0.1383 -0.0896
   37BDTP    S126889   6.664   3.526   0.019 -0.1298  0.1586  0.0091
   37BDTP    C926890   6.756   3.069  -0.261  0.1196  0.1882  0.0427
   37BDTP   C1026891   6.711   2.942  -0.261  0.1302  0.1845 -0.0024
   37BDTP    S226892   6.584   2.912  -0.134  0.0363  0.1642 -0.1010
   38FTM     S126893   6.284   3.012  -0.029  0.1673  0.0987  0.0462
   38FTM     C126894   6.191   2.953   0.113 -0.3041  0.4476 -0.1106
   38FTM     C226895   6.254   2.989   0.228 -0.6008  0.5956  0.0055
   38FTM     C326896   6.375   3.065   0.213 -0.4826  0.4502  0.2177
   38FTM     C426897   6.406   3.086   0.082 -0.0822  0.1821  0.2664
   38FTM     F126898   6.205   2.957   0.354 -0.9971  0.8716 -0.0741
   38FTM     C526899   6.078   2.862   0.089  0.2855  0.0406 -0.1954
   38FTM     C626900   6.103   2.706   0.104  0.5449 -0.0611  0.8418
   38FTM     C726901   6.214   2.638   0.023 -0.3766 -0.1862  1.1162
   38FTM     C826902   6.196   2.632  -0.132  0.5469 -0.5685 -0.3398
   38FTM     C926903   6.313   2.580  -0.208  0.2727  0.0733  0.2506
   38FTM    C1026904   6.359   2.432  -0.189  0.2883 -0.2593  0.2373
   38FTM    C1126905   6.082   2.640   0.240 -0.6337  0.8166  0.3190
   38FTM    C1226906   5.942   2.645   0.281  0.8757 -0.2402  0.1618
   39FTM     S126907   6.758   3.532  -0.282 -0.0041  0.4452  0.3967
   39FTM     C126908   6.912   3.547  -0.375 -0.3431  0.2074 -0.2144
   39FTM     C226909   6.988   3.436  -0.356 -0.4971  0.0299 -0.6266
   39FTM     C326910   6.932   3.335  -0.271 -0.3643  0.0672 -0.4954
   39FTM     C426911   6.810   3.370  -0.223 -0.0999  0.2800  0.0342
   39FTM     F126912   7.112   3.418  -0.416 -0.7676 -0.1768 -1.1477
   39FTM     C526913   6.956   3.656  -0.464  0.0845  0.1353 -0.1499
   39FTM     C626914   6.855   3.720  -0.564 -0.8805 -0.5717  0.2706
   39FTM     C726915   6.764   3.819  -0.501  0.1081 -0.7203  0.5176
   39FTM     C826916   6.817   3.961  -0.468 -0.0425 -0.5695 -0.3972
   39FTM     C926917   6.880   4.038  -0.595  1.0158  0.4597 -1.1609
   39FTM    C1026918   6.923   4.181  -0.563  0.6943  0.0557 -0.4469
   39FTM    C1126919   6.758   3.622  -0.632 -0.0905  0.3930  0.0323
   39FTM    C1226920   6.812   3.517  -0.730  0.1437  0.0328 -0.6871
   40TPM     C126921   6.731   2.842  -0.359 -0.1776 -0.1359  0.0552
   40TPM     C226922   6.667   2.722  -0.367 -0.0986 -0.1687 -0.0918
   40TPM     C326923   6.711   2.640  -0.477  0.0864 -0.0813 -0.0832
   40TPM     C426924   6.808   2.698  -0.553  0.1484  0.0181  0.0700
   40TPM     S126925   6.852   2.862  -0.492 -0.0232  0.0090  0.2167
   41BDD     C126926   6.894   2.425  -0.817 -0.1086  0.0382 -0.1060
   41BDD     C226927   6.905   2.543  -0.885 -0.0086  0.0179 -0.1261
   41BDD     C326928   6.885   2.660  -0.801  0.0410  0.0482 -0.1559
   41BDD     C426929   6.859   2.629  -0.670 -0.0220  0.0910 -0.1580
   41BDD     S126930   6.858   2.451  -0.644 -0.1478  0.0964 -0.1230
   41BDD     C526931   6.934   2.554  -1.030  0.0451 -0.0299 -0.1185
   41BDD     C626932   6.892   2.798  -0.853  0.1491  0.0334 -0.1810
   41BDD     O126933   6.874   2.898  -0.780  0.1919  0.0595 -0.2067
   41BDD     O226934   6.952   2.453  -1.102  0.0023 -0.0560 -0.0930
   41BDD     C726935   6.921   2.808  -0.997  0.2029 -0.0144 -0.1736
   41BDD     C826936   6.941   2.692  -1.082  0.1532 -0.0447 -0.1438
   41BDD     C926937   6.967   2.723  -1.212  0.2161 -0.0876 -0.1416
   41BDD     S226938   6.968   2.900  -1.239  0.3419 -0.0930 -0.1767
   41BDD    C1026939   6.932   2.927  -1.065  0.3029 -0.0348 -0.1936
   41BDD    C1126940   6.922   3.072  -1.017 -0.3804  0.3414  0.7257
   41BDD    C1226941   7.012   3.182  -1.077 -0.7295 -0.3060  0.1405
   41BDD    C1326942   7.160   3.139  -1.094 -1.0361  0.5069 -0.6144
   41BDD    C1426943   7.235   3.099  -0.969  0.1002  0.5769 -0.1682
   41BDD    C1526944   7.382   3.070  -0.997  0.0244 -0.0161 -0.0567
   41BDD    C1626945   7.427   2.946  -0.903  0.3095 -0.2769 -0.3459
   41BDD    C1726946   6.992   3.312  -1.004  0.4244 -0.1646  0.4639
   41BDD    C1826947   7.052   3.442  -1.055 -0.0951 -0.0713 -0.0552
   41BDD    C1926948   7.003   2.648  -1.336 -0.0689 -0.3790 -0.0233
   41BDD    C2026949   7.151   2.597  -1.351  0.9794 -0.1719 -0.4515
   41BDD    C2126950   7.173   2.498  -1.468 -0.1289  0.4202 -0.4252
   41BDD    C2226951   7.097   2.366  -1.470  0.0817  0.1463 -0.7534
   41BDD    C2326952   7.102   2.288  -1.340  0.4511 -0.4624 -0.1220
   41BDD    C2426953   7.034   2.157  -1.372 -0.4905 -0.5343 -0.2242
   41BDD    C2526954   7.257   2.698  -1.313  0.1524  0.1182 -0.1146
   41BDD    C2626955   7.404   2.663  -1.308  0.1747  0.2496 -0.0506
   42TPM     C126956   6.911   2.287  -0.859  0.1872 -0.0400  0.0598
   42TPM     C226957   7.003   2.205  -0.801  0.3374  0.0186 -0.0932
   42TPM     C326958   7.000   2.070  -0.851  0.6543  0.1294 -0.4199
   42TPM     C426959   6.906   2.049  -0.947  0.7458  0.1551 -0.5157
   42TPM     S126960   6.812   2.199  -0.982  0.4365  0.0406 -0.1985
   43BDTP    C126961   6.725   1.537  -1.266  0.1867 -0.1159 -0.0873
   43BDTP    C226962   6.712   1.642  -1.362  0.1695 -0.1133 -0.0820
   43BDTP    C326963   6.742   1.774  -1.332  0.1234 -0.1060 -0.0675
   43BDTP    C426964   6.788   1.804  -1.203  0.0929 -0.1009 -0.0579
   43BDTP    C526965   6.801   1.699  -1.107  0.1103 -0.1035 -0.0634
   43BDTP    C626966   6.771   1.567  -1.137  0.1565 -0.1108 -0.0777
   43BDTP    C726967   6.825   1.934  -1.149  0.0437 -0.0931 -0.0427
   43BDTP    C826968   6.865   1.931  -1.020  0.0237 -0.0896 -0.0365
   43BDTP    S126969   6.862   1.764  -0.948  0.0644 -0.0959 -0.0489
   43BDTP    C926970   6.688   1.407  -1.320  0.2360 -0.1238 -0.1025
   43BDTP   C1026971   6.648   1.410  -1.449  0.2558 -0.1272 -0.1087
   43BDTP    S226972   6.651   1.577  -1.521  0.2154 -0.1209 -0.0964
   44FTM     S126973   6.620   2.027  -1.394  0.1655  0.0641 -0.0480
   44FTM     C126974   6.649   2.089  -1.561  0.0817  0.3185  0.0309
   44FTM     C226975   6.728   2.002  -1.630  0.0017  0.3956 -0.1602
   44FTM     C326976   6.769   1.884  -1.559  0.0005  0.2647 -0.3748
   44FTM     C426977   6.720   1.881  -1.431  0.0826  0.0813 -0.3470
   44FTM     F126978   6.768   2.024  -1.761 -0.0757  0.5893 -0.1523
   44FTM     C526979   6.585   2.220  -1.603 -0.4100 -0.3793  0.1853
   44FTM     C626980   6.550   2.333  -1.505 -0.6482  1.1290 -0.3189
   44FTM     C726981   6.447   2.434  -1.561  0.3027 -0.3660  0.0613
   44FTM     C826982   6.309   2.394  -1.603 -0.4193 -0.3042 -0.1685
   44FTM     C926983   6.233   2.315  -1.501  0.8369 -0.4674 -0.7196
   44FTM    C1026984   6.094   2.273  -1.533  0.2966  0.1612 -0.0365
   44FTM    C1126985   6.676   2.386  -1.439 -0.3471 -0.6598  0.6345
   44FTM    C1226986   6.637   2.476  -1.314 -0.4635 -0.2558  0.5843
   45FTM     S126987   6.874   1.312  -1.037  0.1927 -0.0351 -0.0468
   45FTM     C126988   6.834   1.277  -0.865  0.0505 -0.2495 -0.1232
   45FTM     C226989   6.757   1.376  -0.814 -0.2042 -0.4383 -0.1366
   45FTM     C326990   6.725   1.484  -0.904 -0.3020 -0.4280 -0.0896
   45FTM     C426991   6.779   1.466  -1.027 -0.1157 -0.2247 -0.0384
   45FTM     F126992   6.711   1.376  -0.684 -0.3641 -0.6316 -0.1922
   45FTM     C526993   6.896   1.164  -0.787 -0.0086 -0.3655  0.0328
   45FTM     C626994   6.807   1.045  -0.749  1.1416 -0.5266 -0.5392
   45FTM     C726995   6.865   0.955  -0.631  0.3235  0.2737  0.5625
   45FTM     C826996   6.914   1.016  -0.505  0.1039 -0.4179  0.0716
   45FTM     C926997   6.961   0.941  -0.383 -0.3339  0.8952 -0.1978
   45FTM    C1026998   6.883   0.815  -0.344  0.2215  0.5026 -0.0277
   45FTM    C1126999   6.741   0.966  -0.859  0.3522 -0.4391 -0.1958
   45FTM    C1227000   6.832   0.883  -0.954  0.4945 -0.1679 -0.4021
   46TPM     C127001   6.613   1.301  -1.539 -0.1010 -0.1913  0.4774
   46TPM     C227002   6.621   1.166  -1.523  0.1105 -0.1959  0.3355
   46TPM     C327003   6.589   1.092  -1.643  0.1777 -0.1217  0.2714
   46TPM     C427004   6.556   1.171  -1.749  0.0176 -0.0606  0.3647
   46TPM     S127005   6.564   1.346  -1.706 -0.2326 -0.0923  0.5421
   47BDD     C127006   6.481   0.930  -2.050 -0.0830  0.1931  0.0629
   47BDD     C227007   6.472   1.055  -2.105 -0.0242  0.1575 -0.0277
   47BDD     C327008   6.495   1.162  -2.009  0.0887  0.2151 -0.1179
   47BDD     C427009   6.520   1.117  -1.882  0.1143  0.2937 -0.0948
   47BDD     S127010   6.517   0.938  -1.874 -0.0012  0.3011  0.0414
   47BDD     C527011   6.443   1.081  -2.247 -0.0695  0.0692 -0.0345
   47BDD     C627012   6.490   1.305  -2.047  0.1673  0.1900 -0.2235
   47BDD     O127013   6.510   1.397  -1.964  0.2645  0.2396 -0.3012
   47BDD     O227014   6.424   0.989  -2.330 -0.1670  0.0196  0.0435
   47BDD     C727015   6.461   1.331  -2.189  0.1220  0.1017 -0.2304
   47BDD     C827016   6.439   1.224  -2.285  0.0089  0.0441 -0.1402
   47BDD     C927017   6.413   1.269  -2.412 -0.0166 -0.0346 -0.1633
   47BDD     S227018   6.416   1.448  -2.420  0.0990 -0.0420 -0.2994
   47BDD    C1027019   6.453   1.456  -2.244  0.1808  0.0661 -0.3210
   47BDD    C1127020   6.476   1.597  -2.186  0.0738  0.0459  0.0390
   47BDD    C1227021   6.363   1.702  -2.180  0.1066 -0.3071  0.4298
   47BDD    C1327022   6.401   1.840  -2.120  0.0247 -0.0173  0.0961
   47BDD    C1427023   6.474   1.838  -1.984  0.1298 -0.4348  0.3131
   47BDD    C1527024   6.424   1.745  -1.869 -0.0427 -0.0742 -0.1407
   47BDD    C1627025   6.442   1.810  -1.728 -0.1216  0.2901  0.6235
   47BDD    C1727026   6.262   1.707  -2.297 -0.1515 -0.1070 -0.4494
   47BDD    C1827027   6.297   1.778  -2.427  0.1842  0.4304  0.4580
   47BDD    C1927028   6.388   1.201  -2.537 -0.3795 -0.1243  0.1346
   47BDD    C2027029   6.247   1.147  -2.569  0.2969  0.0339  0.1641
   47BDD    C2127030   6.243   1.062  -2.692 -0.4387  0.6498 -0.3041
   47BDD    C2227031   6.319   0.922  -2.698  0.5907  0.2729 -0.1248
   47BDD    C2327032   6.271   0.824  -2.585 -0.0204  0.7132 -0.0804
   47BDD    C2427033   6.335   0.687  -2.569 -0.1608 -0.2586  0.4431
   47BDD    C2527034   6.130   1.248  -2.570 -0.1249 -0.4696  1.0234
   47BDD    C2627035   6.133   1.352  -2.687 -0.2224 -0.1506  0.1335
   48TPM     C127036   6.484   0.791  -2.099 -0.3472  0.1999  0.0274
   48TPM     C227037   6.550   0.767  -2.215 -0.6670  0.3666 -0.1925
   48TPM     C327038   6.589   0.629  -2.233 -0.4014  0.4574 -0.3293
   48TPM     C427039   6.553   0.548  -2.129  0.1209  0.3601 -0.2136
   48TPM     S127040   6.465   0.640  -2.001  0.3195  0.1444  0.0793
   49BDTP    C127041   6.631  -0.077  -2.117 -0.0124 -0.0954 -0.1200
   49BDTP    C227042   6.657  -0.040  -1.982  0.0172 -0.0877 -0.1277
   49BDTP    C327043   6.649   0.091  -1.937  0.0150 -0.0868 -0.1307
   49BDTP    C427044   6.614   0.191  -2.029 -0.0175 -0.0938 -0.1260
   49BDTP    C527045   6.588   0.154  -2.165 -0.0471 -0.1014 -0.1183
   49BDTP    C627046   6.596   0.023  -2.210 -0.0450 -0.1024 -0.1152
   49BDTP    C727047   6.600   0.333  -2.006 -0.0261 -0.0943 -0.1278
   49BDTP    C827048   6.565   0.404  -2.115 -0.0600 -0.1019 -0.1220
   49BDTP    S127049   6.545   0.301  -2.264 -0.0862 -0.1095 -0.1132
   49BDTP    C927050   6.645  -0.219  -2.141 -0.0041 -0.0949 -0.1181
   49BDTP   C1027051   6.680  -0.290  -2.031  0.0300 -0.0873 -0.1240
   49BDTP    S227052   6.700  -0.187  -1.883  0.0560 -0.0798 -0.1327
   50FTM     S127053   6.846   0.077  -1.731 -0.2468  0.0378  0.0385
   50FTM     C127054   6.795   0.131  -1.567  0.1131  0.5426 -0.0099
   50FTM     C227055   6.669   0.183  -1.572  0.0285  0.3564  0.1333
   50FTM     C327056   6.607   0.185  -1.701 -0.3130 -0.1772  0.2857
   50FTM     C427057   6.687   0.132  -1.797 -0.4959 -0.4071  0.2584
   50FTM     F127058   6.604   0.233  -1.460  0.2552  0.6582  0.1349
   50FTM     C527059   6.884   0.118  -1.441 -0.1003  0.0063  0.1389
   50FTM     C627060   7.021   0.183  -1.455 -0.2388 -0.2367 -0.5905
   50FTM     C727061   7.123   0.162  -1.344  0.1740 -0.0179 -0.3299
   50FTM     C827062   7.165   0.016  -1.338 -0.2911  0.1312  0.4513
   50FTM     C927063   7.289  -0.010  -1.249 -0.6228 -0.7345  0.0029
   50FTM    C1027064   7.375  -0.135  -1.269 -0.3293  0.2281 -0.6009
   50FTM    C1127065   7.021   0.336  -1.491 -0.6525  0.6144  0.2414
   50FTM    C1227066   6.943   0.431  -1.399 -0.5508  0.0489 -0.0319
   51FTM     S127067   6.471   0.067  -2.468  0.3100  0.4932 -0.1470
   51FTM     C127068   6.546  -0.021  -2.606 -0.0456  0.1177 -0.1012
   51FTM     C227069   6.648  -0.099  -2.562 -0.5865 -0.5627 -0.0066
   51FTM     C327070   6.674  -0.094  -2.421 -0.7532 -0.8278  0.0349
   51FTM     C427071   6.589  -0.010  -2.356 -0.3263 -0.3337 -0.0299
   51FTM     F127072   6.724  -0.179  -2.646 -0.9627 -0.9866  0.0480
   51FTM     C527073   6.466  -0.003  -2.732 -0.3980 -0.3273  0.2837
   51FTM     C627074   6.406  -0.115  -2.821  0.6758 -0.2899 -0.3756
   51FTM     C727075   6.510  -0.229  -2.876  0.2542 -0.4444  0.3163
   51FTM     C827076   6.633  -0.175  -2.945 -0.2925 -0.2536 -0.3131
   51FTM     C927077   6.724  -0.276  -3.010  0.5083  0.9243  0.8211
   51FTM    C1027078   6.842  -0.218  -3.087  0.3173 -0.4108  0.2384
   51FTM    C1127079   6.272  -0.164  -2.754  0.8249 -0.5934  0.0533
   51FTM    C1227080   6.184  -0.254  -2.839 -0.0192 -0.2360 -0.2603
   52TPM     C127081   6.692  -0.428  -2.028 -0.2774  0.5491  0.3540
   52TPM     C227082   6.628  -0.522  -2.104 -0.3737  0.6466  0.3123
   52TPM     C327083   6.669  -0.657  -2.074 -0.2441  0.6158 -0.0025
   52TPM     C427084   6.764  -0.666  -1.977 -0.0487  0.4944 -0.2007
   52TPM     S127085   6.809  -0.503  -1.914 -0.0133  0.4095 -0.0039
   53BDD     C127086   6.878  -0.913  -1.705 -0.0231  0.1426  0.0642
   53BDD     C227087   6.847  -0.992  -1.812 -0.0006  0.1321  0.0653
   53BDD     C327088   6.800  -0.917  -1.927 -0.0901  0.1121  0.0883
   53BDD     C427089   6.797  -0.782  -1.907 -0.1797  0.1072  0.1045
   53BDD     S127090   6.852  -0.739  -1.742 -0.1578  0.1280  0.0918
   53BDD     C527091   6.859  -1.139  -1.812  0.1042  0.1404  0.0454
   53BDD     C627092   6.761  -0.983  -2.054 -0.0836  0.0980  0.0938
   53BDD     O127093   6.720  -0.919  -2.153 -0.1609  0.0803  0.1137
   53BDD     O227094   6.899  -1.204  -1.712  0.1814  0.1576  0.0253
   53BDD     C727095   6.772  -1.130  -2.054  0.0209  0.1059  0.0737
   53BDD     C827096   6.819  -1.205  -1.938  0.1105  0.1261  0.0505
   53BDD     C927097   6.823  -1.340  -1.959  0.2003  0.1307  0.0345
   53BDD     S227098   6.768  -1.383  -2.124  0.1785  0.1097  0.0471
   53BDD    C1027099   6.741  -1.210  -2.160  0.0436  0.0954  0.0749
   53BDD    C1127100   6.695  -1.180  -2.302  0.0664 -0.0034 -0.3330
   53BDD    C1227101   6.806  -1.197  -2.407  0.2175  0.0167 -0.3031
   53BDD    C1327102   6.925  -1.104  -2.362  0.3506  0.3168  0.6641
   53BDD    C1427103   7.053  -1.131  -2.443  0.6709  0.5899 -0.9547
   53BDD    C1527104   7.169  -1.044  -2.402  0.2134 -0.6212  0.3890
   53BDD    C1627105   7.308  -1.076  -2.465 -0.0233 -1.1092  0.5933
   53BDD    C1727106   6.759  -1.183  -2.545  0.1803 -0.0266  0.3900
   53BDD    C1827107   6.667  -1.298  -2.597  0.1290 -0.0348  0.5338
   53BDD    C1927108   6.834  -1.461  -1.872 -0.3284  0.0303 -0.6515
   53BDD    C2027109   6.695  -1.532  -1.851  0.3938  0.3654  0.4572
   53BDD    C2127110   6.724  -1.676  -1.804 -0.4006 -0.0861 -1.0310
   53BDD    C2227111   6.627  -1.789  -1.825  0.3752 -0.2519  0.2758
   53BDD    C2327112   6.554  -1.797  -1.959  0.3205 -0.0629 -0.1773
   53BDD    C2427113   6.452  -1.910  -1.957  0.2512  0.3100  0.1931
   53BDD    C2527114   6.588  -1.442  -1.775 -0.0110  0.0172  0.2325
   53BDD    C2627115   6.623  -1.382  -1.639 -0.6585 -0.2129 -0.2710
   54TPM     C127116   6.917  -0.926  -1.567 -0.3889 -0.3931  0.1964
   54TPM     C227117   7.012  -1.016  -1.530 -0.4932 -0.5014  0.2003
   54TPM     C327118   7.060  -0.998  -1.395 -0.3344 -0.4303  0.1347
   54TPM     C427119   7.001  -0.894  -1.329 -0.1092 -0.2677  0.0807
   54TPM     S127120   6.880  -0.810  -1.433 -0.0800 -0.1912  0.1087
   55BDTP    C127121   7.178  -0.699  -0.758  0.2133  0.2761  0.0455
   55BDTP    C227122   7.112  -0.584  -0.811  0.0502  0.1762  0.0281
   55BDTP    C327123   7.054  -0.581  -0.937  0.0135  0.0632  0.0424
   55BDTP    C427124   7.061  -0.698  -1.015  0.1435  0.0482  0.0761
   55BDTP    C527125   7.126  -0.813  -0.963  0.3066  0.1478  0.0937
   55BDTP    C627126   7.184  -0.816  -0.837  0.3431  0.2611  0.0791
   55BDTP    C727127   7.008  -0.719  -1.148  0.1355 -0.0607  0.0962
   55BDTP    C827128   7.031  -0.843  -1.198  0.2829 -0.0467  0.1278
   55BDTP    S127129   7.122  -0.951  -1.083  0.4523  0.1049  0.1366
   55BDTP    C927130   7.230  -0.678  -0.625  0.2211  0.3843  0.0253
   55BDTP   C1027131   7.208  -0.554  -0.575  0.0738  0.3710 -0.0064
   55BDTP    S227132   7.117  -0.446  -0.691 -0.0956  0.2194 -0.0151
   56FTM     S127133   6.853  -0.379  -0.887  0.2715 -0.0743  0.0878
   56FTM     C127134   6.871  -0.232  -0.990  0.2382 -0.2853 -0.2196
   56FTM     C227135   6.968  -0.254  -1.084  0.3031 -0.4287 -0.1202
   56FTM     C327136   7.031  -0.382  -1.081  0.3811 -0.3843  0.1936
   56FTM     C427137   6.982  -0.462  -0.982  0.3754 -0.2010  0.3391
   56FTM     F127138   7.004  -0.158  -1.177  0.2962 -0.6087 -0.3071
   56FTM     C527139   6.780  -0.109  -0.972  0.0348  0.5588 -0.3228
   56FTM     C627140   6.795  -0.016  -0.846  0.6759 -0.3610  0.2687
   56FTM     C727141   6.669   0.056  -0.779 -0.2070 -0.1735 -0.1289
   56FTM     C827142   6.543  -0.026  -0.764  0.2681  0.4291 -1.1313
   56FTM     C927143   6.441   0.073  -0.698  0.2036  0.2101 -0.2526
   56FTM    C1027144   6.319  -0.007  -0.651  0.5685 -0.1442 -0.2109
   56FTM    C1127145   6.920   0.059  -0.822 -0.5901  0.2780  0.3991
   56FTM    C1227146   6.962   0.158  -0.928 -0.4755 -0.4947 -0.0879
   57FTM     S127147   7.201  -0.996  -0.607  0.0494  0.0047 -0.2261
   57FTM     C127148   7.296  -1.147  -0.631  0.2348  0.0895 -0.0362
   57FTM     C227149   7.345  -1.151  -0.758  0.4231  0.0925  0.0355
   57FTM     C327150   7.312  -1.040  -0.842  0.4340  0.0310 -0.0508
   57FTM     C427151   7.236  -0.947  -0.777  0.2483 -0.0214 -0.1934
   57FTM     F127152   7.422  -1.256  -0.806  0.5964  0.1516  0.1833
   57FTM     C527153   7.305  -1.246  -0.519  0.4174 -0.3572  0.3443
   57FTM     C627154   7.388  -1.208  -0.397  0.7125  0.5123 -0.7437
   57FTM     C727155   7.535  -1.204  -0.407 -0.0344  0.3774  0.4793
   57FTM     C827156   7.594  -1.344  -0.445  0.4118 -0.0445 -1.2366
   57FTM     C927157   7.737  -1.348  -0.411  0.1581 -0.2655 -0.5427
   57FTM    C1027158   7.809  -1.476  -0.442 -0.7287  0.7349 -0.1838
   57FTM    C1127159   7.335  -1.107  -0.297 -0.4202 -0.3219 -0.8966
   57FTM    C1227160   7.190  -1.115  -0.242 -0.0323 -0.4328 -0.5868
   58TPM     C127161   7.253  -0.493  -0.451 -0.5081  0.3596  0.2504
   58TPM     C227162   7.256  -0.363  -0.411 -1.0095  0.2840  0.5538
   58TPM     C327163   7.307  -0.344  -0.278 -0.7867  0.1953  0.4818
   58TPM     C427164   7.343  -0.460  -0.216 -0.1153  0.2027  0.1236
   58TPM     S127165   7.315  -0.603  -0.322  0.2905  0.3234 -0.1527
   59BDD     C127166   7.480  -0.346   0.142  0.0981  0.0297 -0.2645
   59BDD     C227167   7.542  -0.466   0.119  0.0695  0.0026 -0.2004
   59BDD     C327168   7.502  -0.526  -0.007 -0.0110 -0.0973 -0.1276
   59BDD     C427169   7.412  -0.452  -0.078 -0.0425 -0.1446 -0.1371
   59BDD     S127170   7.370  -0.301   0.009  0.0266 -0.0675 -0.2379
   59BDD     C527171   7.638  -0.529   0.211  0.1149  0.0670 -0.2038
   59BDD     C627172   7.556  -0.656  -0.053 -0.0538 -0.1423 -0.0510
   59BDD     O127173   7.523  -0.709  -0.161 -0.1231 -0.2284  0.0117
   59BDD     O227174   7.672  -0.476   0.320  0.1843  0.1531 -0.2666
   59BDD     C727175   7.653  -0.719   0.040 -0.0083 -0.0780 -0.0545
   59BDD     C827176   7.692  -0.658   0.165  0.0721  0.0222 -0.1274
   59BDD     C927177   7.783  -0.733   0.236  0.1036  0.0694 -0.1178
   59BDD     S227178   7.825  -0.884   0.150  0.0346 -0.0079 -0.0169
   59BDD    C1027179   7.714  -0.839   0.016 -0.0371 -0.1051  0.0095
   59BDD    C1127180   7.710  -0.934  -0.101  0.3322  0.3706  0.6745
   59BDD    C1227181   7.822  -0.980  -0.197 -0.3477 -0.3094 -0.1189
   59BDD    C1327182   7.876  -0.863  -0.290  0.4423  0.5083 -0.0916
   59BDD    C1427183   7.783  -0.788  -0.385 -0.8634 -0.0538 -0.6114
   59BDD    C1527184   7.695  -0.875  -0.470  0.4667  0.6297  0.2370
   59BDD    C1627185   7.570  -0.799  -0.520  0.3697  0.2341  0.1462
   59BDD    C1727186   7.938  -1.060  -0.137  0.5728  0.0515  0.6658
   59BDD    C1827187   7.905  -1.186  -0.064 -0.1659  0.1939  0.4936
   59BDD    C1927188   7.836  -0.716   0.374 -0.7636  0.3792 -0.3654
   59BDD    C2027189   7.983  -0.702   0.375 -0.8296  0.0161  0.3344
   59BDD    C2127190   8.035  -0.570   0.310 -0.3350  0.0507  0.1534
   59BDD    C2227191   8.016  -0.438   0.384 -0.6232  0.3531  0.1564
   59BDD    C2327192   7.997  -0.320   0.282  0.1983  0.0195 -0.0478
   59BDD    C2427193   7.945  -0.189   0.344  0.7612 -0.1945 -0.5262
   59BDD    C2527194   8.047  -0.738   0.508  0.6193 -0.1663 -0.0645
   59BDD    C2627195   8.196  -0.743   0.530  0.7461 -0.1947  0.7167
   60TPM     C127196   7.485  -0.248   0.255  0.2944 -0.1493  0.1100
   60TPM     C227197   7.492  -0.289   0.385  1.2922 -0.1845  0.0548
   60TPM     C327198   7.467  -0.185   0.481  1.5912 -0.3071  0.2705
   60TPM     C427199   7.440  -0.064   0.424  0.8212 -0.3650  0.4901
   60TPM     S127200   7.445  -0.072   0.244 -0.3503 -0.2682  0.4411
    1BDTP    C127201   2.908   1.613   8.493 -0.1253 -0.0595 -0.0856
    1BDTP    C227202   2.845   1.596   8.619 -0.0978  0.0826 -0.0527
    1BDTP    C327203   2.917   1.570   8.736 -0.0793  0.1353 -0.0517
    1BDTP    C427204   3.057   1.559   8.726 -0.0883  0.0436 -0.0846
    1BDTP    C527205   3.120   1.576   8.600 -0.1159 -0.0985 -0.1178
    1BDTP    C627206   3.048   1.603   8.484 -0.1343 -0.1512 -0.1186
    1BDTP    C727207   3.151   1.532   8.833 -0.0729  0.0742 -0.0904
    1BDTP    C827208   3.281   1.528   8.792 -0.0874 -0.0367 -0.1256
    1BDTP    S127209   3.301   1.557   8.614 -0.1224 -0.1954 -0.1569
    1BDTP    C927210   2.814   1.640   8.386 -0.1407 -0.0901 -0.0801
    1BDTP   C1027211   2.684   1.645   8.427 -0.1263  0.0208 -0.0448
    1BDTP    S227212   2.664   1.615   8.605 -0.0912  0.1795 -0.0137
    2FTM     S127213   2.887   1.615   9.020  0.0814 -0.2369 -0.0004
    2FTM     C127214   2.747   1.535   9.100  0.2863 -0.3179  0.2820
    2FTM     C227215   2.681   1.457   9.010  0.0275 -0.1897  0.3591
    2FTM     C327216   2.734   1.454   8.877 -0.3371 -0.0246  0.2067
    2FTM     C427217   2.844   1.533   8.864 -0.3581 -0.0265  0.0071
    2FTM     F127218   2.568   1.383   9.043  0.1053 -0.2142  0.5713
    2FTM     C527219   2.729   1.543   9.243  0.4885  0.2628 -0.7627
    2FTM     C627220   2.665   1.669   9.306 -1.2295 -0.1368  0.1693
    2FTM     C727221   2.617   1.661   9.450  0.3306  0.2533  0.1258
    2FTM     C827222   2.529   1.545   9.491  1.0077  0.4010 -0.0864
    2FTM     C927223   2.499   1.542   9.646 -0.0483  0.8592  0.1627
    2FTM    C1027224   2.413   1.422   9.681 -0.2627  0.2950 -0.2058
    2FTM    C1127225   2.750   1.794   9.278  0.1040 -0.1294 -0.3888
    2FTM    C1227226   2.696   1.936   9.324 -0.2189  0.4012 -0.0370
    3FTM     S127227   3.061   1.712   8.216 -0.1866  0.0490  0.1122
    3FTM     C127228   3.166   1.625   8.098 -0.5277 -0.4135  0.1448
    3FTM     C227229   3.228   1.520   8.160 -0.7963 -0.5234  0.2310
    3FTM     C327230   3.198   1.502   8.299 -0.7541 -0.2610  0.2759
    3FTM     C427231   3.111   1.595   8.345 -0.4431  0.0603  0.2220
    3FTM     F127232   3.315   1.435   8.093 -1.0962 -0.8682  0.2744
    3FTM     C527233   3.162   1.657   7.958 -0.0325 -0.1002  0.1311
    3FTM     C627234   3.207   1.797   7.907  0.4814  0.2708  0.6335
    3FTM     C727235   3.118   1.913   7.953  0.5261 -0.0213  0.3894
    3FTM     C827236   2.968   1.936   7.909 -0.4115  0.2352  0.3213
    3FTM     C927237   2.861   1.852   7.972 -0.4670 -0.1946 -0.1046
    3FTM    C1027238   2.726   1.899   7.930 -0.4589  0.1898 -0.4187
    3FTM    C1127239   3.357   1.815   7.904 -0.8465  0.2220 -0.5956
    3FTM    C1227240   3.410   1.951   7.851 -0.5663  0.3277 -0.1867
    4TPM     C127241   2.565   1.657   8.348 -0.0840  0.5259  0.8546
    4TPM     C227242   2.544   1.742   8.244 -0.0078  0.7917  1.0543
    4TPM     C327243   2.416   1.725   8.180  0.2747  0.5453  0.5395
    4TPM     C427244   2.340   1.626   8.236  0.4139  0.0916 -0.0528
    4TPM     S127245   2.425   1.547   8.374  0.1973 -0.0608 -0.0060
    5BDD     C127246   2.000   1.596   8.043 -0.1402 -0.1100  0.0796
    5BDD     C227247   2.046   1.468   8.059 -0.0160 -0.0719  0.0298
    5BDD     C327248   2.171   1.461   8.132  0.1014  0.0364 -0.1576
    5BDD     C427249   2.218   1.583   8.171  0.0651  0.0792 -0.2478
    5BDD     S127250   2.110   1.716   8.118 -0.1186 -0.0130 -0.1042
    5BDD     C527251   1.977   1.348   8.007 -0.0009 -0.1336  0.1521
    5BDD     C627252   2.239   1.333   8.162  0.2453  0.0933 -0.2403
    5BDD     O127253   2.347   1.327   8.225  0.3466  0.1867 -0.4017
    5BDD     O227254   1.869   1.355   7.944 -0.1022 -0.2270  0.3138
    5BDD     C727255   2.170   1.213   8.110  0.2605  0.0317 -0.1178
    5BDD     C827256   2.045   1.220   8.036  0.1431 -0.0766  0.0696
    5BDD     C927257   1.997   1.098   7.998  0.1794 -0.1194  0.1595
    5BDD     S227258   2.106   0.966   8.051  0.3631 -0.0272  0.0162
    5BDD    C1027259   2.216   1.085   8.126  0.3847  0.0698 -0.1676
    5BDD    C1127260   2.337   1.023   8.194  0.1940 -0.1354  0.1294
    5BDD    C1227261   2.310   0.893   8.278 -0.5026  0.0907  0.4762
    5BDD    C1327262   2.209   0.906   8.394  0.0663 -0.0758 -0.5646
    5BDD    C1427263   2.146   0.772   8.446 -0.2071  0.3934 -0.5270
    5BDD    C1527264   2.071   0.693   8.342 -0.1796  0.2486 -0.5758
    5BDD    C1627265   2.004   0.563   8.388 -0.4714  0.6102 -0.3223
    5BDD    C1727266   2.437   0.810   8.315  0.2032  0.4747 -0.0009
    5BDD    C1827267   2.539   0.888   8.394 -0.1636 -0.2552 -0.1310
    5BDD    C1927268   1.882   1.056   7.906 -0.2077 -0.4301 -0.3325
    5BDD    C2027269   1.749   1.011   7.979 -0.2342  0.0249 -0.5216
    5BDD    C2127270   1.762   0.916   8.105 -0.3958 -0.1960  0.4971
    5BDD    C2227271   1.654   0.897   8.209  0.2969  0.2993 -0.8569
    5BDD    C2327272   1.593   1.019   8.273 -0.6848 -0.1431  0.0641
    5BDD    C2427273   1.469   0.994   8.365 -0.6110 -0.1154  0.7355
    5BDD    C2527274   1.634   0.973   7.884  0.3459  0.1473 -0.1539
    5BDD    C2627275   1.593   1.069   7.774  1.0250 -0.1018 -0.0242
    6TPM     C127276   1.894   1.661   7.969  0.1166 -0.2619 -0.0841
    6TPM     C227277   1.904   1.795   7.947  0.4024 -0.2797 -0.0693
    6TPM     C327278   1.802   1.847   7.859  0.4368 -0.0306  0.0384
    6TPM     C427279   1.714   1.753   7.815  0.1771  0.1771  0.1055
    6TPM     S127280   1.754   1.590   7.880 -0.1333  0.0735  0.0376
    7BDTP    C127281   1.195   1.859   7.469 -0.1260 -0.0672  0.1081
    7BDTP    C227282   1.173   1.727   7.518 -0.1148 -0.0971  0.0329
    7BDTP    C327283   1.265   1.661   7.599 -0.1241 -0.1234  0.0222
    7BDTP    C427284   1.383   1.729   7.634 -0.1454 -0.1203  0.0886
    7BDTP    C527285   1.404   1.862   7.585 -0.1566 -0.0905  0.1639
    7BDTP    C627286   1.313   1.927   7.504 -0.1474 -0.0641  0.1746
    7BDTP    C727287   1.492   1.682   7.717 -0.1583 -0.1442  0.0921
    7BDTP    C827288   1.593   1.771   7.732 -0.1785 -0.1339  0.1652
    7BDTP    S127289   1.564   1.928   7.644 -0.1839 -0.0925  0.2403
    7BDTP    C927290   1.086   1.906   7.386 -0.1131 -0.0433  0.1048
    7BDTP   C1027291   0.985   1.817   7.371 -0.0930 -0.0536  0.0314
    7BDTP    S227292   1.014   1.661   7.459 -0.0876 -0.0951 -0.0435
    8FTM     S127293   1.256   1.450   7.807  0.2239 -0.0113  0.1636
    8FTM     C127294   1.228   1.283   7.745  0.2991  0.0149  0.0590
    8FTM     C227295   1.214   1.286   7.610  0.4833  0.0690  0.0411
    8FTM     C327296   1.225   1.415   7.548  0.5748  0.0929  0.1063
    8FTM     C427297   1.247   1.514   7.639  0.4570  0.0558  0.1760
    8FTM     F127298   1.191   1.172   7.534  0.5798  0.1001 -0.0350
    8FTM     C527299   1.224   1.152   7.820  0.3494  0.4704 -0.1659
    8FTM     C627300   1.165   1.141   7.964 -0.7141 -0.2689 -0.0086
    8FTM     C727301   1.225   1.247   8.067 -0.6692  0.2788  0.1153
    8FTM     C827302   1.381   1.261   8.078  0.2628  0.3084 -0.4441
    8FTM     C927303   1.407   1.375   8.172 -0.6010  0.1175  0.0093
    8FTM    C1027304   1.560   1.380   8.158 -0.0828 -0.4214 -0.2680
    8FTM    C1127305   1.163   0.995   8.017 -0.3134  0.1065 -0.0194
    8FTM    C1227306   1.092   0.967   8.147 -0.1980  0.3358  0.3938
    9FTM     S127307   1.365   2.079   7.275  0.1735 -0.0525 -0.0642
    9FTM     C127308   1.396   2.255   7.294 -0.2563  0.0427 -0.2070
    9FTM     C227309   1.392   2.289   7.426 -0.3594  0.1433 -0.2360
    9FTM     C327310   1.364   2.183   7.518 -0.1164  0.1522 -0.1509
    9FTM     C427311   1.347   2.063   7.454  0.1826  0.0553 -0.0537
    9FTM     F127312   1.413   2.419   7.471 -0.6801  0.2332 -0.3414
    9FTM     C527313   1.408   2.334   7.171  0.4761 -0.0348  0.3000
    9FTM     C627314   1.534   2.357   7.081 -0.7125  0.1550 -0.3804
    9FTM     C727315   1.529   2.434   6.949  0.5835  0.1766  0.7687
    9FTM     C827316   1.447   2.563   6.942  0.6112 -0.3135 -0.7221
    9FTM     C927317   1.442   2.628   6.806  0.0845 -0.2465  0.0380
    9FTM    C1027318   1.345   2.745   6.808 -0.0411 -0.0335 -0.4647
    9FTM    C1127319   1.644   2.243   7.084  0.3863 -0.9423 -0.0816
    9FTM    C1227320   1.594   2.107   7.031 -0.4304 -0.0183 -0.1951
   10TPM     C127321   0.859   1.821   7.296  0.1883 -0.3163  0.1746
   10TPM     C227322   0.839   1.889   7.180  0.4542 -0.1707  0.2123
   10TPM     C327323   0.710   1.866   7.120  0.3943  0.2992  0.1523
   10TPM     C427324   0.631   1.781   7.192  0.0829  0.5119  0.0686
   10TPM     S127325   0.715   1.722   7.340 -0.1610  0.1322  0.0590
   11BDD     C127326   0.329   1.551   7.085 -0.2631  0.0811  0.2855
   11BDD     C227327   0.294   1.676   7.042 -0.1658  0.0686  0.1711
   11BDD     C327328   0.395   1.777   7.069 -0.0653  0.0061  0.0336
   11BDD     C427329   0.505   1.728   7.133 -0.0874 -0.0281  0.0453
   11BDD     S127330   0.490   1.551   7.163 -0.2356  0.0155  0.2290
   11BDD     C527331   0.167   1.708   6.973 -0.1617  0.1136  0.1839
   11BDD     C627332   0.379   1.919   7.031  0.0490 -0.0174 -0.1043
   11BDD     O127333   0.466   2.006   7.054  0.1356 -0.0713 -0.2229
   11BDD     O227334   0.080   1.621   6.949 -0.2484  0.1675  0.3026
   11BDD     C727335   0.252   1.950   6.962  0.0531  0.0276 -0.0914
   11BDD     C827336   0.151   1.849   6.935 -0.0474  0.0901  0.0461
   11BDD     C927337   0.041   1.899   6.871 -0.0253  0.1243  0.0345
   11BDD     S227338   0.056   2.075   6.840  0.1228  0.0807 -0.1493
   11BDD    C1027339   0.217   2.075   6.919  0.1504  0.0151 -0.2060
   11BDD    C1127340   0.292   2.208   6.909 -0.1140  0.0630 -0.4679
   11BDD    C1227341   0.343   2.256   6.773  0.3502 -0.2683 -0.1422
   11BDD    C1327342   0.365   2.406   6.767  0.7937  0.0453 -0.3352
   11BDD    C1427343   0.422   2.466   6.643 -0.8521 -0.4010 -0.4483
   11BDD    C1527344   0.420   2.614   6.648 -0.1104  0.2602  0.3111
   11BDD    C1627345   0.453   2.684   6.515 -0.5503  0.7187  0.3311
   11BDD    C1727346   0.425   2.154   6.686 -1.0659  0.3219 -0.3097
   11BDD    C1827347   0.571   2.121   6.728 -0.0536 -0.4944 -0.3454
   11BDD    C1927348  -0.085   1.843   6.802 -0.4470  0.0191 -0.2244
   11BDD    C2027349  -0.218   1.839   6.875  0.1531 -0.0363 -0.0891
   11BDD    C2127350  -0.232   1.727   6.981  0.5622 -0.2905  0.2869
   11BDD    C2227351  -0.210   1.586   6.927  0.8792 -0.5032  0.5570
   11BDD    C2327352  -0.249   1.456   7.002  0.5141  0.3264 -0.2123
   11BDD    C2427353  -0.204   1.452   7.149 -0.7958  0.3927 -0.0249
   11BDD    C2527354  -0.258   1.977   6.937  0.1662 -0.0270 -0.1117
   11BDD    C2627355  -0.408   1.985   6.967 -0.2701  0.0613  0.5064
   12TPM     C127356   0.273   1.419   7.084 -0.1010  0.0493 -0.2025
   12TPM     C227357   0.192   1.366   7.180  0.0816  0.0365 -0.0535
   12TPM     C327358   0.164   1.226   7.162  0.4990 -0.0944  0.2943
   12TPM     C427359   0.225   1.172   7.052  0.6345 -0.1815  0.4108
   12TPM     S127360   0.321   1.295   6.962  0.2425 -0.1043  0.0876
   13BDTP    C127361   0.075   0.583   6.883 -0.0715 -0.0708 -0.1699
   13BDTP    C227362   0.088   0.649   6.758 -0.1460 -0.0024 -0.1421
   13BDTP    C327363   0.124   0.783   6.747 -0.2749  0.0366 -0.0864
   13BDTP    C427364   0.147   0.855   6.865 -0.3333  0.0070 -0.0567
   13BDTP    C527365   0.134   0.789   6.991 -0.2588 -0.0613 -0.0845
   13BDTP    C627366   0.098   0.655   7.002 -0.1299 -0.1004 -0.1402
   13BDTP    C727367   0.185   0.994   6.879 -0.4651  0.0374  0.0011
   13BDTP    C827368   0.200   1.035   7.007 -0.4929 -0.0042  0.0180
   13BDTP    S127369   0.169   0.903   7.129 -0.3560 -0.0879 -0.0373
   13BDTP    C927370   0.037   0.444   6.869  0.0604 -0.1011 -0.2278
   13BDTP   C1027371   0.022   0.403   6.741  0.0881 -0.0595 -0.2445
   13BDTP    S227372   0.053   0.535   6.620 -0.0488  0.0241 -0.1893
   14FTM     S127373   0.020   0.800   6.476 -0.0021 -0.0873 -0.2307
   14FTM     C127374   0.077   0.940   6.378  0.1344 -0.1103 -0.1849
   14FTM     C227375   0.166   1.014   6.450 -0.0368 -0.0406 -0.0429
   14FTM     C327376   0.195   0.967   6.582 -0.2786  0.0331  0.0368
   14FTM     C427377   0.125   0.854   6.613 -0.2931  0.0195 -0.0468
   14FTM     F127378   0.226   1.128   6.400  0.0154 -0.0395  0.0232
   14FTM     C527379   0.050   0.960   6.232  0.6284  0.3143 -0.0135
   14FTM     C627380   0.034   0.839   6.138 -0.4387 -0.2612 -0.1188
   14FTM     C727381   0.164   0.747   6.117 -0.0183  0.1082 -0.4645
   14FTM     C827382   0.285   0.800   6.037  0.0109  0.7176  0.6007
   14FTM     C927383   0.351   0.930   6.082 -0.0943  0.1037 -0.3230
   14FTM    C1027384   0.472   0.978   6.000  0.4066 -0.8402 -0.3311
   14FTM    C1127385  -0.094   0.760   6.151  1.4376  0.3553  0.0211
   14FTM    C1227386  -0.217   0.854   6.135  0.7600 -0.3567  0.0416
   15FTM     S127387   0.175   0.645   7.283 -0.1989  0.2224 -0.2505
   15FTM     C127388   0.082   0.527   7.382 -0.2766  0.1699 -0.3846
   15FTM     C227389  -0.003   0.456   7.303  0.0593 -0.0553 -0.5451
   15FTM     C327390   0.000   0.488   7.163  0.3894 -0.1973 -0.5727
   15FTM     C427391   0.090   0.586   7.134  0.3036 -0.0770 -0.4289
   15FTM     F127392  -0.087   0.358   7.352  0.0875 -0.1462 -0.6764
   15FTM     C527393   0.110   0.517   7.533 -0.1085  0.3326  0.3212
   15FTM     C627394   0.028   0.599   7.634 -0.3358 -0.2959 -0.0808
   15FTM     C727395   0.054   0.560   7.789  0.2873 -0.0566  0.2280
   15FTM     C827396  -0.068   0.559   7.881 -0.6379  0.0338  0.7554
   15FTM     C927397  -0.182   0.465   7.849  0.6968  0.3573  0.0031
   15FTM    C1027398  -0.293   0.472   7.954 -0.3917  0.3625 -0.3440
   15FTM    C1127399   0.006   0.742   7.604  0.9447 -0.4560 -0.0275
   15FTM    C1227400   0.126   0.846   7.610  0.7790  0.3919  0.2106
   16TPM     C127401  -0.026   0.276   6.697 -0.0509 -0.0491 -0.4303
   16TPM     C227402  -0.042   0.238   6.567 -0.2482 -0.2021 -0.3636
   16TPM     C327403  -0.115   0.115   6.550 -0.0620 -0.3503 -0.0956
   16TPM     C427404  -0.155   0.059   6.668  0.2768 -0.3104  0.0421
   16TPM     S127405  -0.103   0.158   6.810  0.3877 -0.0806 -0.1576
   17BDD     C127406  -0.431  -0.212   6.606 -0.0942  0.1534  0.1270
   17BDD     C227407  -0.365  -0.253   6.719 -0.0772  0.1493  0.1156
   17BDD     C327408  -0.255  -0.166   6.756 -0.0200  0.1020  0.0560
   17BDD     C427409  -0.238  -0.060   6.671  0.0057  0.0709  0.0228
   17BDD     S127410  -0.359  -0.062   6.538 -0.0396  0.0987  0.0637
   17BDD     C527411  -0.402  -0.373   6.797 -0.1130  0.1886  0.1594
   17BDD     C627412  -0.171  -0.190   6.875  0.0067  0.0896  0.0345
   17BDD     O127413  -0.076  -0.116   6.907  0.0560  0.0491 -0.0170
   17BDD     O227414  -0.497  -0.448   6.765 -0.1624  0.2289  0.2108
   17BDD     C727415  -0.207  -0.311   6.953 -0.0293  0.1287  0.0780
   17BDD     C827416  -0.317  -0.398   6.915 -0.0865  0.1760  0.1376
   17BDD     C927417  -0.334  -0.503   7.001 -0.1125  0.2069  0.1708
   17BDD     S227418  -0.213  -0.501   7.133 -0.0672  0.1792  0.1299
   17BDD    C1027419  -0.142  -0.351   7.066 -0.0126  0.1247  0.0666
   17BDD    C1127420  -0.019  -0.301   7.138 -0.2275  0.6332  0.2321
   17BDD    C1227421  -0.033  -0.212   7.264 -0.4704  0.2474 -0.0756
   17BDD    C1327422  -0.088  -0.280   7.394 -0.1972  0.3082 -0.3056
   17BDD    C1427423  -0.055  -0.425   7.438  0.6502 -0.1277  0.6841
   17BDD    C1527424   0.094  -0.459   7.441 -0.0746 -0.1646 -0.4697
   17BDD    C1627425   0.122  -0.587   7.528  0.3305 -0.6359  0.1242
   17BDD    C1727426  -0.096  -0.070   7.245 -0.0005 -0.1774 -0.7083
   17BDD    C1827427  -0.029   0.033   7.154 -0.1220  0.2848  0.1088
   17BDD    C1927428  -0.437  -0.614   7.024 -0.1211  0.0258  0.2496
   17BDD    C2027429  -0.408  -0.747   6.957  0.5522 -0.3616 -0.1348
   17BDD    C2127430  -0.514  -0.853   6.997 -0.2615 -0.2300  0.5337
   17BDD    C2227431  -0.661  -0.827   6.945 -0.9193 -0.4225  0.1109
   17BDD    C2327432  -0.752  -0.945   6.977 -0.0508  0.0033 -0.7204
   17BDD    C2427433  -0.889  -0.942   6.920 -0.4575  0.0305 -0.0963
   17BDD    C2527434  -0.352  -0.752   6.808  1.0849 -0.5885  0.0251
   17BDD    C2627435  -0.290  -0.880   6.759  0.5540 -0.1683 -0.3362
   18TPM     C127436  -0.533  -0.261   6.518 -0.0358 -0.3497 -0.0655
   18TPM     C227437  -0.534  -0.391   6.477 -0.1805 -0.3405 -0.0937
   18TPM     C327438  -0.616  -0.415   6.361 -0.0567 -0.1879 -0.2147
   18TPM     C427439  -0.679  -0.304   6.314  0.1826 -0.0807 -0.2791
   18TPM     S127440  -0.638  -0.158   6.412  0.2705 -0.1651 -0.1906
   19BDTP    C127441  -1.041  -0.347   5.801 -0.0644 -0.2780 -0.1706
   19BDTP    C227442  -1.004  -0.209   5.798 -0.0513 -0.2794 -0.0862
   19BDTP    C327443  -0.923  -0.152   5.895 -0.0982 -0.3314 -0.0153
   19BDTP    C427444  -0.875  -0.233   5.999 -0.1612 -0.3843 -0.0281
   19BDTP    C527445  -0.912  -0.371   6.002 -0.1740 -0.3827 -0.1125
   19BDTP    C627446  -0.994  -0.429   5.905 -0.1272 -0.3308 -0.1835
   19BDTP    C727447  -0.790  -0.196   6.110 -0.2171 -0.4429  0.0354
   19BDTP    C827448  -0.761  -0.298   6.194 -0.2713 -0.4852  0.0031
   19BDTP    S127449  -0.838  -0.455   6.146 -0.2580 -0.4563 -0.1123
   19BDTP    C927450  -1.127  -0.384   5.690 -0.0076 -0.2189 -0.2341
   19BDTP   C1027451  -1.155  -0.282   5.605  0.0460 -0.1767 -0.2018
   19BDTP    S227452  -1.078  -0.125   5.654  0.0328 -0.2059 -0.0864
   20FTM     S127453  -0.799   0.039   5.723 -0.0868 -0.2161  0.0045
   20FTM     C127454  -0.816   0.211   5.774  0.6179 -0.2085  0.2329
   20FTM     C227455  -0.877   0.218   5.895  0.7813 -0.1245  0.3107
   20FTM     C327456  -0.914   0.093   5.955  0.3781 -0.0625  0.2000
   20FTM     C427457  -0.880  -0.013   5.877 -0.1097 -0.0999  0.0321
   20FTM     F127458  -0.903   0.338   5.960  1.3053 -0.0989  0.4865
   20FTM     C527459  -0.782   0.318   5.673 -0.0733  0.7176  0.1963
   20FTM     C627460  -0.816   0.316   5.521  0.0704  0.4590 -0.2535
   20FTM     C727461  -0.755   0.439   5.454 -0.1554 -0.5090  0.4506
   20FTM     C827462  -0.604   0.449   5.458 -0.4114  0.3317  0.5951
   20FTM     C927463  -0.500   0.351   5.402  0.0459  0.3931 -0.1614
   20FTM    C1027464  -0.519   0.307   5.258  0.2822 -0.7647 -0.7146
   20FTM    C1127465  -0.960   0.275   5.492  0.1609  0.9198 -0.2022
   20FTM    C1227466  -0.985   0.213   5.350  0.5466 -0.4548 -0.0885
   21FTM     S127467  -1.169  -0.657   5.903 -0.2257  0.1252 -0.0728
   21FTM     C127468  -1.084  -0.814   5.881 -0.4681  0.0152 -0.2324
   21FTM     C227469  -0.950  -0.793   5.870 -0.4842 -0.1326 -0.7535
   21FTM     C327470  -0.906  -0.657   5.878 -0.3135 -0.1686 -1.0533
   21FTM     C427471  -1.010  -0.570   5.895 -0.1615 -0.0441 -0.7519
   21FTM     F127472  -0.859  -0.896   5.852 -0.6547 -0.2441 -0.9903
   21FTM     C527473  -1.170  -0.937   5.878  0.2612 -0.3287 -0.3093
   21FTM     C627474  -1.178  -1.031   5.763  0.5024 -0.0361 -0.0734
   21FTM     C727475  -1.303  -1.123   5.761 -0.1295 -0.7437 -0.3396
   21FTM     C827476  -1.427  -1.043   5.731 -0.3212 -0.0621 -0.4377
   21FTM     C927477  -1.551  -1.126   5.707  0.4515  0.8955  0.3551
   21FTM    C1027478  -1.676  -1.046   5.685 -0.1452  0.1077  0.4291
   21FTM    C1127479  -1.044  -1.091   5.726  0.0210  0.0294 -0.5438
   21FTM    C1227480  -1.041  -1.162   5.594 -0.0025  0.0653 -0.5554
   22TPM     C127481  -1.233  -0.282   5.481  0.1967  0.1343  0.1656
   22TPM     C227482  -1.335  -0.367   5.450 -0.0556  0.3548  0.3755
   22TPM     C327483  -1.391  -0.344   5.319 -0.2227  0.4237  0.4591
   22TPM     C427484  -1.332  -0.242   5.251 -0.0988  0.2554  0.3125
   22TPM     S127485  -1.200  -0.166   5.347  0.2421 -0.0045  0.0558
   23BDD     C127486  -1.409  -0.000   4.951 -0.0673  0.1209 -0.1175
   23BDD     C227487  -1.465  -0.120   4.915 -0.0412  0.1097 -0.1218
   23BDD     C327488  -1.448  -0.223   5.016  0.0062  0.1018 -0.1378
   23BDD     C427489  -1.380  -0.182   5.126  0.0153  0.1064 -0.1454
   23BDD     S127490  -1.332  -0.009   5.113 -0.0346  0.1218 -0.1330
   23BDD     C527491  -1.536  -0.143   4.788 -0.0582  0.1061 -0.1115
   23BDD     C627492  -1.501  -0.360   4.998  0.0410  0.0892 -0.1450
   23BDD     O127493  -1.487  -0.450   5.084  0.0815  0.0825 -0.1587
   23BDD     O227494  -1.550  -0.054   4.701 -0.0992  0.1128 -0.0978
   23BDD     C727495  -1.572  -0.384   4.870  0.0234  0.0858 -0.1347
   23BDD     C827496  -1.588  -0.280   4.770 -0.0241  0.0937 -0.1187
   23BDD     C927497  -1.657  -0.322   4.659 -0.0333  0.0887 -0.1113
   23BDD     S227498  -1.705  -0.494   4.673  0.0171  0.0737 -0.1236
   23BDD    C1027499  -1.628  -0.503   4.835  0.0495  0.0749 -0.1392
   23BDD    C1127500  -1.626  -0.645   4.899  0.1278 -0.0940 -0.5277
   23BDD    C1227501  -1.759  -0.722   4.902  0.5624 -0.3629 -1.0962
   23BDD    C1327502  -1.756  -0.869   4.941  0.3405  0.3922 -0.0572
   23BDD    C1427503  -1.683  -0.971   4.848  0.4649 -0.0058  0.1268
   23BDD    C1527504  -1.535  -0.957   4.827 -0.4859  0.0180  0.1288
   23BDD    C1627505  -1.481  -1.083   4.776  0.5100 -0.1693  0.5150
   23BDD    C1727506  -1.880  -0.642   4.953 -0.2089 -0.0634  0.0357
   23BDD    C1827507  -2.020  -0.715   4.947 -0.0147 -0.9402 -0.9925
   23BDD    C1927508  -1.700  -0.254   4.532  0.3013  0.0892 -0.5621
   23BDD    C2027509  -1.643  -0.308   4.406  0.1478 -0.1084  0.6279
   23BDD    C2127510  -1.494  -0.279   4.396  0.4167  0.2854  0.1322
   23BDD    C2227511  -1.452  -0.133   4.393  0.0929  0.0008  0.4872
   23BDD    C2327512  -1.301  -0.104   4.396 -0.1242 -0.5425 -0.4070
   23BDD    C2427513  -1.269   0.042   4.432  0.8880 -0.5420  0.2723
   23BDD    C2527514  -1.740  -0.263   4.288 -0.1007  0.3625 -0.6145
   23BDD    C2627515  -1.716  -0.338   4.150 -0.1674 -0.0721  0.2592
   24TPM     C127516  -1.395   0.135   4.895 -0.3515 -0.3248  0.4072
   24TPM     C227517  -1.271   0.189   4.880 -0.1702 -0.8089  0.1005
   24TPM     C327518  -1.267   0.300   4.788  0.0815 -0.9574 -0.0720
   24TPM     C427519  -1.388   0.331   4.734  0.0922 -0.5866  0.1030
   24TPM     S127520  -1.518   0.220   4.794 -0.2172 -0.0167  0.5025
   25BDTP    C127521  -1.617   0.717   4.298  0.1333 -0.1074 -0.0968
   25BDTP    C227522  -1.491   0.679   4.243  0.2253 -0.0184  0.0508
   25BDTP    C327523  -1.403   0.595   4.309  0.2284  0.0814  0.1750
   25BDTP    C427524  -1.440   0.545   4.436  0.1359  0.0942  0.1531
   25BDTP    C527525  -1.566   0.584   4.491  0.0439  0.0052  0.0055
   25BDTP    C627526  -1.654   0.668   4.425  0.0407 -0.0946 -0.1188
   25BDTP    C727527  -1.365   0.457   4.523  0.1200  0.1898  0.2645
   25BDTP    C827528  -1.428   0.427   4.639  0.0215  0.1770  0.2084
   25BDTP    S127529  -1.591   0.507   4.655 -0.0646  0.0421  0.0064
   25BDTP    C927530  -1.692   0.805   4.211  0.1491 -0.2030 -0.2081
   25BDTP   C1027531  -1.629   0.835   4.095  0.2476 -0.1903 -0.1519
   25BDTP    S227532  -1.466   0.755   4.079  0.3343 -0.0553  0.0498
   26FTM     S127533  -1.125   0.574   4.317 -0.1985  0.1760 -0.0162
   26FTM     C127534  -1.047   0.486   4.180 -0.2408 -0.1595  0.1723
   26FTM     C227535  -1.142   0.450   4.089 -0.2618 -0.3370  0.2638
   26FTM     C327536  -1.277   0.487   4.119 -0.2468 -0.2256  0.1945
   26FTM     C427537  -1.286   0.554   4.238 -0.2131  0.0460  0.0450
   26FTM     F127538  -1.111   0.381   3.972 -0.2959 -0.6109  0.4157
   26FTM     C527539  -0.902   0.483   4.180 -0.1998  0.0751  0.0725
   26FTM     C627540  -0.805   0.452   4.073 -0.1128  0.8471  0.7044
   26FTM     C727541  -0.796   0.309   4.032 -0.1118  0.0160  0.1193
   26FTM     C827542  -0.750   0.211   4.143 -0.2369  0.1079  0.4482
   26FTM     C927543  -0.743   0.070   4.091  0.0740 -0.1538  0.3848
   26FTM    C1027544  -0.873  -0.000   4.071  0.4950  0.0897 -0.2764
   26FTM    C1127545  -0.795   0.541   3.945  0.3989  0.4086 -0.0001
   26FTM    C1227546  -0.777   0.696   3.971  0.1316  0.4176 -0.5144
   27FTM     S127547  -1.912   0.581   4.532  0.2838 -0.1126 -0.1178
   27FTM     C127548  -2.023   0.717   4.572  0.3541 -0.0555 -0.1176
   27FTM     C227549  -1.960   0.836   4.549  0.5094 -0.0858  0.1395
   27FTM     C327550  -1.826   0.828   4.500  0.5817 -0.1536  0.3473
   27FTM     C427551  -1.784   0.700   4.486  0.4782 -0.1759  0.2457
   27FTM     F127552  -2.022   0.959   4.571  0.5955 -0.0539  0.2023
   27FTM     C527553  -2.167   0.701   4.613 -0.8216 -0.1897  0.6851
   27FTM     C627554  -2.274   0.617   4.542 -0.6810 -0.4053  0.3256
   27FTM     C727555  -2.259   0.463   4.559  0.1788  0.2209 -0.0210
   27FTM     C827556  -2.290   0.401   4.691  0.0715 -0.4773 -1.0507
   27FTM     C927557  -2.308   0.250   4.686 -0.1919  0.6431  0.0720
   27FTM    C1027558  -2.344   0.177   4.822 -0.1471  0.5901  0.6703
   27FTM    C1127559  -2.311   0.643   4.394 -0.2923  0.4099 -0.6383
   27FTM    C1227560  -2.333   0.789   4.355 -0.1735  0.6419 -0.2579
   28TPM     C127561  -1.675   0.914   3.985  0.0539 -0.2688 -0.5801
   28TPM     C227562  -1.804   0.942   3.951  0.0494 -0.5392 -0.7897
   28TPM     C327563  -1.817   1.026   3.835  0.0619 -0.5079 -0.7681
   28TPM     C427564  -1.697   1.063   3.781  0.0759 -0.2136 -0.5421
   28TPM     S127565  -1.559   0.993   3.873  0.0744  0.0488 -0.3374
   29BDD     C127566  -1.770   1.227   3.429  0.1204 -0.1102 -0.1903
   29BDD     C227567  -1.642   1.264   3.460  0.0945 -0.0453 -0.1606
   29BDD     C327568  -1.598   1.215   3.590  0.0730  0.0167 -0.1300
   29BDD     C427569  -1.693   1.142   3.656  0.0826 -0.0020 -0.1367
   29BDD     S127570  -1.844   1.129   3.560  0.1193 -0.0983 -0.1820
   29BDD     C527571  -1.555   1.345   3.372  0.0887 -0.0378 -0.1593
   29BDD     C627572  -1.463   1.243   3.643  0.0436  0.0920 -0.0950
   29BDD     O127573  -1.425   1.201   3.755  0.0250  0.1454 -0.0685
   29BDD     O227574  -1.593   1.386   3.260  0.1073 -0.0912 -0.1857
   29BDD     C727575  -1.376   1.324   3.555  0.0377  0.0995 -0.0938
   29BDD     C827576  -1.420   1.372   3.426  0.0594  0.0376 -0.1244
   29BDD     C927577  -1.325   1.445   3.360  0.0496  0.0561 -0.1176
   29BDD     S227578  -1.174   1.458   3.455  0.0132  0.1525 -0.0724
   29BDD    C1027579  -1.248   1.361   3.586  0.0122  0.1644 -0.0640
   29BDD    C1127580  -1.159   1.339   3.714  0.1552  0.7365  0.0153
   29BDD    C1227581  -1.030   1.261   3.717 -0.5561  0.2842  0.8638
   29BDD    C1327582  -0.916   1.337   3.642  0.4073 -0.0666 -0.1545
   29BDD    C1427583  -0.861   1.471   3.687  0.2359  0.3115  0.1866
   29BDD    C1527584  -0.738   1.443   3.776 -0.0603 -0.5653  0.8763
   29BDD    C1627585  -0.674   1.573   3.821  0.1555  0.0665  1.3691
   29BDD    C1727586  -0.988   1.189   3.845  0.6606 -0.2706 -0.0452
   29BDD    C1827587  -1.105   1.107   3.915 -0.6806 -0.3423 -0.6741
   29BDD    C1927588  -1.298   1.495   3.219  0.0286 -0.2541  0.2796
   29BDD    C2027589  -1.290   1.642   3.201 -0.2743  0.1995  0.5449
   29BDD    C2127590  -1.405   1.734   3.261 -0.5245 -0.3958  0.0262
   29BDD    C2227591  -1.557   1.723   3.225 -0.9057  0.0886  0.5236
   29BDD    C2327592  -1.595   1.741   3.083 -0.5733 -0.6412 -0.3630
   29BDD    C2427593  -1.743   1.721   3.054 -0.1210 -0.0075 -0.1437
   29BDD    C2527594  -1.248   1.677   3.061  0.3902 -0.7013 -0.0368
   29BDD    C2627595  -1.195   1.820   3.038  0.1690 -0.3912 -0.1818
   30TPM     C127596  -1.863   1.243   3.317  0.2361 -0.1566 -0.3346
   30TPM     C227597  -1.867   1.356   3.240  0.1272 -0.0599 -0.1886
   30TPM     C327598  -1.988   1.367   3.162  0.0149  0.0401 -0.0026
   30TPM     C427599  -2.075   1.264   3.179  0.0381  0.0198 -0.0065
   30TPM     S127600  -2.011   1.143   3.297  0.2051 -0.1284 -0.2475
   31BDTP    C127601  -2.628   1.133   2.912 -0.0298  0.0772  0.1810
   31BDTP    C227602  -2.594   1.257   2.851  0.0646 -0.0154  0.0430
   31BDTP    C327603  -2.478   1.327   2.881  0.1369 -0.0893 -0.0632
   31BDTP    C427604  -2.390   1.271   2.976  0.1149 -0.0712 -0.0324
   31BDTP    C527605  -2.424   1.147   3.037  0.0204  0.0215  0.1056
   31BDTP    C627606  -2.540   1.077   3.007 -0.0517  0.0954  0.2119
   31BDTP    C727607  -2.264   1.325   3.024  0.1778 -0.1364 -0.1253
   31BDTP    C827608  -2.202   1.247   3.116  0.1355 -0.0977 -0.0646
   31BDTP    S127609  -2.295   1.096   3.156  0.0101  0.0269  0.1190
   31BDTP    C927610  -2.754   1.080   2.865 -0.0929  0.1425  0.2741
   31BDTP   C1027611  -2.816   1.157   2.772 -0.0505  0.1038  0.2132
   31BDTP    S227612  -2.723   1.308   2.732  0.0748 -0.0208  0.0298
   32FTM     S127613  -2.468   1.608   2.920  0.3285  0.0180  0.2627
   32FTM     C127614  -2.453   1.705   2.769 -0.5142 -0.1389  0.0679
   32FTM     C227615  -2.441   1.622   2.662 -0.9108 -0.2500  0.1082
   32FTM     C327616  -2.443   1.481   2.690 -0.5910 -0.2207  0.2885
   32FTM     C427617  -2.457   1.456   2.823  0.0718 -0.0825  0.3897
   32FTM     F127618  -2.428   1.668   2.532 -1.5866 -0.3850 -0.0160
   32FTM     C527619  -2.472   1.852   2.763 -0.0925 -0.8265  0.6830
   32FTM     C627620  -2.574   1.926   2.860 -0.3223  0.3012  0.2951
   32FTM     C727621  -2.567   2.077   2.840 -0.1453 -0.1393 -0.3420
   32FTM     C827622  -2.438   2.149   2.883  0.5285 -0.3882  0.2933
   32FTM     C927623  -2.442   2.292   2.832  0.4352 -0.4729 -0.6935
   32FTM    C1027624  -2.351   2.391   2.908  0.4007 -0.3130  0.1860
   32FTM    C1127625  -2.721   1.872   2.864  0.4757  0.0030  0.6225
   32FTM    C1227626  -2.812   1.931   2.968 -0.0556 -0.9163 -0.7776
   33FTM     S127627  -2.550   0.795   2.992 -0.0277 -0.0189 -0.0181
   33FTM     C127628  -2.613   0.707   3.136  0.2672 -0.1525  0.0294
   33FTM     C227629  -2.647   0.795   3.234  0.1041 -0.2218  0.0359
   33FTM     C327630  -2.627   0.934   3.203 -0.2512 -0.1764  0.0049
   33FTM     C427631  -2.576   0.952   3.078 -0.3640 -0.0688 -0.0261
   33FTM     F127632  -2.698   0.756   3.356  0.2670 -0.3305  0.0700
   33FTM     C527633  -2.608   0.560   3.128  0.4227  0.4993 -0.3382
   33FTM     C627634  -2.467   0.499   3.096  0.2570  0.3236 -0.7689
   33FTM     C727635  -2.478   0.351   3.048  0.0207 -0.2176  0.7802
   33FTM     C827636  -2.570   0.320   2.922  0.9598 -0.5051 -0.5281
   33FTM     C927637  -2.563   0.394   2.787 -0.2594 -0.0271  0.1061
   33FTM    C1027638  -2.419   0.431   2.734  0.5660  0.0945 -0.2209
   33FTM    C1127639  -2.347   0.541   3.183  0.2139 -0.0767 -0.5393
   33FTM    C1227640  -2.213   0.567   3.112  0.2363  0.3011 -0.2461
   34TPM     C127641  -2.942   1.121   2.710 -0.1475  0.2533 -0.0714
   34TPM     C227642  -3.027   1.200   2.639 -0.1975 -0.0191 -0.3160
   34TPM     C327643  -3.150   1.134   2.601 -0.0097 -0.3186 -0.4109
   34TPM     C427644  -3.158   1.005   2.644  0.1836 -0.2744 -0.2386
   34TPM     S127645  -3.010   0.956   2.736  0.1430  0.1521  0.0591
   35BDD     C127646  -3.530   0.879   2.588  0.1742  0.0236 -0.2489
   35BDD     C227647  -3.456   0.765   2.607  0.0973 -0.0108 -0.1549
   35BDD     C327648  -3.315   0.791   2.628  0.0782 -0.0744  0.0553
   35BDD     C427649  -3.283   0.924   2.625  0.1408 -0.0876  0.1184
   35BDD     S127650  -3.428   1.026   2.595  0.2279 -0.0212 -0.0806
   35BDD     C527651  -3.512   0.629   2.607  0.0384  0.0135 -0.2549
   35BDD     C627652  -3.216   0.684   2.651 -0.0015 -0.1198  0.1857
   35BDD     O127653  -3.094   0.706   2.670 -0.0180 -0.1746  0.3669
   35BDD     O227654  -3.634   0.606   2.589  0.0550  0.0684 -0.4361
   35BDD     C727655  -3.273   0.547   2.651 -0.0602 -0.0955  0.0857
   35BDD     C827656  -3.414   0.521   2.630 -0.0411 -0.0319 -0.1245
   35BDD     C927657  -3.446   0.388   2.633 -0.1038 -0.0187 -0.1877
   35BDD     S227658  -3.301   0.286   2.663 -0.1910 -0.0850  0.0114
   35BDD    C1027659  -3.199   0.434   2.670 -0.1372 -0.1299  0.1796
   35BDD    C1127660  -3.047   0.418   2.677 -0.0606  0.5201 -0.1631
   35BDD    C1227661  -2.980   0.368   2.806 -0.2809  0.1130  0.1798
   35BDD    C1327662  -3.015   0.225   2.833  0.0377 -0.1585 -0.3203
   35BDD    C1427663  -2.927   0.145   2.928  0.6381  0.2351  0.1318
   35BDD    C1527664  -2.982   0.006   2.954  0.2006 -0.2955 -0.1874
   35BDD    C1627665  -2.884  -0.107   2.992  0.3959 -0.5758 -0.2943
   35BDD    C1727666  -2.990   0.458   2.928  0.0135 -0.7366 -0.1809
   35BDD    C1827667  -2.926   0.593   2.928 -0.4109 -0.1938  0.0112
   35BDD    C1927668  -3.570   0.310   2.619  0.5858  0.3275 -0.3813
   35BDD    C2027669  -3.593   0.242   2.482  0.0400  0.2666 -0.4991
   35BDD    C2127670  -3.598   0.335   2.363  0.4642 -0.0908 -0.7580
   35BDD    C2227671  -3.715   0.436   2.349 -0.5526 -0.2398  0.1715
   35BDD    C2327672  -3.683   0.550   2.246  0.0840  0.1818 -0.0712
   35BDD    C2427673  -3.759   0.680   2.261  0.1100  0.5833 -0.0142
   35BDD    C2527674  -3.704   0.142   2.486  0.7047  0.5652  0.5247
   35BDD    C2627675  -3.694   0.020   2.388  0.0790  0.2017 -0.1667
   36TPM     C127676  -3.665   0.913   2.550  0.3289 -0.2004 -0.4258
   36TPM     C227677  -3.773   0.849   2.604  0.5081 -0.1758 -0.0315
   36TPM     C327678  -3.899   0.911   2.571  0.3992 -0.1306  0.4489
   36TPM     C427679  -3.887   1.021   2.492  0.1373 -0.1206  0.4210
   36TPM     S127680  -3.714   1.056   2.453  0.0068 -0.1681 -0.2191
   37BDTP    C127681  -4.353   1.392   2.288  0.2315  0.1459 -0.0926
   37BDTP    C227682  -4.239   1.477   2.284  0.2412  0.1375 -0.0010
   37BDTP    C327683  -4.113   1.434   2.322  0.2050  0.1326  0.1148
   37BDTP    C427684  -4.098   1.302   2.367  0.1569  0.1362  0.1417
   37BDTP    C527685  -4.212   1.217   2.371  0.1471  0.1446  0.0502
   37BDTP    C627686  -4.339   1.259   2.333  0.1834  0.1495 -0.0656
   37BDTP    C727687  -3.977   1.235   2.411  0.1134  0.1323  0.2552
   37BDTP    C827688  -3.995   1.106   2.448  0.0720  0.1374  0.2531
   37BDTP    S127689  -4.167   1.050   2.431  0.0825  0.1478  0.1074
   37BDTP    C927690  -4.474   1.458   2.244  0.2751  0.1497 -0.2059
   37BDTP   C1027691  -4.457   1.588   2.207  0.3164  0.1447 -0.2039
   37BDTP    S227692  -4.284   1.643   2.224  0.3060  0.1343 -0.0582
   38FTM     S127693  -3.962   1.596   2.137  0.3148 -0.0367  0.0535
   38FTM     C127694  -3.812   1.674   2.198  0.4173 -0.2127  0.0294
   38FTM     C227695  -3.789   1.636   2.327  0.1841  0.0580  0.1529
   38FTM     C327696  -3.884   1.546   2.384 -0.0821  0.4102  0.2707
   38FTM     C427697  -3.984   1.514   2.297 -0.0518  0.4093  0.2366
   38FTM     F127698  -3.680   1.681   2.400  0.1979  0.0028  0.1664
   38FTM     C527699  -3.739   1.776   2.112  0.0498  0.3430 -0.3281
   38FTM     C627700  -3.595   1.744   2.068  0.3650 -0.3379 -0.1261
   38FTM     C727701  -3.535   1.870   1.999  0.0192 -0.2272 -0.0354
   38FTM     C827702  -3.501   1.998   2.075 -0.1628  0.2119  0.1104
   38FTM     C927703  -3.433   1.979   2.205 -0.8397 -0.5373  0.1582
   38FTM    C1027704  -3.294   1.915   2.210  0.1586 -0.0983 -0.4058
   38FTM    C1127705  -3.583   1.612   1.996 -0.3322  0.5525  0.7721
   38FTM    C1227706  -3.439   1.574   1.959 -0.3657 -0.0257 -0.1370
   39FTM     S127707  -4.519   1.132   2.520 -0.1239 -0.6847  0.0105
   39FTM     C127708  -4.647   1.031   2.444 -0.1024 -0.4832 -0.2985
   39FTM     C227709  -4.632   1.030   2.309  0.0011 -0.2085 -0.2893
   39FTM     C327710  -4.522   1.107   2.257  0.0678 -0.1397 -0.0471
   39FTM     C427711  -4.451   1.168   2.356  0.0140 -0.3691  0.1350
   39FTM     F127712  -4.716   0.960   2.224  0.0409 -0.0031 -0.4997
   39FTM     C527713  -4.757   0.954   2.520 -0.4009 -0.2653  0.3433
   39FTM     C627714  -4.845   1.015   2.633  0.7875  0.1589  0.2908
   39FTM     C727715  -4.939   0.913   2.715  0.0022 -0.1508  0.4526
   39FTM     C827716  -4.860   0.807   2.804 -0.2958  0.0684 -0.1978
   39FTM     C927717  -4.935   0.685   2.867  0.3962 -0.3625  0.0146
   39FTM    C1027718  -5.075   0.693   2.932 -0.1788 -1.0190 -0.1480
   39FTM    C1127719  -4.916   1.139   2.597  0.2819 -0.0476  1.0631
   39FTM    C1227720  -5.022   1.134   2.487  0.1887 -0.2202 -0.1656
   40TPM     C127721  -4.558   1.676   2.159 -0.1213  0.0150  0.5810
   40TPM     C227722  -4.694   1.661   2.165 -0.1179 -0.1125  0.3488
   40TPM     C327723  -4.766   1.770   2.105 -0.1179 -0.2061  0.1773
   40TPM     C427724  -4.686   1.868   2.054 -0.1214 -0.1499  0.2787
   40TPM     S127725  -4.512   1.830   2.077 -0.1249  0.0268  0.6010
   41BDD     C127726  -4.718   2.121   1.758  0.0701  0.2201 -0.2326
   41BDD     C227727  -4.820   2.154   1.843  0.0900  0.1729 -0.1903
   41BDD     C327728  -4.828   2.067   1.959  0.1882  0.1787 -0.1785
   41BDD     C427729  -4.733   1.969   1.961  0.2417  0.2303 -0.2119
   41BDD     S127730  -4.625   1.979   1.817  0.1729  0.2752 -0.2605
   41BDD     C527731  -4.913   2.266   1.821  0.0196  0.1206 -0.1592
   41BDD     C627732  -4.931   2.083   2.064  0.2255  0.1328 -0.1345
   41BDD     O127733  -4.938   2.008   2.164  0.3103  0.1379 -0.1243
   41BDD     O227734  -4.906   2.341   1.721 -0.0652  0.1155 -0.1694
   41BDD     C727735  -5.024   2.196   2.041  0.1551  0.0806 -0.1034
   41BDD     C827736  -5.016   2.283   1.926  0.0569  0.0747 -0.1152
   41BDD     C927737  -5.111   2.381   1.924  0.0035  0.0231 -0.0818
   41BDD     S227738  -5.219   2.370   2.067  0.0723 -0.0218 -0.0332
   41BDD    C1027739  -5.126   2.228   2.126  0.1752  0.0333 -0.0612
   41BDD    C1127740  -5.174   2.181   2.265  0.5333 -0.0115  0.1198
   41BDD    C1227741  -5.132   2.258   2.386 -0.4811 -0.5976  0.4862
   41BDD    C1327742  -4.980   2.317   2.389  0.5562  0.3618  0.5281
   41BDD    C1427743  -4.878   2.209   2.425  0.4381 -0.3949  0.0386
   41BDD    C1527744  -4.734   2.252   2.405  0.4476 -0.7253 -0.5874
   41BDD    C1627745  -4.648   2.152   2.464 -0.6712  0.0468  0.2239
   41BDD    C1727746  -5.189   2.178   2.509 -0.9229 -0.3218  0.3590
   41BDD    C1827747  -5.180   2.255   2.642 -0.3173  0.8756  0.1050
   41BDD    C1927748  -5.143   2.491   1.820 -0.3828  0.6554  0.2368
   41BDD    C2027749  -5.121   2.642   1.859 -0.5882 -0.2906  0.1470
   41BDD    C2127750  -5.239   2.718   1.926 -0.0451 -0.1696 -0.4666
   41BDD    C2227751  -5.382   2.719   1.867 -0.2897  0.1353  0.5232
   41BDD    C2327752  -5.477   2.821   1.929 -0.1623  0.3614  0.7068
   41BDD    C2427753  -5.614   2.814   1.858 -0.3676  0.3281 -0.5579
   41BDD    C2527754  -4.980   2.678   1.922  0.2504  0.2494  0.4607
   41BDD    C2627755  -4.848   2.649   1.839  0.4431 -0.2330  0.2656
   42TPM     C127756  -4.657   2.180   1.634  0.3032  0.0231  0.0803
   42TPM     C227757  -4.541   2.127   1.585  0.4603  0.2826  0.1697
   42TPM     C327758  -4.498   2.187   1.461  0.3443  0.2787  0.1270
   42TPM     C427759  -4.581   2.285   1.415  0.0986  0.0160  0.0050
   42TPM     S127760  -4.721   2.310   1.526 -0.0059 -0.2486 -0.0659
   43BDTP    C127761  -4.489   2.723   0.972 -0.0609  0.0636  0.1296
   43BDTP    C227762  -4.379   2.635   0.952 -0.1081  0.0181  0.0694
   43BDTP    C327763  -4.360   2.520   1.029 -0.1580 -0.0334  0.0049
   43BDTP    C427764  -4.454   2.492   1.129 -0.1615 -0.0405 -0.0006
   43BDTP    C527765  -4.564   2.580   1.149 -0.1144  0.0050  0.0598
   43BDTP    C627766  -4.583   2.695   1.072 -0.0644  0.0565  0.1242
   43BDTP    C727767  -4.456   2.379   1.221 -0.2089 -0.0898 -0.0617
   43BDTP    C827768  -4.560   2.379   1.307 -0.1996 -0.0837 -0.0504
   43BDTP    S127769  -4.671   2.522   1.284 -0.1296 -0.0145  0.0393
   43BDTP    C927770  -4.487   2.835   0.880 -0.0136  0.1129  0.1908
   43BDTP   C1027771  -4.383   2.836   0.794 -0.0229  0.1068  0.1795
   43BDTP    S227772  -4.272   2.693   0.816 -0.0928  0.0376  0.0898
   44FTM     S127773  -4.242   2.260   0.994  0.2134  0.2266 -0.1897
   44FTM     C127774  -4.065   2.260   0.965  0.2462  0.1938  0.0100
   44FTM     C227775  -4.019   2.388   0.961  0.2795  0.1846  0.0888
   44FTM     C327776  -4.117   2.491   0.979  0.2813  0.2021  0.0010
   44FTM     C427777  -4.242   2.441   0.998  0.2485  0.2255 -0.1502
   44FTM     F127778  -3.885   2.420   0.940  0.3102  0.1598  0.2453
   44FTM     C527779  -3.994   2.128   0.926 -0.1265 -0.7487  0.4891
   44FTM     C627780  -4.073   2.019   0.861 -0.0008  0.0287 -0.5799
   44FTM     C727781  -3.989   1.898   0.822 -0.0273 -0.0088  0.4770
   44FTM     C827782  -3.883   1.826   0.904  0.3824 -0.5100  0.2322
   44FTM     C927783  -3.919   1.780   1.044  0.0414 -0.1852 -0.3397
   44FTM    C1027784  -3.807   1.713   1.125 -0.2290  0.0182  0.2010
   44FTM    C1127785  -4.135   2.067   0.729  0.0150 -0.1624 -0.8486
   44FTM    C1227786  -4.253   1.989   0.669 -0.3996 -0.4260 -0.0683
   45FTM     S127787  -4.740   2.835   1.259  0.0563  0.1096  0.0333
   45FTM     C127788  -4.884   2.924   1.196 -0.0130 -0.1592 -0.1935
   45FTM     C227789  -4.895   2.904   1.062 -0.0135 -0.5298 -0.1426
   45FTM     C327790  -4.795   2.821   1.001  0.0385 -0.6250  0.0706
   45FTM     C427791  -4.704   2.776   1.092  0.0804 -0.3174  0.1869
   45FTM     F127792  -4.997   2.961   0.987 -0.0610 -0.8047 -0.2861
   45FTM     C527793  -4.984   2.974   1.294  0.5803  0.0526  0.5899
   45FTM     C627794  -4.960   3.083   1.408 -0.3296 -0.3243  0.0863
   45FTM     C727795  -4.922   3.223   1.346  0.3285  0.4774 -0.5678
   45FTM     C827796  -5.028   3.283   1.257  0.5600 -0.5036 -0.5182
   45FTM     C927797  -4.967   3.405   1.198  0.2661 -0.5337  0.0813
   45FTM    C1027798  -5.063   3.495   1.114  0.0852  0.4860 -0.1251
   45FTM    C1127799  -4.855   3.047   1.515 -0.1200 -0.0641 -0.2070
   45FTM    C1227800  -4.891   2.924   1.602 -0.8783  0.4561 -0.5245
   46TPM     C127801  -4.345   2.950   0.709  0.1394  0.2966  0.0312
   46TPM     C227802  -4.244   2.961   0.617 -0.1137  0.3658 -0.2432
   46TPM     C327803  -4.245   3.085   0.544 -0.5714  0.2449 -0.4547
   46TPM     C427804  -4.346   3.169   0.580 -0.6675  0.0834 -0.3416
   46TPM     S127805  -4.449   3.098   0.710 -0.1835  0.0715  0.0439
   47BDD     C127806  -4.541   3.459   0.406  0.0916 -0.0247  0.1216
   47BDD     C227807  -4.409   3.491   0.387  0.0843 -0.0065  0.1002
   47BDD     C327808  -4.318   3.394   0.443  0.1066 -0.0345  0.0151
   47BDD     C427809  -4.381   3.289   0.504  0.1309 -0.0736 -0.0272
   47BDD     S127810  -4.559   3.305   0.495  0.1274 -0.0782  0.0366
   47BDD     C527811  -4.363   3.613   0.317  0.0561  0.0373  0.1574
   47BDD     C627812  -4.171   3.408   0.434  0.1031 -0.0213 -0.0212
   47BDD     O127813  -4.092   3.324   0.483  0.1225 -0.0455 -0.0946
   47BDD     O227814  -4.442   3.697   0.268  0.0367  0.0614  0.2308
   47BDD     C727815  -4.124   3.530   0.364  0.0751  0.0225  0.0359
   47BDD     C827816  -4.216   3.627   0.308  0.0526  0.0505  0.1211
   47BDD     C927817  -4.153   3.732   0.247  0.0284  0.0896  0.1634
   47BDD     S227818  -3.975   3.716   0.256  0.0317  0.0942  0.0996
   47BDD    C1027819  -3.993   3.562   0.345  0.0676  0.0407  0.0146
   47BDD    C1127820  -3.865   3.502   0.392  0.2438  0.4883  0.1682
   47BDD    C1227821  -3.774   3.582   0.491 -0.1104 -0.0084 -0.1227
   47BDD    C1327822  -3.846   3.632   0.623 -0.3130 -0.3795  0.0121
   47BDD    C1427823  -3.896   3.533   0.728  0.0606  0.5225  0.0722
   47BDD    C1527824  -3.968   3.601   0.840 -0.1037 -0.1517 -0.4036
   47BDD    C1627825  -4.103   3.657   0.804 -0.2066  0.3862 -0.0145
   47BDD    C1727826  -3.636   3.503   0.524 -0.0074 -1.3239  0.4804
   47BDD    C1827827  -3.554   3.455   0.400  0.0780 -0.6176  0.2426
   47BDD    C1927828  -4.185   3.858   0.168 -0.0577 -0.1929  0.3372
   47BDD    C2027829  -4.269   3.842   0.039  0.4405 -0.2735 -0.6823
   47BDD    C2127830  -4.192   3.779  -0.075  0.5301 -0.0388  0.6405
   47BDD    C2227831  -4.268   3.751  -0.206 -0.4786  0.8005 -0.3646
   47BDD    C2327832  -4.186   3.693  -0.318 -0.1772  0.2943  0.2612
   47BDD    C2427833  -4.072   3.769  -0.378 -0.6801  0.0135 -0.3446
   47BDD    C2527834  -4.335   3.969   0.004  0.5970 -0.5845  0.3397
   47BDD    C2627835  -4.447   4.033   0.093 -0.0759 -0.0504  0.1700
   48TPM     C127836  -4.670   3.523   0.397 -0.0593 -0.0918  0.0913
   48TPM     C227837  -4.701   3.611   0.298 -0.2328 -0.1723  0.0723
   48TPM     C327838  -4.837   3.656   0.301 -0.3211 -0.4358  0.0651
   48TPM     C427839  -4.911   3.602   0.402 -0.2148 -0.5563  0.0786
   48TPM     S127840  -4.813   3.489   0.502  0.0068 -0.3445  0.1017
   49BDTP    C127841  -5.527   3.690   0.485  0.0396 -0.1104  0.0984
   49BDTP    C227842  -5.500   3.574   0.564 -0.0305 -0.2077 -0.0197
   49BDTP    C327843  -5.373   3.518   0.574 -0.0621 -0.2884 -0.0673
   49BDTP    C427844  -5.268   3.579   0.504 -0.0229 -0.2725  0.0049
   49BDTP    C527845  -5.295   3.695   0.425  0.0473 -0.1752  0.1231
   49BDTP    C627846  -5.421   3.751   0.414  0.0789 -0.0945  0.1706
   49BDTP    C727847  -5.129   3.539   0.499 -0.0442 -0.3444 -0.0249
   49BDTP    C827848  -5.051   3.618   0.422  0.0058 -0.3063  0.0641
   49BDTP    S127849  -5.143   3.755   0.344  0.0871 -0.1739  0.1981
   49BDTP    C927850  -5.666   3.730   0.490  0.0610 -0.0384  0.1282
   49BDTP   C1027851  -5.744   3.651   0.567  0.0110 -0.0765  0.0392
   49BDTP    S227852  -5.652   3.515   0.645 -0.0703 -0.2089 -0.0949
   50FTM     S127853  -5.401   3.435   0.839 -0.0543  0.1105 -0.2174
   50FTM     C127854  -5.345   3.269   0.884  0.0228  0.1392 -0.2084
   50FTM     C227855  -5.291   3.208   0.776 -0.1954  0.0568 -0.2713
   50FTM     C327856  -5.290   3.283   0.654 -0.4303 -0.0314 -0.3289
   50FTM     C427857  -5.345   3.407   0.669 -0.3906 -0.0162 -0.3095
   50FTM     F127858  -5.239   3.079   0.780 -0.1955  0.0566 -0.2804
   50FTM     C527859  -5.358   3.210   1.024 -0.5338  0.0018 -0.2469
   50FTM     C627860  -5.492   3.235   1.092  0.1458  0.0231  0.0178
   50FTM     C727861  -5.503   3.183   1.233 -0.0295  0.6311 -0.5528
   50FTM     C827862  -5.389   3.192   1.333  0.0961  0.2350 -0.2013
   50FTM     C927863  -5.418   3.148   1.480  0.2614 -0.3487  0.1668
   50FTM    C1027864  -5.297   3.136   1.573  0.6410  0.1090 -0.2353
   50FTM    C1127865  -5.614   3.217   1.001 -0.5290 -0.0088  0.4390
   50FTM    C1227866  -5.744   3.266   1.061  0.4497 -0.6452  0.2492
   51FTM     S127867  -5.578   3.914   0.224 -0.1458  0.0046 -0.0348
   51FTM     C127868  -5.519   4.083   0.205 -0.5342  0.1781  0.2592
   51FTM     C227869  -5.410   4.104   0.284 -0.6825  0.3443  0.4225
   51FTM     C327870  -5.367   3.992   0.362 -0.5069  0.3468  0.3313
   51FTM     C427871  -5.446   3.882   0.343 -0.2150  0.1769  0.0902
   51FTM     F127872  -5.343   4.225   0.289 -0.9854  0.5040  0.6644
   51FTM     C527873  -5.574   4.176   0.098  0.1395 -0.3956  0.2398
   51FTM     C627874  -5.553   4.147  -0.052  0.2272  0.1097  0.1211
   51FTM     C727875  -5.566   4.263  -0.155 -0.7603  0.0105 -0.1922
   51FTM     C827876  -5.462   4.377  -0.142  0.5846  0.0493  0.1184
   51FTM     C927877  -5.442   4.461  -0.272  0.1349  0.6912 -0.4914
   51FTM    C1027878  -5.373   4.595  -0.260 -0.6821 -0.0126  0.0329
   51FTM    C1127879  -5.617   4.010  -0.090 -0.0569 -0.5784  0.2496
   51FTM    C1227880  -5.587   3.945  -0.224 -0.2123  0.3575  0.2490
   52TPM     C127881  -5.883   3.664   0.593  0.0072  0.4327 -0.1013
   52TPM     C227882  -5.965   3.563   0.635  0.1600  0.2220 -0.3017
   52TPM     C327883  -6.103   3.604   0.650  0.1410  0.0439  0.0116
   52TPM     C427884  -6.125   3.735   0.620 -0.0264  0.1189  0.4508
   52TPM     S127885  -5.973   3.818   0.570 -0.1740  0.4227  0.5033
   53BDD     C127886  -6.522   3.770   0.633  0.1067  0.0602  0.0108
   53BDD     C227887  -6.478   3.890   0.585  0.1085  0.0664  0.0280
   53BDD     C327888  -6.334   3.895   0.568  0.1020  0.0443 -0.0335
   53BDD     C427889  -6.270   3.779   0.603  0.0953  0.0216 -0.0967
   53BDD     S127890  -6.387   3.655   0.660  0.0967  0.0263 -0.0837
   53BDD     C527891  -6.566   4.004   0.554  0.1162  0.0927  0.1017
   53BDD     C627892  -6.264   4.015   0.517  0.1025  0.0466 -0.0273
   53BDD     O127893  -6.140   4.020   0.503  0.0969  0.0277 -0.0803
   53BDD     O227894  -6.690   3.999   0.569  0.1218  0.1118  0.1548
   53BDD     C727895  -6.352   4.129   0.486  0.1103  0.0731  0.0464
   53BDD     C827896  -6.496   4.124   0.503  0.1169  0.0951  0.1080
   53BDD     C927897  -6.559   4.240   0.468  0.1234  0.1179  0.1712
   53BDD     S227898  -6.443   4.364   0.411  0.1220  0.1132  0.1581
   53BDD    C1027899  -6.307   4.249   0.438  0.1121  0.0794  0.0637
   53BDD    C1127900  -6.173   4.303   0.403  0.2824  0.6945 -0.7221
   53BDD    C1227901  -6.134   4.305   0.266  0.0647 -0.2692  0.7424
   53BDD    C1327902  -6.170   4.199   0.159  0.1332  0.5146 -0.2802
   53BDD    C1427903  -6.136   4.052   0.178 -0.2737  0.1883  0.7552
   53BDD    C1527904  -5.991   4.023   0.160 -0.1129 -0.1067 -0.7022
   53BDD    C1627905  -5.944   3.888   0.191 -0.1653 -0.0805  0.5125
   53BDD    C1727906  -5.985   4.353   0.267  0.2799  0.7791  0.1792
   53BDD    C1827907  -5.914   4.395   0.141  0.6137 -0.1444  0.3850
   53BDD    C1927908  -6.704   4.272   0.448  0.0285 -0.5028  0.1263
   53BDD    C2027909  -6.762   4.242   0.310 -0.9226 -0.6659  0.4222
   53BDD    C2127910  -6.714   4.342   0.192 -0.1951 -0.2484  0.1620
   53BDD    C2227911  -6.762   4.297   0.043 -0.0716 -0.4536 -0.7578
   53BDD    C2327912  -6.719   4.154   0.009  0.0359 -0.1822 -0.1546
   53BDD    C2427913  -6.743   4.103  -0.134  0.2031  0.1244 -0.1737
   53BDD    C2527914  -6.913   4.224   0.314  0.0185 -0.0528  0.2284
   53BDD    C2627915  -6.973   4.099   0.389  0.0994 -0.7965 -0.2273
   54TPM     C127916  -6.651   3.708   0.658  0.2444  0.4963  0.1896
   54TPM     C227917  -6.655   3.599   0.740  0.4758  0.3886  0.0589
   54TPM     C327918  -6.788   3.558   0.775  0.5544 -0.0342 -0.1179
   54TPM     C427919  -6.886   3.637   0.721  0.3830 -0.2487 -0.1222
   54TPM     S127920  -6.816   3.769   0.620  0.1069  0.0690  0.0986
   55BDTP    C127921  -7.513   3.673   0.792  0.1158 -0.0015  0.1947
   55BDTP    C227922  -7.483   3.546   0.851 -0.0280 -0.1205  0.0151
   55BDTP    C327923  -7.354   3.496   0.858 -0.0697 -0.2216  0.0559
   55BDTP    C427924  -7.250   3.574   0.805  0.0354 -0.2049  0.2844
   55BDTP    C527925  -7.280   3.700   0.746  0.1792 -0.0859  0.4640
   55BDTP    C627926  -7.409   3.750   0.739  0.2208  0.0152  0.4232
   55BDTP    C727927  -7.108   3.542   0.801  0.0179 -0.2957  0.3685
   55BDTP    C827928  -7.032   3.638   0.743  0.1401 -0.2514  0.5995
   55BDTP    S127929  -7.128   3.781   0.685  0.2944 -0.0882  0.7432
   55BDTP    C927930  -7.655   3.704   0.796  0.1332  0.0894  0.1106
   55BDTP   C1027931  -7.731   3.609   0.854  0.0111  0.0450 -0.1204
   55BDTP    S227932  -7.635   3.466   0.912 -0.1433 -0.1182 -0.2641
   56FTM     S127933  -7.215   3.358   1.072  0.0690 -0.3555 -0.1111
   56FTM     C127934  -7.243   3.180   1.082  0.2209 -0.3781 -0.0791
   56FTM     C227935  -7.325   3.140   0.981  0.3743 -0.4907 -0.1608
   56FTM     C327936  -7.370   3.243   0.892  0.3828 -0.5646 -0.2510
   56FTM     C427937  -7.321   3.366   0.926  0.2309 -0.5067 -0.2380
   56FTM     F127938  -7.364   3.009   0.963  0.5161 -0.5337 -0.1587
   56FTM     C527939  -7.194   3.097   1.194 -0.0730 -0.0333 -0.9362
   56FTM     C627940  -7.043   3.101   1.221  0.2249 -0.1675  0.1515
   56FTM     C727941  -6.970   3.218   1.284 -0.7480 -0.1869 -0.4175
   56FTM     C827942  -6.995   3.246   1.430 -0.4083  0.0971  0.2439
   56FTM     C927943  -6.945   3.387   1.471 -0.0423  0.2487  0.0869
   56FTM    C1027944  -6.988   3.428   1.613  0.0305  0.0029  0.9276
   56FTM    C1127945  -6.964   3.038   1.101  0.4452  0.6033 -0.5215
   56FTM    C1227946  -6.811   3.010   1.122 -0.0561 -0.1832 -0.3895
   57FTM     S127947  -7.410   4.034   0.785  0.1825 -0.0623  0.1074
   57FTM     C127948  -7.407   4.140   0.639 -0.0933  0.2568  0.3282
   57FTM     C227949  -7.413   4.063   0.527 -0.3033  0.5007  0.1709
   57FTM     C327950  -7.420   3.922   0.547 -0.2635  0.4555 -0.1238
   57FTM     C427951  -7.420   3.888   0.679 -0.0149  0.1675 -0.1945
   57FTM     F127952  -7.412   4.117   0.399 -0.5440  0.7796  0.2844
   57FTM     C527953  -7.382   4.281   0.658 -0.1257  0.5101 -0.6121
   57FTM     C627954  -7.473   4.394   0.604 -0.5420 -0.1416  0.3497
   57FTM     C727955  -7.444   4.438   0.457  0.1690  0.4708 -0.3577
   57FTM     C827956  -7.299   4.473   0.430 -0.1939 -0.4989 -0.0517
   57FTM     C927957  -7.252   4.453   0.287  0.4519 -0.2049  0.8685
   57FTM    C1027958  -7.111   4.494   0.240  0.3565  0.0419  0.1682
   57FTM    C1127959  -7.615   4.384   0.652  0.2160 -0.2567 -0.1795
   57FTM    C1227960  -7.715   4.493   0.627  0.2668  0.2179  0.2953
   58TPM     C127961  -7.875   3.598   0.876  0.4834 -0.1814  0.5879
   58TPM     C227962  -7.981   3.676   0.842  0.7163  0.2569  0.8355
   58TPM     C327963  -8.108   3.621   0.881  0.5293  0.3699  0.4069
   58TPM     C427964  -8.098   3.501   0.946  0.1538  0.0178 -0.1675
   58TPM     S127965  -7.927   3.448   0.962  0.0062 -0.4879 -0.2120
   59BDD     C127966  -8.338   3.191   1.003 -0.0937 -0.1022 -0.1447
   59BDD     C227967  -8.412   3.302   1.037 -0.0915 -0.1135 -0.1032
   59BDD     C327968  -8.340   3.427   1.018 -0.1298 -0.1010 -0.1669
   59BDD     C427969  -8.213   3.410   0.970 -0.1608 -0.0804 -0.2560
   59BDD     S127970  -8.175   3.236   0.945 -0.1440 -0.0752 -0.2663
   59BDD     C527971  -8.550   3.296   1.088 -0.0540 -0.1360 -0.0036
   59BDD     C627972  -8.400   3.558   1.048 -0.1345 -0.1099 -0.1371
   59BDD     O127973  -8.339   3.666   1.032 -0.1676 -0.0992 -0.1921
   59BDD     O227974  -8.612   3.188   1.104 -0.0210 -0.1467  0.0513
   59BDD     C727975  -8.539   3.552   1.100 -0.0970 -0.1326 -0.0375
   59BDD     C827976  -8.610   3.427   1.118 -0.0587 -0.1451  0.0262
   59BDD     C927977  -8.737   3.444   1.167 -0.0277 -0.1657  0.1153
   59BDD     S227978  -8.776   3.618   1.192 -0.0446 -0.1709  0.1255
   59BDD    C1027979  -8.612   3.663   1.134 -0.0948 -0.1439  0.0039
   59BDD    C1127980  -8.592   3.812   1.120 -0.3667  0.0158  0.1071
   59BDD    C1227981  -8.504   3.896   1.213  0.1175  0.3908 -1.0371
   59BDD    C1327982  -8.555   3.907   1.362 -0.2151  0.6614  0.1514
   59BDD    C1427983  -8.699   3.959   1.377 -0.1138  0.2297  0.2047
   59BDD    C1527984  -8.729   3.991   1.524  0.0564  0.6188  0.4414
   59BDD    C1627985  -8.881   4.025   1.539  0.2112  0.0260 -0.2888
   59BDD    C1727986  -8.481   4.030   1.145 -0.5147 -0.0451 -0.1983
   59BDD    C1827987  -8.374   4.132   1.205  0.6919  0.7285 -0.0453
   59BDD    C1927988  -8.840   3.357   1.229  0.0320 -0.4906 -0.3772
   59BDD    C2027989  -8.844   3.369   1.384  0.5752  0.9086 -0.2327
   59BDD    C2127990  -8.718   3.372   1.468 -1.5087  0.2252 -0.4081
   59BDD    C2227991  -8.734   3.412   1.614  0.6214  0.1576  0.2794
   59BDD    C2327992  -8.755   3.567   1.627  0.1375  0.1507 -0.1166
   59BDD    C2427993  -8.781   3.607   1.776  1.0606 -0.0985 -0.2043
   59BDD    C2527994  -8.954   3.273   1.436  0.7412  0.0718  0.6397
   59BDD    C2627995  -8.920   3.125   1.464 -0.2036  0.1621 -0.5024
   60TPM     C127996  -8.350   3.042   1.013 -0.4480 -0.1744  0.1699
   60TPM     C227997  -8.462   2.970   0.984 -0.4426 -0.2398  0.3067
   60TPM     C327998  -8.438   2.829   0.968 -0.3328 -0.1907  0.0197
   60TPM     C427999  -8.308   2.793   0.985 -0.2545 -0.0878 -0.3359
   60TPM     S128000  -8.204   2.936   1.023 -0.3139 -0.0446 -0.3359
    1BDTP    C128001   0.212   6.523   6.310 -0.0635 -0.1508 -0.0170
    1BDTP    C228002   0.350   6.510   6.276 -0.0363 -0.0031  0.0358
    1BDTP    C328003   0.451   6.513   6.371 -0.0770  0.0949  0.0757
    1BDTP    C428004   0.415   6.530   6.506 -0.1478  0.0449  0.0633
    1BDTP    C528005   0.277   6.543   6.540 -0.1750 -0.1029  0.0104
    1BDTP    C628006   0.176   6.540   6.445 -0.1343 -0.2008 -0.0295
    1BDTP    C728007   0.502   6.537   6.622 -0.2000  0.1261  0.0977
    1BDTP    C828008   0.437   6.554   6.740 -0.2642  0.0474  0.0740
    1BDTP    S128009   0.256   6.564   6.720 -0.2676 -0.1408  0.0042
    1BDTP    C928010   0.125   6.516   6.194 -0.0113 -0.2321 -0.0517
    1BDTP   C1028011   0.191   6.499   6.077  0.0529 -0.1533 -0.0279
    1BDTP    S228012   0.371   6.489   6.096  0.0563  0.0348  0.0420
    2FTM     S128013   0.710   6.629   6.387 -0.1276 -0.2807  0.4373
    2FTM     C128014   0.847   6.538   6.314 -0.2182 -0.3806  0.3911
    2FTM     C228015   0.801   6.426   6.253 -0.3572 -0.1980  0.1545
    2FTM     C328016   0.660   6.404   6.260 -0.4007  0.0252 -0.0014
    2FTM     C428017   0.595   6.503   6.328 -0.2914  0.0134  0.1195
    2FTM     F128018   0.884   6.336   6.188 -0.4534 -0.2224  0.0651
    2FTM     C528019   0.992   6.585   6.327  0.1325 -0.1019 -0.0627
    2FTM     C628020   1.032   6.725   6.390 -0.0216  0.8195 -0.6167
    2FTM     C728021   1.179   6.747   6.418 -0.1971  0.5147 -0.7874
    2FTM     C828022   1.251   6.649   6.509  0.2899  0.7716 -0.1682
    2FTM     C928023   1.397   6.677   6.535 -0.5626  0.0463 -0.3214
    2FTM    C1028024   1.445   6.575   6.633  0.1001 -0.6350  0.2494
    2FTM    C1128025   0.976   6.844   6.313 -0.8049  0.1737 -0.1069
    2FTM    C1228026   1.037   6.875   6.175  0.5646  0.0541  0.0353
    3FTM     S128027  -0.003   6.707   6.600 -0.3823  0.3664 -0.1147
    3FTM     C128028  -0.176   6.659   6.599 -0.3796  0.3595 -0.2266
    3FTM     C228029  -0.193   6.548   6.522 -0.3128  0.3101 -0.1694
    3FTM     C328030  -0.075   6.495   6.462 -0.2606  0.2756 -0.0383
    3FTM     C428031   0.036   6.567   6.492 -0.2886  0.2992  0.0063
    3FTM     F128032  -0.316   6.487   6.503 -0.2944  0.2933 -0.2323
    3FTM     C528033  -0.283   6.720   6.690 -0.0574 -0.2703 -0.1674
    3FTM     C628034  -0.315   6.870   6.666 -0.1536  0.1003  0.0717
    3FTM     C728035  -0.453   6.918   6.714 -0.1552  0.6094 -0.1365
    3FTM     C828036  -0.490   6.910   6.858 -0.1726  0.1017 -0.0207
    3FTM     C928037  -0.628   6.965   6.867  0.1088  0.2385 -0.7994
    3FTM    C1028038  -0.684   6.941   7.007 -0.2285 -0.4035  0.0957
    3FTM    C1128039  -0.206   6.973   6.653 -0.5118  0.4358 -0.4254
    3FTM    C1228040  -0.098   6.983   6.764  0.0339 -0.0974  0.5710
    4TPM     C128041   0.136   6.491   5.943  0.2467 -0.6268  0.0581
    4TPM     C228042   0.198   6.470   5.824  0.1429 -0.9420  0.0558
    4TPM     C328043   0.108   6.460   5.712  0.0783 -0.5636  0.0695
    4TPM     C428044  -0.023   6.472   5.746  0.1328  0.0402  0.0819
    4TPM     S128045  -0.043   6.498   5.924  0.2709  0.1785  0.0775
    5BDD     C128046  -0.236   6.488   5.419  0.0262 -0.3491  0.1177
    5BDD     C228047  -0.325   6.451   5.516 -0.0343 -0.2475  0.1006
    5BDD     C328048  -0.266   6.439   5.648 -0.1156 -0.1166  0.1493
    5BDD     C428049  -0.133   6.467   5.650 -0.1155 -0.1203  0.2029
    5BDD     S128050  -0.071   6.510   5.487 -0.0143 -0.2879  0.1960
    5BDD     C528051  -0.469   6.426   5.490 -0.0198 -0.2668  0.0387
    5BDD     C628052  -0.345   6.400   5.767 -0.1900  0.0076  0.1410
    5BDD     O128053  -0.294   6.389   5.881 -0.2599  0.1204  0.1831
    5BDD     O228054  -0.519   6.436   5.376  0.0501 -0.3797 -0.0033
    5BDD     C728055  -0.488   6.375   5.741 -0.1752 -0.0119  0.0793
    5BDD     C828056  -0.547   6.387   5.609 -0.0939 -0.1427  0.0304
    5BDD     C928057  -0.681   6.359   5.606 -0.0939 -0.1389 -0.0232
    5BDD     S228058  -0.743   6.316   5.769 -0.1951  0.0287 -0.0163
    5BDD    C1028059  -0.578   6.338   5.837 -0.2358  0.0899  0.0620
    5BDD    C1128060  -0.568   6.289   5.981  0.6242  0.0202 -0.2975
    5BDD    C1228061  -0.547   6.142   6.013  0.8087  0.2688 -0.1841
    5BDD    C1328062  -0.503   6.120   6.158  0.5352  0.2809 -0.0212
    5BDD    C1428063  -0.397   6.191   6.238  0.9372 -1.0439  0.5077
    5BDD    C1528064  -0.266   6.197   6.166  0.3854 -0.5253 -1.0078
    5BDD    C1628065  -0.155   6.238   6.256 -0.7895  0.2583  0.4954
    5BDD    C1728066  -0.661   6.048   5.965  0.3143  0.2534 -0.3931
    5BDD    C1828067  -0.633   5.896   5.979  0.2301  0.4928  0.1395
    5BDD    C1928068  -0.789   6.372   5.499 -0.0045  0.0949 -0.3198
    5BDD    C2028069  -0.823   6.507   5.444 -0.0841  0.6434  0.5647
    5BDD    C2128070  -0.868   6.609   5.541  0.0247  0.0239  0.5475
    5BDD    C2228071  -0.842   6.760   5.503  0.2411  0.4194  0.1701
    5BDD    C2328072  -0.697   6.792   5.482  0.0016 -0.8865 -0.6974
    5BDD    C2428073  -0.673   6.944   5.484 -0.9697 -0.0500 -0.1566
    5BDD    C2528074  -0.906   6.504   5.312  0.4684  0.5804  0.2167
    5BDD    C2628075  -0.841   6.420   5.203 -0.5587 -0.3722  0.4404
    6TPM     C128076  -0.233   6.508   5.272  0.1989  0.2210 -0.0276
    6TPM     C228077  -0.114   6.486   5.209  0.1042 -0.0010 -0.1297
    6TPM     C328078  -0.127   6.458   5.068 -0.0947 -0.3247 -0.0492
    6TPM     C428079  -0.256   6.459   5.024 -0.1519 -0.3493  0.1142
    6TPM     S128080  -0.372   6.495   5.157  0.0422  0.0372  0.1797
    7BDTP    C128081  -0.405   6.359   4.417 -0.0362 -0.2716  0.0020
    7BDTP    C228082  -0.533   6.357   4.480 -0.0350 -0.1055  0.0114
    7BDTP    C328083  -0.550   6.377   4.616 -0.0134  0.0635 -0.0104
    7BDTP    C428084  -0.436   6.401   4.695  0.0081  0.0690 -0.0429
    7BDTP    C528085  -0.308   6.403   4.632  0.0067 -0.0972 -0.0523
    7BDTP    C628086  -0.291   6.383   4.496 -0.0147 -0.2660 -0.0306
    7BDTP    C728087  -0.429   6.424   4.838  0.0328  0.2275 -0.0699
    7BDTP    C828088  -0.304   6.444   4.885  0.0496  0.1887 -0.0987
    7BDTP    S128089  -0.177   6.435   4.755  0.0367 -0.0536 -0.0958
    7BDTP    C928090  -0.412   6.336   4.275 -0.0608 -0.4299  0.0288
    7BDTP   C1028091  -0.537   6.316   4.227 -0.0777 -0.3915  0.0577
    7BDTP    S228092  -0.664   6.325   4.357 -0.0651 -0.1487  0.0549
    8FTM     S128093  -0.768   6.526   4.730 -0.2283 -0.0611 -0.1545
    8FTM     C128094  -0.915   6.431   4.771 -0.0991 -0.1835  0.0260
    8FTM     C228095  -0.896   6.299   4.742  0.0699 -0.2090  0.2508
    8FTM     C328096  -0.768   6.265   4.687  0.1090 -0.1363  0.2955
    8FTM     C428097  -0.687   6.374   4.674 -0.0354 -0.0526  0.0984
    8FTM     F128098  -0.992   6.202   4.764  0.1998 -0.2996  0.4295
    8FTM     C528099  -1.034   6.504   4.825  0.0191  0.3269 -0.2617
    8FTM     C628100  -1.147   6.553   4.731  0.1982 -0.0051 -0.3618
    8FTM     C728101  -1.100   6.658   4.632  0.8362 -0.1858 -0.0453
    8FTM     C828102  -1.083   6.796   4.686 -0.5570  0.0471  0.2116
    8FTM     C928103  -1.014   6.893   4.586 -0.5302  0.1364  0.1057
    8FTM    C1028104  -0.908   6.978   4.646  0.2620 -0.1275  0.1814
    8FTM    C1128105  -1.233   6.450   4.665 -0.3433 -0.0781  0.4974
    8FTM    C1228106  -1.294   6.345   4.763 -0.4794 -0.6259 -0.0131
    9FTM     S128107  -0.108   6.328   4.283  0.3209 -0.0210 -0.3070
    9FTM     C128108   0.050   6.414   4.288  0.3344 -0.0525 -0.1788
    9FTM     C228109   0.055   6.497   4.396  0.2172  0.0346 -0.2401
    9FTM     C328110  -0.061   6.498   4.479  0.1123  0.1290 -0.3868
    9FTM     C428111  -0.158   6.414   4.434  0.1506  0.1136 -0.4399
    9FTM     F128112   0.165   6.576   4.425  0.1976  0.0341 -0.1668
    9FTM     C528113   0.163   6.387   4.188 -0.0521  0.3784 -0.2795
    9FTM     C628114   0.169   6.470   4.058 -0.5852  0.6433  0.6104
    9FTM     C728115   0.047   6.459   3.968 -0.1805  0.2906 -0.3575
    9FTM     C828116   0.006   6.312   3.929 -0.1666 -0.0340  1.2327
    9FTM     C928117  -0.060   6.295   3.792  0.6673 -0.1955 -0.2117
    9FTM    C1028118  -0.180   6.197   3.785 -0.0271  0.1438 -0.1176
    9FTM    C1128119   0.210   6.615   4.077  0.3937 -0.0856  0.2457
    9FTM    C1228120   0.246   6.703   3.955  0.7297  0.2540 -0.0786
   10TPM     C128121  -0.581   6.293   4.091  0.2228 -0.1093  0.0993
   10TPM     C228122  -0.507   6.277   3.978  0.1183 -0.9667  0.1372
   10TPM     C328123  -0.585   6.270   3.857  0.0367 -1.3236  0.2095
   10TPM     C428124  -0.720   6.280   3.879  0.0790 -0.7381  0.2268
   10TPM     S128125  -0.757   6.300   4.054  0.2264  0.3173  0.1526
   11BDD     C128126  -1.051   6.222   3.683 -0.0358 -0.1497 -0.0264
   11BDD     C228127  -0.960   6.256   3.586 -0.0455 -0.0279  0.0077
   11BDD     C328128  -0.826   6.278   3.638 -0.0699  0.0437  0.0421
   11BDD     C428129  -0.817   6.260   3.773 -0.0790 -0.0246  0.0337
   11BDD     S128130  -0.975   6.215   3.845 -0.0575 -0.1831 -0.0178
   11BDD     C528131  -0.993   6.270   3.443 -0.0319  0.0272  0.0100
   11BDD     C628132  -0.713   6.316   3.551 -0.0834  0.1771  0.0821
   11BDD     O128133  -0.597   6.335   3.596 -0.1047  0.2388  0.1118
   11BDD     O228134  -1.109   6.252   3.398 -0.0110 -0.0345 -0.0197
   11BDD     C728135  -0.746   6.330   3.408 -0.0703  0.2322  0.0843
   11BDD     C828136  -0.880   6.308   3.356 -0.0458  0.1607  0.0499
   11BDD     C928137  -0.889   6.326   3.221 -0.0367  0.2290  0.0584
   11BDD     S228138  -0.731   6.372   3.149 -0.0583  0.3875  0.1098
   11BDD    C1028139  -0.655   6.364   3.312 -0.0796  0.3541  0.1185
   11BDD    C1128140  -0.508   6.407   3.319 -0.2130  0.7412  0.4658
   11BDD    C1228141  -0.410   6.337   3.215  0.2060  0.0914 -0.0328
   11BDD    C1328142  -0.404   6.188   3.238 -0.4667  0.7357 -0.2197
   11BDD    C1428143  -0.358   6.152   3.383  0.1356 -0.2673  0.4152
   11BDD    C1528144  -0.341   6.008   3.426 -0.3083  0.0864 -0.3339
   11BDD    C1628145  -0.460   5.918   3.386 -0.3516 -0.4537 -0.0098
   11BDD    C1728146  -0.276   6.400   3.204 -0.0453 -0.1955 -0.3155
   11BDD    C1828147  -0.263   6.550   3.165  0.4284  0.4151  0.3040
   11BDD    C1928148  -1.011   6.322   3.135 -0.4283  0.1115 -0.1542
   11BDD    C2028149  -1.016   6.228   3.014 -0.2720  0.3284 -0.0790
   11BDD    C2128150  -1.120   6.278   2.912  0.1460 -0.0479  0.5777
   11BDD    C2228151  -1.266   6.274   2.964  0.0349 -0.0783 -0.0627
   11BDD    C2328152  -1.365   6.338   2.863 -0.6381  0.2460 -1.0894
   11BDD    C2428153  -1.384   6.486   2.860  0.1366 -0.0859 -0.5343
   11BDD    C2528154  -1.006   6.077   3.048  0.0085  0.0632 -0.0208
   11BDD    C2628155  -1.005   5.971   2.938 -0.5176 -0.1657 -0.4077
   12TPM     C128156  -1.192   6.192   3.686 -0.0543  0.2364 -0.3745
   12TPM     C228157  -1.284   6.291   3.665 -0.2060  0.0683 -0.5094
   12TPM     C328158  -1.420   6.249   3.687 -0.1111  0.0027 -0.0318
   12TPM     C428159  -1.432   6.118   3.725  0.1132  0.1206  0.4674
   12TPM     S128160  -1.271   6.037   3.735  0.2224  0.3254  0.3721
   13BDTP    C128161  -1.978   5.804   3.771 -0.0342 -0.0919  0.1333
   13BDTP    C228162  -1.894   5.714   3.700  0.0174 -0.0316  0.1173
   13BDTP    C328163  -1.761   5.743   3.668 -0.0150  0.0713  0.0758
   13BDTP    C428164  -1.710   5.867   3.709 -0.1023  0.1167  0.0489
   13BDTP    C528165  -1.794   5.957   3.780 -0.1538  0.0564  0.0650
   13BDTP    C628166  -1.926   5.928   3.812 -0.1214 -0.0463  0.1065
   13BDTP    C728167  -1.576   5.919   3.688 -0.1499  0.2216  0.0048
   13BDTP    C828168  -1.556   6.043   3.740 -0.2339  0.2427 -0.0127
   13BDTP    S128169  -1.703   6.111   3.822 -0.2640  0.1326  0.0241
   13BDTP    C928170  -2.111   5.752   3.792  0.0135 -0.1967  0.1774
   13BDTP   C1028171  -2.131   5.628   3.740  0.0973 -0.2178  0.1950
   13BDTP    S228172  -1.984   5.560   3.658  0.1276 -0.1077  0.1582
   14FTM     S128173  -1.742   5.587   3.424  0.0766 -0.1242  0.0444
   14FTM     C128174  -1.603   5.474   3.415  0.3135  0.1542  0.1617
   14FTM     C228175  -1.528   5.483   3.528  0.3338  0.4724  0.1251
   14FTM     C328176  -1.574   5.576   3.627  0.1709  0.5181  0.0064
   14FTM     C428177  -1.687   5.641   3.587  0.0205  0.2252 -0.0497
   14FTM     F128178  -1.414   5.407   3.550  0.5014  0.7414  0.1968
   14FTM     C528179  -1.581   5.379   3.300  0.5509  0.3088 -0.1079
   14FTM     C628180  -1.696   5.274   3.279 -0.3185 -0.3143 -0.2479
   14FTM     C728181  -1.657   5.170   3.171  0.1948 -0.3893  0.1808
   14FTM     C828182  -1.522   5.112   3.163 -0.3877  0.5570  0.2801
   14FTM     C928183  -1.501   5.009   3.049  0.2102 -0.0967 -0.7328
   14FTM    C1028184  -1.360   4.960   3.049  0.4716 -0.9781 -0.6823
   14FTM    C1128185  -1.771   5.217   3.401  0.5533 -0.5570  0.3718
   14FTM    C1228186  -1.697   5.143   3.511  0.1313 -0.4928 -0.2711
   15FTM     S128187  -2.031   6.202   3.814  0.1970 -0.0200 -0.2772
   15FTM     C128188  -2.151   6.237   3.945  0.2473  0.2695 -0.3074
   15FTM     C228189  -2.172   6.126   4.019  0.3687  0.4671  0.0269
   15FTM     C328190  -2.099   6.009   3.981  0.4286  0.4065  0.3198
   15FTM     C428191  -2.018   6.032   3.873  0.3504  0.1545  0.2060
   15FTM     F128192  -2.260   6.122   4.127  0.4327  0.7143  0.0876
   15FTM     C528193  -2.210   6.373   3.962  0.8048 -0.1514 -0.3224
   15FTM     C628194  -2.354   6.391   3.901 -0.7024  0.6048 -0.0759
   15FTM     C728195  -2.399   6.540   3.905  0.0425 -0.2369 -0.1268
   15FTM     C828196  -2.471   6.589   4.027  0.1713  0.1230 -0.0691
   15FTM     C928197  -2.524   6.734   4.034  0.1371  0.2811 -0.0979
   15FTM    C1028198  -2.599   6.768   4.165  0.0841 -0.2182  0.2954
   15FTM    C1128199  -2.366   6.331   3.760 -0.4621  0.1228  0.5886
   15FTM    C1228200  -2.268   6.374   3.645  0.8801  0.2867 -0.0673
   16TPM     C128201  -2.259   5.561   3.731 -0.1472  0.2277 -0.3611
   16TPM     C228202  -2.377   5.578   3.796 -0.0918  0.0521 -0.2123
   16TPM     C328203  -2.481   5.489   3.751  0.1035 -0.4027  0.2225
   16TPM     C428204  -2.442   5.404   3.652  0.1972 -0.5739  0.4054
   16TPM     S128205  -2.269   5.430   3.607  0.0446 -0.1710  0.0398
   17BDD     C128206  -2.685   5.111   3.548 -0.0420  0.1137 -0.0162
   17BDD     C228207  -2.681   5.194   3.440 -0.0857  0.1414  0.0033
   17BDD     C328208  -2.596   5.310   3.460 -0.1460  0.1811  0.0302
   17BDD     C428209  -2.536   5.314   3.583 -0.1474  0.1830  0.0308
   17BDD     S128210  -2.583   5.172   3.682 -0.0733  0.1355 -0.0023
   17BDD     C528211  -2.755   5.170   3.314 -0.0736  0.1323 -0.0021
   17BDD     C628212  -2.576   5.413   3.356 -0.2002  0.2156  0.0544
   17BDD     O128213  -2.503   5.513   3.373 -0.2521  0.2499  0.0776
   17BDD     O228214  -2.828   5.070   3.297 -0.0215  0.0982 -0.0253
   17BDD     C728215  -2.650   5.389   3.230 -0.1880  0.2067  0.0490
   17BDD     C828216  -2.735   5.273   3.210 -0.1277  0.1670  0.0221
   17BDD     C928217  -2.795   5.270   3.087 -0.1262  0.1650  0.0214
   17BDD     S228218  -2.748   5.411   2.987 -0.2005  0.2125  0.0545
   17BDD    C1028219  -2.646   5.472   3.122 -0.2317  0.2344  0.0685
   17BDD    C1128220  -2.582   5.609   3.097 -0.0628 -0.2117 -0.1034
   17BDD    C1228221  -2.668   5.735   3.089  0.6139  0.6028  0.1211
   17BDD    C1328222  -2.602   5.855   3.033 -0.1332 -0.0311  0.4223
   17BDD    C1428223  -2.478   5.917   3.103  0.3177  0.3327  0.0704
   17BDD    C1528224  -2.454   6.061   3.065  0.8853  0.0771 -0.3401
   17BDD    C1628225  -2.331   6.106   3.144  0.3729 -0.3742 -0.4406
   17BDD    C1728226  -2.750   5.760   3.218  0.4368  0.1285 -0.0256
   17BDD    C1828227  -2.874   5.851   3.201  0.1455  0.4050  0.1014
   17BDD    C1928228  -2.893   5.175   3.018 -0.1921 -0.5309 -0.2101
   17BDD    C2028229  -3.044   5.225   3.014 -0.6546 -0.5680  0.2050
   17BDD    C2128230  -3.124   5.128   2.930 -0.0987  0.0124  0.8483
   17BDD    C2228231  -3.137   4.984   2.987  0.1071 -0.1506 -0.1778
   17BDD    C2328232  -3.257   4.899   2.944  0.0041 -0.1442 -0.0780
   17BDD    C2428233  -3.398   4.954   2.982 -0.3022 -0.1293  0.2355
   17BDD    C2528234  -3.100   5.261   3.150  0.3274 -0.2693  0.0883
   17BDD    C2628235  -3.219   5.356   3.155 -0.2827 -0.0466  1.2996
   18TPM     C128236  -2.759   4.987   3.587 -0.2023 -0.0129  0.1674
   18TPM     C228237  -2.695   4.874   3.628 -0.3221 -0.0530  0.2406
   18TPM     C328238  -2.782   4.759   3.640 -0.4340  0.0347  0.2700
   18TPM     C428239  -2.912   4.786   3.607 -0.3996  0.1417  0.2191
   18TPM     S128240  -2.935   4.958   3.558 -0.2217  0.1402  0.1295
   19BDTP    C128241  -3.420   4.412   3.607 -0.0454 -0.1202 -0.0727
   19BDTP    C228242  -3.335   4.353   3.704 -0.0542 -0.1138 -0.0611
   19BDTP    C328243  -3.209   4.403   3.734 -0.0741 -0.0862 -0.0222
   19BDTP    C428244  -3.165   4.516   3.665 -0.0858 -0.0638  0.0064
   19BDTP    C528245  -3.250   4.576   3.567 -0.0771 -0.0702 -0.0051
   19BDTP    C628246  -3.376   4.526   3.537 -0.0569 -0.0978 -0.0439
   19BDTP    C728247  -3.038   4.586   3.678 -0.1071 -0.0337  0.0484
   19BDTP    C828248  -3.024   4.693   3.597 -0.1142 -0.0174  0.0686
   19BDTP    S128249  -3.170   4.721   3.491 -0.0954 -0.0378  0.0374
   19BDTP    C928250  -3.547   4.343   3.593 -0.0243 -0.1502 -0.1146
   19BDTP   C1028251  -3.561   4.236   3.675 -0.0170 -0.1667 -0.1348
   19BDTP    S228252  -3.416   4.208   3.780 -0.0359 -0.1461 -0.1035
   20FTM     S128253  -3.076   4.167   3.809 -0.1778  0.0755  0.1718
   20FTM     C128254  -2.988   4.163   3.966 -0.0092  0.1729  0.0800
   20FTM     C228255  -3.000   4.283   4.029  0.1241  0.2375 -0.0173
   20FTM     C328256  -3.077   4.383   3.960  0.1038  0.2158 -0.0262
   20FTM     C428257  -3.125   4.338   3.841 -0.0500  0.1316  0.0673
   20FTM     F128258  -2.943   4.310   4.152  0.2725  0.3198 -0.1040
   20FTM     C528259  -2.898   4.047   4.000 -0.1661  0.5758  0.4709
   20FTM     C628260  -2.976   3.922   4.047  0.0869  0.2010 -0.1394
   20FTM     C728261  -2.899   3.788   4.038 -0.2167 -0.4582  0.0304
   20FTM     C828262  -2.872   3.741   3.891 -0.3364 -0.5385 -0.4216
   20FTM     C928263  -2.994   3.726   3.815  0.0482  0.3020 -0.2778
   20FTM    C1028264  -2.962   3.669   3.674  0.2718 -0.0492  0.0592
   20FTM    C1128265  -3.040   3.941   4.180  0.8625 -0.0409 -0.1653
   20FTM    C1228266  -3.147   3.841   4.218  0.8571 -0.5657 -0.1339
   21FTM     S128267  -3.609   4.675   3.456 -0.1762 -0.3169  0.1762
   21FTM     C128268  -3.642   4.675   3.279 -0.2118 -0.3952  0.1826
   21FTM     C228269  -3.543   4.609   3.213  0.0330  0.0029  0.1452
   21FTM     C328270  -3.438   4.555   3.295  0.2578  0.3834  0.1101
   21FTM     C428271  -3.457   4.581   3.427  0.1825  0.2737  0.1210
   21FTM     F128272  -3.541   4.593   3.076  0.0682  0.0460  0.1405
   21FTM     C528273  -3.760   4.747   3.219 -0.2564 -0.1446 -0.1083
   21FTM     C628274  -3.902   4.691   3.204 -0.6379 -0.0943 -0.2204
   21FTM     C728275  -3.976   4.621   3.329  0.3613  0.0511  0.1810
   21FTM     C828276  -3.933   4.485   3.388 -0.0916  0.4911 -0.0413
   21FTM     C928277  -3.901   4.377   3.280 -0.8036  0.2317  0.2836
   21FTM    C1028278  -4.016   4.310   3.214  0.1734  0.3252  0.0258
   21FTM    C1128279  -3.997   4.777   3.126 -0.1657  0.0466  0.4228
   21FTM    C1228280  -4.048   4.904   3.191  0.2552  0.2595  0.8857
   22TPM     C128281  -3.672   4.148   3.690 -0.0100  0.2084  0.3819
   22TPM     C228282  -3.681   4.026   3.749  0.0134  0.1494  0.2643
   22TPM     C328283  -3.812   3.967   3.744  0.1438 -0.1114 -0.2652
   22TPM     C428284  -3.904   4.046   3.680  0.2200 -0.2512 -0.5514
   22TPM     S128285  -3.831   4.200   3.622  0.1322 -0.0629 -0.1713
   23BDD     C128286  -4.234   3.976   3.485 -0.0433  0.0558  0.1608
   23BDD     C228287  -4.247   3.908   3.603  0.0056  0.0106  0.1400
   23BDD     C328288  -4.132   3.923   3.690  0.1470 -0.2196 -0.0039
   23BDD     C428289  -4.034   4.002   3.638  0.2040 -0.3465 -0.0906
   23BDD     S128290  -4.078   4.064   3.475  0.0844 -0.1867  0.0018
   23BDD     C528291  -4.365   3.827   3.639 -0.0756  0.1773  0.2515
   23BDD     C628292  -4.124   3.858   3.823  0.2208 -0.3053 -0.0501
   23BDD     O128293  -4.025   3.871   3.898  0.3425 -0.5037 -0.1742
   23BDD     O228294  -4.464   3.814   3.564 -0.1974  0.3759  0.3756
   23BDD     C728295  -4.242   3.777   3.859  0.1394 -0.1385  0.0614
   23BDD     C828296  -4.356   3.762   3.772 -0.0019  0.0917  0.2053
   23BDD     C928297  -4.455   3.682   3.824 -0.0588  0.2187  0.2920
   23BDD     S228298  -4.410   3.621   3.987  0.0608  0.0588  0.1995
   23BDD    C1028299  -4.254   3.709   3.977  0.1882 -0.1837  0.0405
   23BDD    C1128300  -4.166   3.688   4.095  0.4674  0.2263 -1.1289
   23BDD    C1228301  -4.199   3.759   4.233  0.0030  1.1852 -0.3385
   23BDD    C1328302  -4.239   3.903   4.235  0.0147 -0.3359 -0.4800
   23BDD    C1428303  -4.336   3.944   4.347  0.0424 -1.1570  0.1536
   23BDD    C1528304  -4.480   3.870   4.352 -0.2948 -0.0262 -0.3901
   23BDD    C1628305  -4.576   3.885   4.232  0.3857  0.1916 -0.5477
   23BDD    C1728306  -4.104   3.713   4.347  0.0153  0.6891 -0.7142
   23BDD    C1828307  -3.956   3.741   4.340  0.1301 -0.6266 -0.2472
   23BDD    C1928308  -4.583   3.630   3.766  0.6365 -0.4225 -0.3851
   23BDD    C2028309  -4.703   3.721   3.796 -0.7280  0.5048 -0.2727
   23BDD    C2128310  -4.815   3.667   3.711  0.0786 -0.1669  0.4915
   23BDD    C2228311  -4.926   3.765   3.678  0.4105  0.1836  0.1969
   23BDD    C2328312  -4.896   3.895   3.596  0.6553  0.5711  0.4130
   23BDD    C2428313  -4.963   4.018   3.659  0.1421  0.8285  0.2118
   23BDD    C2528314  -4.740   3.768   3.941 -0.3735  0.2116  0.3369
   23BDD    C2628315  -4.764   3.656   4.041  0.0035  0.1501  0.5057
   24TPM     C128316  -4.317   3.995   3.358  0.3252  0.1851 -0.1869
   24TPM     C228317  -4.263   3.984   3.233  0.1265  0.2311 -0.2786
   24TPM     C328318  -4.350   4.029   3.128 -0.1775 -0.0540 -0.1532
   24TPM     C428319  -4.471   4.074   3.172 -0.2108 -0.3173  0.0342
   24TPM     S128320  -4.484   4.064   3.351  0.1426 -0.2250  0.0671
   25BDTP    C128321  -4.880   4.388   2.802 -0.1699 -0.1148  0.0105
   25BDTP    C228322  -4.945   4.385   2.928 -0.1096 -0.0058  0.0442
   25BDTP    C328323  -4.890   4.324   3.040 -0.0676  0.0697  0.0651
   25BDTP    C428324  -4.764   4.262   3.026 -0.0851  0.0362  0.0523
   25BDTP    C528325  -4.699   4.265   2.900 -0.1453 -0.0726  0.0185
   25BDTP    C628326  -4.754   4.326   2.788 -0.1875 -0.1481 -0.0025
   25BDTP    C728327  -4.688   4.192   3.127 -0.0495  0.0997  0.0692
   25BDTP    C828328  -4.569   4.143   3.083 -0.0795  0.0446  0.0499
   25BDTP    S128329  -4.538   4.178   2.908 -0.1575 -0.0956  0.0077
   25BDTP    C928330  -4.956   4.458   2.700 -0.2058 -0.1781 -0.0064
   25BDTP   C1028331  -5.075   4.507   2.744 -0.1756 -0.1230  0.0128
   25BDTP    S228332  -5.106   4.472   2.920 -0.0978  0.0173  0.0549
   26FTM     S128333  -5.136   4.286   3.192  0.0648 -0.2585 -0.3403
   26FTM     C128334  -5.119   4.298   3.371 -0.2664  0.0699 -0.3269
   26FTM     C228335  -4.990   4.327   3.403 -0.3459  0.2273 -0.1436
   26FTM     C328336  -4.899   4.341   3.293 -0.1585  0.1056 -0.0061
   26FTM     C428337  -4.960   4.323   3.173  0.0717 -0.1539 -0.0863
   26FTM     F128338  -4.946   4.342   3.534 -0.5931  0.4915 -0.0899
   26FTM     C528339  -5.236   4.265   3.463 -0.0836 -0.0179 -0.7052
   26FTM     C628340  -5.384   4.278   3.430  0.1105  0.5400 -0.7865
   26FTM     C728341  -5.426   4.422   3.386  0.1611 -0.1458 -0.5555
   26FTM     C828342  -5.378   4.533   3.483  0.3323 -0.0601  0.2640
   26FTM     C928343  -5.410   4.672   3.428  0.1519  0.1285  0.2141
   26FTM    C1028344  -5.362   4.785   3.522  0.3842 -0.0498 -0.0632
   26FTM    C1128345  -5.445   4.161   3.356 -0.5225 -0.5588 -0.1958
   26FTM    C1228346  -5.591   4.164   3.327  0.9044 -0.2607 -0.4014
   27FTM     S128347  -4.548   4.463   2.656 -0.1295  0.2763  0.1822
   27FTM     C128348  -4.499   4.400   2.495  0.0839  0.2550  0.2543
   27FTM     C228349  -4.573   4.290   2.463  0.4510 -0.0323  0.3771
   27FTM     C328350  -4.670   4.249   2.561  0.5856 -0.2478  0.4216
   27FTM     C428351  -4.670   4.330   2.670  0.3125 -0.1218  0.3298
   27FTM     F128352  -4.557   4.220   2.344  0.6869 -0.1169  0.4566
   27FTM     C528353  -4.400   4.482   2.423  0.2782 -0.4691 -0.3248
   27FTM     C628354  -4.431   4.599   2.320 -0.1567  0.0620 -0.0713
   27FTM     C728355  -4.513   4.721   2.373 -0.3693  0.1896  0.0526
   27FTM     C828356  -4.474   4.788   2.506  0.0909  0.0897 -0.0024
   27FTM     C928357  -4.576   4.884   2.567 -0.0156  0.1722 -0.3618
   27FTM    C1028358  -4.690   4.820   2.639 -0.1406  0.7457  0.0734
   27FTM    C1128359  -4.484   4.557   2.181 -0.0626 -0.8343  0.5621
   27FTM    C1228360  -4.403   4.459   2.099  0.6438  0.1243  0.0645
   28TPM     C128361  -5.183   4.566   2.675 -0.4408  0.0356  0.0132
   28TPM     C228362  -5.311   4.584   2.718 -0.6338 -0.3777 -0.3690
   28TPM     C328363  -5.400   4.636   2.617 -0.4959 -0.6342 -0.6247
   28TPM     C428364  -5.339   4.658   2.497 -0.1979 -0.4164 -0.4375
   28TPM     S128365  -5.164   4.613   2.502 -0.0673  0.1338  0.0803
   29BDD     C128366  -5.433   4.873   2.178 -0.1545  0.0654 -0.0327
   29BDD     C228367  -5.538   4.788   2.199 -0.1307  0.0427 -0.0042
   29BDD     C328368  -5.521   4.703   2.315 -0.0075 -0.0678 -0.1022
   29BDD     C428369  -5.404   4.724   2.382  0.0606 -0.1279 -0.2039
   29BDD     S128370  -5.305   4.852   2.303 -0.0244 -0.0501 -0.1842
   29BDD     C528371  -5.658   4.783   2.113 -0.2202  0.1218  0.1141
   29BDD     C628372  -5.623   4.604   2.357  0.0378 -0.1100 -0.0912
   29BDD     O128373  -5.609   4.530   2.457  0.1442 -0.2052 -0.1757
   29BDD     O228374  -5.672   4.856   2.012 -0.3265  0.2171  0.1986
   29BDD     C728375  -5.743   4.598   2.270 -0.0516 -0.0309  0.0272
   29BDD     C828376  -5.759   4.683   2.154 -0.1747  0.0796  0.1252
   29BDD     C928377  -5.877   4.663   2.088 -0.2431  0.1397  0.2270
   29BDD     S228378  -5.975   4.535   2.166 -0.1579  0.0619  0.2072
   29BDD    C1028379  -5.848   4.514   2.291 -0.0278 -0.0535  0.0557
   29BDD    C1128380  -5.868   4.397   2.384  0.2834  0.0989  0.2631
   29BDD    C1228381  -5.955   4.414   2.516 -0.0700 -0.0125  0.1452
   29BDD    C1328382  -5.994   4.275   2.578 -0.0820 -0.2907  0.8064
   29BDD    C1428383  -5.893   4.171   2.634  0.3515 -1.0153 -0.3283
   29BDD    C1528384  -5.951   4.061   2.724 -0.5043  0.5068  0.0824
   29BDD    C1628385  -5.832   3.983   2.773 -0.0499  0.1424  0.3449
   29BDD    C1728386  -6.081   4.498   2.488  0.0257  0.5627  0.1601
   29BDD    C1828387  -6.176   4.525   2.606 -0.3099 -0.0312  0.1647
   29BDD    C1928388  -5.930   4.708   1.958 -0.7181  0.3728  0.2940
   29BDD    C2028389  -6.011   4.834   1.947  0.6110 -0.0503 -0.1807
   29BDD    C2128390  -6.154   4.819   1.999  0.4576 -0.4276 -0.1527
   29BDD    C2228391  -6.251   4.714   1.939  0.1969  0.5187 -0.0814
   29BDD    C2328392  -6.390   4.710   2.012 -0.2651 -0.8003  0.6619
   29BDD    C2428393  -6.499   4.644   1.930 -0.5254 -0.0601 -0.1667
   29BDD    C2528394  -6.003   4.891   1.810  0.6715 -0.3767  0.4599
   29BDD    C2628395  -5.873   4.949   1.753 -0.5732  0.4306 -0.3614
   30TPM     C128396  -5.395   4.984   2.077  0.2833 -0.1065  0.2011
   30TPM     C228397  -5.276   5.048   2.087  0.0792  0.3263 -0.0855
   30TPM     C328398  -5.258   5.153   1.990 -0.4443  0.2569 -0.2632
   30TPM     C428399  -5.364   5.168   1.905 -0.6395 -0.2287 -0.1120
   30TPM     S128400  -5.495   5.050   1.942 -0.1735 -0.6391  0.2694
   31BDTP    C128401  -5.427   5.626   1.479  0.1019 -0.2904  0.2569
   31BDTP    C228402  -5.549   5.554   1.468  0.1261 -0.3284  0.2383
   31BDTP    C328403  -5.577   5.442   1.545  0.1841 -0.3872  0.1739
   31BDTP    C428404  -5.480   5.399   1.637  0.2201 -0.4098  0.1256
   31BDTP    C528405  -5.357   5.471   1.648  0.1961 -0.3719  0.1443
   31BDTP    C628406  -5.330   5.583   1.571  0.1381 -0.3130  0.2086
   31BDTP    C728407  -5.486   5.286   1.728  0.2814 -0.4692  0.0559
   31BDTP    C828408  -5.376   5.270   1.805  0.3041 -0.4777  0.0218
   31BDTP    S128409  -5.249   5.396   1.774  0.2512 -0.4114  0.0731
   31BDTP    C928410  -5.420   5.739   1.389  0.0408 -0.2310  0.3265
   31BDTP   C1028411  -5.530   5.755   1.311  0.0180 -0.2227  0.3607
   31BDTP    S228412  -5.658   5.629   1.342  0.0709 -0.2890  0.3094
   32FTM     S128413  -5.866   5.486   1.575 -0.2629  0.1743 -0.1758
   32FTM     C128414  -5.967   5.345   1.526 -0.3521  0.2928 -0.3334
   32FTM     C228415  -5.887   5.240   1.492 -0.4250  0.1340 -0.0180
   32FTM     C328416  -5.745   5.263   1.503 -0.4161 -0.0843  0.3564
   32FTM     C428417  -5.717   5.389   1.546 -0.3337 -0.0930  0.3267
   32FTM     F128418  -5.936   5.118   1.450 -0.5040  0.1769 -0.0496
   32FTM     C528419  -6.120   5.366   1.512  0.5633  0.7081  0.6140
   32FTM     C628420  -6.221   5.263   1.434 -0.3674 -0.3647  0.0616
   32FTM     C728421  -6.212   5.268   1.282  0.0753 -0.4854 -0.3957
   32FTM     C828422  -6.260   5.395   1.213  0.9685 -0.6049 -0.4994
   32FTM     C928423  -6.218   5.392   1.067  0.0766 -0.1033 -0.6920
   32FTM    C1028424  -6.279   5.508   0.989 -0.0969  0.3181  0.2343
   32FTM    C1128425  -6.231   5.130   1.515  0.3317 -0.0834  0.2260
   32FTM    C1228426  -6.359   5.052   1.495  0.0960 -0.7992 -0.4887
   33FTM     S128427  -5.187   5.817   1.648 -0.0272  0.1545 -0.1805
   33FTM     C128428  -5.008   5.806   1.632 -0.0136  0.4089 -0.2088
   33FTM     C228429  -4.974   5.687   1.576  0.1658  0.3201  0.0900
   33FTM     C328430  -5.082   5.599   1.544  0.3003  0.0551  0.3528
   33FTM     C428431  -5.203   5.652   1.576  0.2215 -0.0629  0.2520
   33FTM     F128432  -4.842   5.650   1.552  0.2186  0.4734  0.1432
   33FTM     C528433  -4.931   5.928   1.673  0.2343  0.4336  0.1097
   33FTM     C628434  -4.901   5.971   1.814 -0.1380 -0.6705  0.2890
   33FTM     C728435  -4.854   5.849   1.900  0.7494  0.4470  0.6467
   33FTM     C828436  -4.929   5.822   2.034 -0.8781  0.2320  0.0531
   33FTM     C928437  -4.864   5.709   2.108  0.3066  0.4807  0.1625
   33FTM    C1028438  -4.952   5.677   2.231 -0.0695 -0.1093  0.2318
   33FTM    C1128439  -4.802   6.085   1.804 -0.0913 -0.2353 -0.0246
   33FTM    C1228440  -4.756   6.157   1.931  0.1444  0.2166 -0.1270
   34TPM     C128441  -5.549   5.859   1.219 -0.0541  0.0278 -0.1127
   34TPM     C228442  -5.659   5.862   1.138 -0.2260  0.1954  0.1241
   34TPM     C328443  -5.662   5.976   1.049 -0.2801  0.2382  0.1810
   34TPM     C428444  -5.555   6.059   1.063 -0.1496  0.1035 -0.0123
   34TPM     S128445  -5.441   6.000   1.189  0.0534 -0.0895 -0.2835
   35BDD     C128446  -5.509   6.442   0.983 -0.1582  0.2220 -0.0344
   35BDD     C228447  -5.575   6.391   0.875 -0.1819  0.1707  0.0047
   35BDD     C328448  -5.604   6.249   0.887 -0.0414  0.1427  0.0100
   35BDD     C428449  -5.559   6.194   1.004  0.0877  0.1730 -0.0251
   35BDD     S128450  -5.478   6.317   1.107  0.0421  0.2389 -0.0671
   35BDD     C528451  -5.615   6.470   0.757 -0.3350  0.1453  0.0385
   35BDD     C628452  -5.674   6.173   0.782 -0.0403  0.0868  0.0496
   35BDD     O128453  -5.699   6.050   0.792  0.0811  0.0627  0.0542
   35BDD     O228454  -5.591   6.592   0.746 -0.4561  0.1695  0.0340
   35BDD     C728455  -5.714   6.252   0.664 -0.1933  0.0615  0.0835
   35BDD     C828456  -5.686   6.394   0.651 -0.3338  0.0894  0.0782
   35BDD     C928457  -5.731   6.448   0.534 -0.4628  0.0591  0.1132
   35BDD     S228458  -5.812   6.326   0.431 -0.4173 -0.0067  0.1553
   35BDD    C1028459  -5.780   6.200   0.555 -0.2171  0.0103  0.1225
   35BDD    C1128460  -5.841   6.063   0.523 -0.2894  0.0193 -0.2296
   35BDD    C1228461  -5.755   5.957   0.451 -0.1012  0.1853 -0.0206
   35BDD    C1328462  -5.810   5.815   0.455  0.7573  0.2568  0.3638
   35BDD    C1428463  -5.943   5.773   0.388  0.4112  0.1658  0.1617
   35BDD    C1528464  -5.974   5.628   0.371  0.2671  0.0701 -0.3752
   35BDD    C1628465  -6.086   5.577   0.282 -0.2758 -0.3305 -0.5843
   35BDD    C1728466  -5.650   5.997   0.342 -0.0715  0.1565 -0.5749
   35BDD    C1828467  -5.514   5.931   0.343  0.8538  0.6974 -0.2301
   35BDD    C1928468  -5.718   6.583   0.473 -0.0381 -0.1600  0.2813
   35BDD    C2028469  -5.840   6.681   0.472 -0.6194 -0.0348  0.4449
   35BDD    C2128470  -5.807   6.805   0.388 -0.0125  0.1699  0.5496
   35BDD    C2228471  -5.900   6.928   0.406 -0.0024  0.5968  0.7452
   35BDD    C2328472  -5.861   7.046   0.323 -0.1767  0.1808 -0.2759
   35BDD    C2428473  -5.956   7.157   0.335  0.0114  0.9294  0.0927
   35BDD    C2528474  -5.985   6.620   0.463  0.5644  0.4402 -0.1281
   35BDD    C2628475  -6.033   6.580   0.321  0.2535  0.0738  0.5856
   36TPM     C128476  -5.466   6.573   1.023  0.5297  0.2125 -0.5107
   36TPM     C228477  -5.536   6.688   1.004  0.5264  0.1938 -0.6120
   36TPM     C328478  -5.485   6.801   1.078  0.0678  0.0786 -0.1072
   36TPM     C428479  -5.376   6.772   1.153 -0.2785  0.0094  0.3790
   36TPM     S128480  -5.328   6.598   1.137 -0.0506  0.0853  0.2359
   37BDTP    C128481  -5.009   7.097   1.546 -0.0756  0.1898 -0.0750
   37BDTP    C228482  -5.060   7.199   1.461 -0.1808  0.1016 -0.1167
   37BDTP    C328483  -5.149   7.172   1.358 -0.1823 -0.0272 -0.0825
   37BDTP    C428484  -5.189   7.039   1.337 -0.0750 -0.0715 -0.0032
   37BDTP    C528485  -5.137   6.937   1.422  0.0302  0.0166  0.0385
   37BDTP    C628486  -5.048   6.964   1.526  0.0316  0.1455  0.0043
   37BDTP    C728487  -5.279   6.987   1.237 -0.0548 -0.2005  0.0448
   37BDTP    C828488  -5.298   6.853   1.242  0.0590 -0.2133  0.1196
   37BDTP    S128489  -5.203   6.774   1.376  0.1566 -0.0639  0.1397
   37BDTP    C928490  -4.918   7.149   1.647 -0.0958  0.3188 -0.1230
   37BDTP   C1028491  -4.900   7.283   1.641 -0.2097  0.3316 -0.1977
   37BDTP    S228492  -4.994   7.363   1.508 -0.3075  0.1820 -0.2179
   38FTM     S128493  -5.363   7.301   1.214 -0.1318  0.0530 -0.0755
   38FTM     C128494  -5.316   7.438   1.106 -0.0125  0.1852  0.1447
   38FTM     C228495  -5.182   7.461   1.118  0.0448 -0.0818  0.0327
   38FTM     C328496  -5.111   7.376   1.208  0.0002 -0.3977 -0.2249
   38FTM     C428497  -5.192   7.285   1.268 -0.0939 -0.3716 -0.3130
   38FTM     F128498  -5.117   7.561   1.047  0.1407 -0.0559  0.1569
   38FTM     C528499  -5.417   7.491   1.010  0.2902 -0.4512 -0.3650
   38FTM     C628500  -5.533   7.403   0.950 -0.6263 -0.0655  0.0683
   38FTM     C728501  -5.486   7.272   0.877  0.2566 -0.1485  0.6515
   38FTM     C828502  -5.579   7.147   0.886 -0.2031  0.3975 -0.2463
   38FTM     C928503  -5.712   7.157   0.806 -0.1068  1.0258  0.2120
   38FTM    C1028504  -5.774   7.016   0.802 -0.8896  0.9932 -0.2808
   38FTM    C1128505  -5.649   7.478   0.877  0.0660 -0.4672 -0.5323
   38FTM    C1228506  -5.719   7.591   0.962  0.3535 -0.2119  0.5322
   39FTM     S128507  -4.870   6.739   1.522  0.0336  0.0826  0.1434
   39FTM     C128508  -4.867   6.638   1.671 -0.2178 -0.0146  0.0829
   39FTM     C228509  -4.950   6.690   1.764 -0.1363  0.0998  0.0909
   39FTM     C328510  -5.019   6.810   1.727  0.1202  0.2662  0.1434
   39FTM     C428511  -4.988   6.850   1.601  0.2391  0.2797  0.1766
   39FTM     F128512  -4.968   6.633   1.890 -0.2892  0.0606  0.0512
   39FTM     C528513  -4.796   6.504   1.677  0.1872 -0.0238  0.6163
   39FTM     C628514  -4.779   6.419   1.552 -0.0324 -0.4284  0.1220
   39FTM     C728515  -4.912   6.371   1.489  0.0199  0.2101  0.5997
   39FTM     C828516  -5.011   6.291   1.584  0.0420 -0.2183  0.2979
   39FTM     C928517  -5.142   6.219   1.519 -0.5322  0.0025 -0.8026
   39FTM    C1028518  -5.107   6.123   1.410  0.0120  0.0133  0.0480
   39FTM    C1128519  -4.670   6.475   1.456  0.3406  0.8580 -0.2760
   39FTM    C1228520  -4.616   6.375   1.351  0.2745 -0.2267  0.2102
   40TPM     C128521  -4.805   7.366   1.710  0.4489  0.1824 -0.2195
   40TPM     C228522  -4.758   7.489   1.675  0.6300  0.1734 -0.0091
   40TPM     C328523  -4.668   7.546   1.773  0.4355  0.0309  0.2572
   40TPM     C428524  -4.647   7.467   1.882  0.1056 -0.0688  0.2498
   40TPM     S128525  -4.740   7.312   1.870  0.0148  0.0102 -0.0966
   41BDD     C128526  -4.315   7.444   2.100 -0.0179 -0.1417 -0.1411
   41BDD     C228527  -4.348   7.576   2.099  0.0228 -0.1310 -0.0776
   41BDD     C328528  -4.470   7.605   2.027  0.0350 -0.0577 -0.0696
   41BDD     C428529  -4.529   7.494   1.973  0.0034 -0.0133 -0.1272
   41BDD     S128530  -4.434   7.345   2.009 -0.0440 -0.0603 -0.1954
   41BDD     C528531  -4.268   7.682   2.165  0.0522 -0.1880 -0.0220
   41BDD     C628532  -4.525   7.742   2.014  0.0780 -0.0342 -0.0052
   41BDD     O128533  -4.631   7.766   1.951  0.0885  0.0290  0.0017
   41BDD     O228534  -4.163   7.657   2.228  0.0417 -0.2514 -0.0289
   41BDD     C728535  -4.445   7.847   2.080  0.1073 -0.0912  0.0505
   41BDD     C828536  -4.323   7.818   2.152  0.0950 -0.1645  0.0425
   41BDD     C928537  -4.265   7.930   2.206  0.1266 -0.2089  0.1000
   41BDD     S228538  -4.359   8.078   2.170  0.1740 -0.1618  0.1682
   41BDD    C1028539  -4.479   7.980   2.079  0.1481 -0.0806  0.1140
   41BDD    C1128540  -4.593   8.063   2.017 -0.5421  0.3637 -0.4920
   41BDD    C1228541  -4.568   8.133   1.882 -0.3072 -0.5688 -0.2484
   41BDD    C1328542  -4.687   8.218   1.835  0.1694 -0.3030 -0.5141
   41BDD    C1428543  -4.736   8.331   1.921 -0.2972 -0.0516 -0.6922
   41BDD    C1528544  -4.857   8.401   1.854 -0.3580 -0.2701 -0.5572
   41BDD    C1628545  -4.901   8.525   1.931 -0.1274 -0.4251  0.3870
   41BDD    C1728546  -4.501   8.052   1.772 -0.1021  0.7149 -0.6985
   41BDD    C1828547  -4.472   8.100   1.626 -0.6488  0.1268 -0.2920
   41BDD    C1928548  -4.136   7.955   2.286 -0.2003  0.2211  0.6757
   41BDD    C2028549  -4.159   7.981   2.430  0.0937 -0.0484  0.5672
   41BDD    C2128550  -4.042   8.055   2.504  0.4603 -0.2245  0.1522
   41BDD    C2228551  -3.979   8.192   2.448 -0.0849  0.6996  0.0752
   41BDD    C2328552  -3.873   8.238   2.529 -1.0643  0.2010  0.7467
   41BDD    C2428553  -3.803   8.353   2.459 -0.9955 -0.4046 -0.5565
   41BDD    C2528554  -4.215   7.862   2.515 -0.0917 -0.2473 -0.1218
   41BDD    C2628555  -4.118   7.748   2.537 -0.1076 -0.3879 -0.7726
   42TPM     C128556  -4.202   7.359   2.150 -0.1297 -0.4015 -0.0497
   42TPM     C228557  -4.159   7.366   2.279 -0.0532 -0.3943 -0.0753
   42TPM     C328558  -4.072   7.258   2.317  0.1010 -0.3037 -0.1684
   42TPM     C428559  -4.049   7.168   2.216  0.1421 -0.2417 -0.2137
   42TPM     S128560  -4.135   7.215   2.065 -0.0123 -0.2934 -0.1419
   43BDTP    C128561  -3.682   6.658   2.283  0.1122  0.0515 -0.1853
   43BDTP    C228562  -3.742   6.634   2.155 -0.0442 -0.0168 -0.1003
   43BDTP    C328563  -3.832   6.722   2.098 -0.1657 -0.0802 -0.0073
   43BDTP    C428564  -3.866   6.839   2.169 -0.1316 -0.0764  0.0024
   43BDTP    C528565  -3.807   6.862   2.296  0.0247 -0.0081 -0.0826
   43BDTP    C628566  -3.716   6.774   2.354  0.1462  0.0554 -0.1755
   43BDTP    C728567  -3.957   6.944   2.129 -0.2379 -0.1347  0.0911
   43BDTP    C828568  -3.969   7.045   2.220 -0.1699 -0.1140  0.0768
   43BDTP    S128569  -3.866   7.019   2.368  0.0384 -0.0173 -0.0508
   43BDTP    C928570  -3.591   6.552   2.322  0.2184  0.1100 -0.2739
   43BDTP   C1028571  -3.579   6.452   2.232  0.1503  0.0892 -0.2596
   43BDTP    S228572  -3.682   6.477   2.084 -0.0581 -0.0075 -0.1321
   44FTM     S128573  -3.797   6.649   1.816 -0.0530 -0.0075  0.0768
   44FTM     C128574  -3.949   6.625   1.722 -0.3279  0.1131  0.4884
   44FTM     C228575  -4.057   6.651   1.801 -0.0926  0.2688  0.7610
   44FTM     C328576  -4.028   6.690   1.936  0.3065  0.3029  0.6687
   44FTM     C428577  -3.894   6.694   1.961  0.3787  0.1690  0.3138
   44FTM     F128578  -4.188   6.641   1.757 -0.2244  0.3893  1.1103
   44FTM     C528579  -3.942   6.603   1.570 -0.5424  0.3551 -0.3364
   44FTM     C628580  -3.942   6.710   1.464  0.4251  0.2822  0.5433
   44FTM     C728581  -3.798   6.779   1.444  0.5274 -0.3552  0.5652
   44FTM     C828582  -3.698   6.689   1.376 -0.5069  0.1369 -0.2893
   44FTM     C928583  -3.567   6.755   1.358 -0.1940 -0.6259 -0.7427
   44FTM    C1028584  -3.479   6.683   1.257  0.3522  0.3821 -0.2929
   44FTM    C1128585  -4.069   6.801   1.453 -0.9617 -0.1187 -0.0976
   44FTM    C1228586  -4.088   6.909   1.559 -0.0936 -0.2029 -1.1487
   45FTM     S128587  -3.596   6.974   2.533 -0.3133  0.1788  0.1461
   45FTM     C128588  -3.558   6.916   2.699 -0.1707 -0.0111  0.0469
   45FTM     C228589  -3.592   6.785   2.711  0.1326 -0.1122 -0.1704
   45FTM     C328590  -3.648   6.723   2.595  0.2689 -0.0495 -0.2707
   45FTM     C428591  -3.658   6.810   2.490  0.0637  0.1044 -0.1252
   45FTM     F128592  -3.574   6.713   2.828  0.3046 -0.2674 -0.2915
   45FTM     C528593  -3.473   6.999   2.788 -1.1301  0.0369  0.0118
   45FTM     C628594  -3.501   7.147   2.808 -0.5514 -0.1713  0.4751
   45FTM     C728595  -3.452   7.231   2.691 -0.0029 -0.8291  1.0507
   45FTM     C828596  -3.298   7.260   2.691 -0.2004  0.6208  0.3358
   45FTM     C928597  -3.245   7.360   2.585 -0.1189  0.3600 -0.6925
   45FTM    C1028598  -3.320   7.495   2.595 -0.3792 -0.4121 -0.0846
   45FTM    C1128599  -3.635   7.166   2.878  0.0232 -0.1724  0.0074
   45FTM    C1228600  -3.662   7.308   2.929  0.3411  0.5478 -0.6143
   46TPM     C128601  -3.491   6.338   2.231 -0.5639  0.3889  0.1495
   46TPM     C228602  -3.474   6.240   2.138 -0.6922  0.3016  0.2170
   46TPM     C328603  -3.381   6.137   2.178 -0.5305  0.4117  0.1305
   46TPM     C428604  -3.328   6.156   2.302 -0.2789  0.5832 -0.0029
   46TPM     S128605  -3.390   6.307   2.378 -0.2262  0.6190 -0.0298
   47BDD     C128606  -3.032   6.022   2.522 -0.1802 -0.1168  0.1900
   47BDD     C228607  -3.070   5.915   2.445 -0.1582 -0.0558  0.0924
   47BDD     C328608  -3.180   5.945   2.355  0.0354  0.0857 -0.0981
   47BDD     C428609  -3.224   6.074   2.364  0.1583  0.1303 -0.1430
   47BDD     S128610  -3.131   6.168   2.485  0.0398 -0.0014  0.0501
   47BDD     C528611  -3.007   5.782   2.453 -0.3142 -0.1251  0.1708
   47BDD     C628612  -3.237   5.844   2.264  0.0916  0.1714 -0.2286
   47BDD     O128613  -3.332   5.870   2.186  0.2586  0.2934 -0.3929
   47BDD     O228614  -2.913   5.756   2.531 -0.4812 -0.2471  0.3350
   47BDD     C728615  -3.175   5.711   2.271 -0.0646  0.1019 -0.1504
   47BDD     C828616  -3.065   5.681   2.362 -0.2582 -0.0395  0.0402
   47BDD     C928617  -3.021   5.552   2.353 -0.3809 -0.0840  0.0851
   47BDD     S228618  -3.114   5.458   2.232 -0.2624  0.0479 -0.1080
   47BDD    C1028619  -3.213   5.604   2.195 -0.0424  0.1632 -0.2479
   47BDD    C1128620  -3.308   5.586   2.082  0.4763  0.2474  0.4173
   47BDD    C1228621  -3.257   5.566   1.940  0.0667  0.1228  0.5346
   47BDD    C1328622  -3.346   5.614   1.825  0.4783 -0.1500 -0.0313
   47BDD    C1428623  -3.407   5.752   1.828  0.1709 -0.6531 -0.0463
   47BDD    C1528624  -3.318   5.876   1.834  0.0975 -0.6736  0.0649
   47BDD    C1628625  -3.402   6.004   1.841 -0.0145 -0.3952 -0.2163
   47BDD    C1728626  -3.192   5.435   1.901 -0.1096  0.2644 -0.7084
   47BDD    C1828627  -3.263   5.306   1.925  0.8573  0.3833 -0.6023
   47BDD    C1928628  -2.914   5.469   2.424 -0.2029 -0.0006 -0.3633
   47BDD    C2028629  -2.967   5.371   2.537 -0.1402 -0.0524  0.4585
   47BDD    C2128630  -3.061   5.437   2.637  0.1400 -0.5413 -0.1763
   47BDD    C2228631  -3.003   5.504   2.759 -0.6130 -0.7503  0.1977
   47BDD    C2328632  -3.110   5.566   2.847 -0.9797  0.6792  0.2195
   47BDD    C2428633  -3.046   5.656   2.953  0.1881 -0.0794  0.2679
   47BDD    C2528634  -2.864   5.277   2.604 -0.2902  0.0116  0.3874
   47BDD    C2628635  -2.778   5.183   2.514  0.6997 -0.7182 -0.1247
   48TPM     C128636  -2.922   6.051   2.615  0.0819  0.1860 -0.1693
   48TPM     C228637  -2.932   5.980   2.730  0.2811  0.1377 -0.1811
   48TPM     C328638  -2.875   6.046   2.845  0.2600  0.1969 -0.2050
   48TPM     C428639  -2.822   6.168   2.816  0.0446  0.2904 -0.2112
   48TPM     S128640  -2.839   6.209   2.642 -0.1499  0.3112 -0.1874
   49BDTP    C128641  -2.567   6.604   3.193 -0.0453 -0.0527 -0.1286
   49BDTP    C228642  -2.606   6.504   3.286  0.1086 -0.1211 -0.1372
   49BDTP    C328643  -2.670   6.387   3.248  0.1330 -0.1372 -0.1280
   49BDTP    C428644  -2.697   6.368   3.111 -0.0004 -0.0838 -0.1096
   49BDTP    C528645  -2.658   6.468   3.018 -0.1543 -0.0155 -0.1010
   49BDTP    C628646  -2.594   6.585   3.056 -0.1786  0.0009 -0.1101
   49BDTP    C728647  -2.762   6.254   3.048 -0.0046 -0.0882 -0.0974
   49BDTP    C828648  -2.774   6.265   2.914 -0.1521 -0.0272 -0.0803
   49BDTP    S128649  -2.704   6.419   2.848 -0.3065  0.0443 -0.0772
   49BDTP    C928650  -2.502   6.717   3.256 -0.0410 -0.0483 -0.1408
   49BDTP   C1028651  -2.490   6.707   3.390  0.1065 -0.1092 -0.1579
   49BDTP    S228652  -2.560   6.553   3.456  0.2611 -0.1806 -0.1610
   50FTM     S128653  -2.534   6.226   3.435 -0.0051  0.3016 -0.1535
   50FTM     C128654  -2.634   6.113   3.534  0.0822  0.0964 -0.2989
   50FTM     C228655  -2.764   6.121   3.497  0.0679  0.0817 -0.2531
   50FTM     C328656  -2.794   6.213   3.392 -0.0095  0.2258 -0.1057
   50FTM     C428657  -2.683   6.278   3.347 -0.0565  0.3549 -0.0364
   50FTM     F128658  -2.864   6.045   3.556  0.1247 -0.0631 -0.3418
   50FTM     C528659  -2.575   6.023   3.642  0.8077  0.3213  0.1471
   50FTM     C628660  -2.516   5.890   3.589  1.0443  0.2232  0.2154
   50FTM     C728661  -2.617   5.786   3.534 -0.0115  0.1965 -0.6869
   50FTM     C828662  -2.733   5.752   3.623 -0.4185  0.9260 -0.0019
   50FTM     C928663  -2.845   5.667   3.565  0.0241  0.3583 -0.0725
   50FTM    C1028664  -2.949   5.633   3.675 -0.2602  0.1833 -0.4308
   50FTM    C1128665  -2.399   5.894   3.496 -0.2792 -0.5318  0.5343
   50FTM    C1228666  -2.274   5.980   3.524 -0.5227  0.8200  0.1844
   51FTM     S128667  -2.599   6.859   2.974 -0.1836  0.1273  0.0118
   51FTM     C128668  -2.522   6.894   2.815 -0.6475  0.0349 -0.2374
   51FTM     C228669  -2.477   6.778   2.759 -0.6640  0.0218 -0.2233
   51FTM     C328670  -2.500   6.658   2.834 -0.3252  0.0812 -0.0228
   51FTM     C428671  -2.564   6.683   2.952 -0.0396  0.1420  0.1215
   51FTM     F128672  -2.413   6.774   2.636 -0.9872 -0.0447 -0.3913
   51FTM     C528673  -2.518   7.031   2.763  0.1845 -0.6636  0.7870
   51FTM     C628674  -2.424   7.138   2.825  0.0740  0.3069 -0.1017
   51FTM     C728675  -2.447   7.174   2.970 -0.3939 -0.8381 -0.4887
   51FTM     C828676  -2.565   7.263   2.999 -0.2116  0.0038  0.0456
   51FTM     C928677  -2.568   7.345   3.130 -0.4934 -0.2350  0.5273
   51FTM    C1028678  -2.546   7.270   3.261 -0.0360  0.0431  0.4810
   51FTM    C1128679  -2.275   7.136   2.799  0.5665  0.3539 -0.1358
   51FTM    C1228680  -2.218   7.134   2.661  0.3755 -0.2182 -0.2313
   52TPM     C128681  -2.439   6.794   3.486  0.5656 -0.0035 -0.4300
   52TPM     C228682  -2.359   6.760   3.591  0.7035 -0.2035 -0.5983
   52TPM     C328683  -2.319   6.873   3.672  0.5076 -0.4026 -0.2228
   52TPM     C428684  -2.369   6.992   3.629  0.2202 -0.3544  0.2318
   52TPM     S128685  -2.471   6.972   3.481  0.1745 -0.0513  0.2207
   53BDD     C128686  -2.243   7.365   3.660  0.0619  0.0444  0.0388
   53BDD     C228687  -2.244   7.317   3.788  0.0708 -0.0175  0.0157
   53BDD     C328688  -2.285   7.177   3.797  0.1500 -0.0447 -0.0567
   53BDD     C428689  -2.313   7.122   3.675  0.2001 -0.0033 -0.0877
   53BDD     S128690  -2.291   7.239   3.542  0.1520  0.0728 -0.0283
   53BDD     C528691  -2.209   7.397   3.907  0.0069 -0.0540  0.0591
   53BDD     C628692  -2.293   7.105   3.925  0.1727 -0.1112 -0.0926
   53BDD     O128693  -2.328   6.985   3.933  0.2410 -0.1348 -0.1550
   53BDD     O228694  -2.175   7.517   3.900 -0.0613 -0.0305  0.1216
   53BDD     C728695  -2.258   7.185   4.044  0.1088 -0.1477 -0.0490
   53BDD     C828696  -2.218   7.324   4.036  0.0298 -0.1204  0.0234
   53BDD     C928697  -2.190   7.380   4.157 -0.0204 -0.1621  0.0542
   53BDD     S228698  -2.211   7.263   4.291  0.0279 -0.2383 -0.0052
   53BDD    C1028699  -2.260   7.137   4.172  0.1179 -0.2098 -0.0722
   53BDD    C1128700  -2.291   6.997   4.235  0.7652 -0.1929  0.1608
   53BDD    C1228701  -2.176   6.905   4.261  0.0152 -0.2067 -0.3979
   53BDD    C1328702  -2.216   6.791   4.361 -0.0296 -0.4777  0.3938
   53BDD    C1428703  -2.101   6.704   4.414  0.2324 -0.2466  0.3465
   53BDD    C1528704  -2.146   6.609   4.520  0.1266  0.6875 -0.1577
   53BDD    C1628705  -2.027   6.542   4.600 -0.3621 -0.5338 -0.0914
   53BDD    C1728706  -2.062   6.883   4.158 -0.2299 -0.1754 -0.3976
   53BDD    C1828707  -2.086   6.789   4.039  0.5517  0.0670  0.0319
   53BDD    C1928708  -2.132   7.520   4.197  0.3935  0.3115 -0.0375
   53BDD    C2028709  -2.209   7.599   4.295  0.0871 -0.5565 -0.7981
   53BDD    C2128710  -2.117   7.714   4.345  0.1836  0.3089 -0.1644
   53BDD    C2228711  -2.165   7.833   4.434 -0.1142  0.5980  0.1816
   53BDD    C2328712  -2.221   7.801   4.572 -0.0140 -0.6622 -0.9427
   53BDD    C2428713  -2.241   7.916   4.673 -0.4707 -0.2928  0.2684
   53BDD    C2528714  -2.357   7.634   4.255 -0.0936  0.8842  0.4211
   53BDD    C2628715  -2.367   7.709   4.116 -0.0428  0.1910  0.4414
   54TPM     C128716  -2.201   7.487   3.600  0.1108  0.2023  0.3759
   54TPM     C228717  -2.097   7.481   3.511 -0.0175  0.0244  0.2372
   54TPM     C328718  -2.054   7.610   3.464 -0.0378 -0.0660 -0.0288
   54TPM     C428719  -2.124   7.714   3.516  0.0752  0.0427 -0.0929
   54TPM     S128720  -2.252   7.658   3.630  0.2169  0.2696  0.1798
   55BDTP    C128721  -1.981   8.318   3.427 -0.0952  0.0980  0.0477
   55BDTP    C228722  -2.108   8.326   3.490 -0.1308  0.0510 -0.0182
   55BDTP    C328723  -2.181   8.214   3.527 -0.1384  0.0234 -0.1160
   55BDTP    C428724  -2.125   8.088   3.501 -0.1099  0.0429 -0.1504
   55BDTP    C528725  -1.998   8.079   3.439 -0.0743  0.0901 -0.0845
   55BDTP    C628726  -1.925   8.192   3.401 -0.0665  0.1174  0.0132
   55BDTP    C728727  -2.182   7.957   3.531 -0.1113  0.0211 -0.2486
   55BDTP    C828728  -2.104   7.853   3.494 -0.0790  0.0494 -0.2592
   55BDTP    S128729  -1.948   7.905   3.416 -0.0420  0.1075 -0.1467
   55BDTP    C928730  -1.924   8.448   3.398 -0.0936  0.1199  0.1457
   55BDTP   C1028731  -2.002   8.553   3.435 -0.1261  0.0916  0.1565
   55BDTP    S228732  -2.158   8.501   3.512 -0.1630  0.0335  0.0439
   56FTM     S128733  -2.382   8.154   3.728  0.1079 -0.2917 -0.0825
   56FTM     C128734  -2.546   8.217   3.688  0.1281  0.1046  0.4349
   56FTM     C228735  -2.541   8.287   3.571  0.0290  0.5367  0.6874
   56FTM     C328736  -2.413   8.296   3.508 -0.0665  0.5841  0.4987
   56FTM     C428737  -2.316   8.230   3.578 -0.0396  0.1758  0.0881
   56FTM     F128738  -2.653   8.348   3.515  0.0187  0.9143  1.1045
   56FTM     C528739  -2.665   8.192   3.779  0.4042 -0.2117  0.0468
   56FTM     C628740  -2.769   8.083   3.757  0.8565  0.1757 -0.1576
   56FTM     C728741  -2.849   8.093   3.626 -0.3330 -0.4332 -0.4781
   56FTM     C828742  -2.977   8.174   3.636  0.2538 -0.1598 -0.1239
   56FTM     C928743  -3.066   8.141   3.754 -0.1225 -0.0954 -0.4753
   56FTM    C1028744  -3.187   8.233   3.766 -0.1764  0.1082  0.5040
   56FTM    C1128745  -2.728   7.938   3.778 -0.1685 -0.0188 -0.5290
   56FTM    C1228746  -2.668   7.918   3.921 -0.3453 -0.0955  0.6678
   57FTM     S128747  -1.741   8.259   3.192 -0.2056 -0.1574  0.3094
   57FTM     C128748  -1.573   8.197   3.207 -0.1552 -0.1133 -0.0500
   57FTM     C228749  -1.562   8.119   3.318  0.0505 -0.2799 -0.1848
   57FTM     C328750  -1.681   8.104   3.396  0.1780 -0.4482 -0.0208
   57FTM     C428751  -1.787   8.172   3.343  0.0668 -0.4089  0.2483
   57FTM     F128752  -1.444   8.057   3.356  0.1347 -0.2902 -0.4646
   57FTM     C528753  -1.470   8.228   3.103  0.3470  0.2292  0.4433
   57FTM     C628754  -1.363   8.333   3.143  0.0428 -0.1822  0.0410
   57FTM     C728755  -1.242   8.344   3.055 -0.5595  0.7752  0.5426
   57FTM     C828756  -1.194   8.208   2.998 -0.2980  0.7568 -0.3446
   57FTM     C928757  -1.145   8.095   3.098 -0.4781 -0.4261  0.6440
   57FTM    C1028758  -1.079   7.976   3.030  0.2687 -0.0687 -0.2768
   57FTM    C1128759  -1.430   8.470   3.166 -0.2197 -0.1076  0.3633
   57FTM    C1228760  -1.354   8.594   3.212 -0.5442  0.1436 -0.5318
   58TPM     C128761  -1.974   8.693   3.399  0.3153  0.0702 -0.2734
   58TPM     C228762  -1.872   8.740   3.321  0.2769  0.1993 -0.2459
   58TPM     C328763  -1.872   8.883   3.306  0.1869  0.2134 -0.1230
   58TPM     C428764  -1.973   8.945   3.372  0.1564  0.0942 -0.0568
   58TPM     S128765  -2.078   8.827   3.460  0.2397 -0.0459 -0.1452
   59BDD     C128766  -1.963   9.306   3.531  0.0571 -0.0613 -0.0464
   59BDD     C228767  -1.938   9.324   3.398  0.0573 -0.0300 -0.0421
   59BDD     C328768  -1.940   9.200   3.322  0.1867 -0.0286 -0.0485
   59BDD     C428769  -1.967   9.090   3.399  0.2831 -0.0590 -0.0575
   59BDD     S128770  -1.992   9.134   3.571  0.2185 -0.0911 -0.0586
   59BDD     C528771  -1.910   9.455   3.336 -0.0609  0.0000 -0.0321
   59BDD     C628772  -1.915   9.196   3.177  0.2103  0.0029 -0.0457
   59BDD     O128773  -1.917   9.089   3.111  0.3219  0.0041 -0.0512
   59BDD     O228774  -1.908   9.562   3.401 -0.1725 -0.0012 -0.0266
   59BDD     C728775  -1.887   9.327   3.114  0.0917  0.0327 -0.0356
   59BDD     C828776  -1.885   9.450   3.190 -0.0377  0.0312 -0.0292
   59BDD     C928777  -1.858   9.561   3.114 -0.1340  0.0620 -0.0202
   59BDD     S228778  -1.833   9.517   2.942 -0.0694  0.0941 -0.0191
   59BDD    C1028779  -1.862   9.344   2.981  0.0921  0.0644 -0.0315
   59BDD    C1128780  -1.879   9.248   2.863  0.6039 -0.2371  0.4954
   59BDD    C1228781  -1.758   9.177   2.799  0.7727 -0.8615 -0.7267
   59BDD    C1328782  -1.669   9.111   2.899 -0.3910  0.0742  0.6013
   59BDD    C1428783  -1.536   9.059   2.855 -0.9723 -0.6902  0.4910
   59BDD    C1528784  -1.460   8.977   2.962  0.8373 -0.5097 -0.2138
   59BDD    C1628785  -1.321   8.938   2.930 -0.4187 -0.2984  0.0488
   59BDD    C1728786  -1.799   9.102   2.673  0.4795  0.1038 -0.3865
   59BDD    C1828787  -1.900   8.989   2.694  0.2050  0.6550 -0.5826
   59BDD    C1928788  -1.814   9.697   3.165  0.4432 -0.1618 -0.1522
   59BDD    C2028789  -1.914   9.812   3.124 -0.5125  0.0123 -0.5939
   59BDD    C2128790  -2.059   9.797   3.182  0.0041 -0.4008 -0.3359
   59BDD    C2228791  -2.077   9.819   3.332  0.1403  0.1678 -0.3459
   59BDD    C2328792  -2.207   9.877   3.388  0.9629 -0.3947 -0.2175
   59BDD    C2428793  -2.204   9.901   3.536 -0.1166  0.6113  0.1516
   59BDD    C2528794  -1.846   9.951   3.152 -0.4829 -0.3190 -0.7514
   59BDD    C2628795  -1.714   9.993   3.097 -0.0762 -0.0789  0.4856
   60TPM     C128796  -1.972   9.386   3.653 -0.5082 -0.2695  0.2963
   60TPM     C228797  -2.024   9.512   3.657 -0.5118 -0.2735  0.3725
   60TPM     C328798  -2.033   9.567   3.790 -0.2332 -0.2375  0.3778
   60TPM     C428799  -1.988   9.482   3.887 -0.0172 -0.2064  0.3057
   60TPM     S128800  -1.930   9.326   3.818 -0.1500 -0.2200  0.2248
    1BDTP    C128801   4.034   9.404   7.329  0.2875  0.1857  0.0827
    1BDTP    C228802   4.033   9.526   7.403  0.2061  0.1965  0.0644
    1BDTP    C328803   4.002   9.649   7.345  0.0668  0.1583  0.0594
    1BDTP    C428804   3.969   9.651   7.208  0.0045  0.1070  0.0731
    1BDTP    C528805   3.970   9.529   7.135  0.0859  0.0961  0.0916
    1BDTP    C628806   4.002   9.407   7.192  0.2251  0.1346  0.0965
    1BDTP    C728807   3.933   9.765   7.127 -0.1380  0.0614  0.0713
    1BDTP    C828808   3.907   9.736   6.998 -0.1670  0.0169  0.0870
    1BDTP    S128809   3.925   9.558   6.960 -0.0181  0.0274  0.1067
    1BDTP    C928810   4.070   9.290   7.411  0.4300  0.2315  0.0848
    1BDTP   C1028811   4.096   9.320   7.540  0.4591  0.2759  0.0689
    1BDTP    S228812   4.079   9.497   7.577  0.3102  0.2652  0.0492
    2FTM     S128813   4.120   9.908   7.390  0.1939 -0.0128 -0.1626
    2FTM     C128814   4.047  10.007   7.521  0.4015 -0.2019  0.0977
    2FTM     C228815   3.949   9.937   7.584  0.4293 -0.2546  0.0823
    2FTM     C328816   3.925   9.805   7.536  0.2941 -0.1536 -0.1280
    2FTM     C428817   4.007   9.772   7.432  0.1583 -0.0192 -0.2783
    2FTM     F128818   3.876   9.989   7.690  0.5789 -0.3975  0.2574
    2FTM     C528819   4.096  10.150   7.541  0.8221  0.5291  0.3235
    2FTM     C628820   3.998  10.266   7.503 -0.1463  0.3607  0.2316
    2FTM     C728821   3.957  10.268   7.357  0.2473 -0.5381 -0.5565
    2FTM     C828822   4.062  10.291   7.252 -0.0249  0.7902  0.2377
    2FTM     C928823   3.996  10.336   7.118 -0.6878  0.0437 -0.8313
    2FTM    C1028824   4.087  10.366   7.000  0.5365 -0.2778  0.2712
    2FTM    C1128825   3.865  10.277   7.583  0.4296  0.6098 -0.0808
    2FTM    C1228826   3.880  10.336   7.725  0.0681 -0.2778  0.4074
    3FTM     S128827   4.111   9.161   7.089  0.0339 -0.5738  0.0371
    3FTM     C128828   3.984   9.041   7.042 -0.1758 -0.2391 -0.2592
    3FTM     C228829   3.861   9.099   7.047 -0.0370  0.0842 -0.5391
    3FTM     C328830   3.858   9.237   7.087  0.2344  0.0918 -0.5401
    3FTM     C428831   3.983   9.286   7.113  0.3057 -0.2366 -0.2516
    3FTM     F128832   3.745   9.032   7.016 -0.1475  0.3934 -0.8110
    3FTM     C528833   4.036   8.905   7.005 -0.1705  0.2564  0.4461
    3FTM     C628834   4.052   8.800   7.115 -0.2184  1.0398  0.2584
    3FTM     C728835   4.062   8.653   7.061  0.5037 -0.1864 -0.4955
    3FTM     C828836   3.939   8.596   6.985 -0.3844  0.3689 -0.2754
    3FTM     C928837   3.949   8.446   6.941  0.0863 -0.0443 -0.4747
    3FTM    C1028838   3.821   8.393   6.872 -0.8007  0.3046  0.3054
    3FTM    C1128839   4.158   8.834   7.225  0.3566 -0.5135  0.1073
    3FTM    C1228840   4.165   8.743   7.346  0.4609  1.0804  0.0388
    4TPM     C128841   4.119   9.221   7.641 -0.0220 -0.4619 -0.3739
    4TPM     C228842   4.154   9.252   7.769  0.2717 -0.3152 -0.4869
    4TPM     C328843   4.166   9.136   7.855  0.3737 -0.2105 -0.3586
    4TPM     C428844   4.140   9.018   7.792  0.1577 -0.2770 -0.1477
    4TPM     S128845   4.098   9.044   7.618 -0.1939 -0.4790 -0.0946
    5BDD     C128846   4.179   8.719   8.044 -0.0459  0.2256 -0.1213
    5BDD     C228847   4.069   8.687   7.970 -0.0577  0.1543 -0.0728
    5BDD     C328848   4.038   8.785   7.867 -0.1125  0.0889 -0.1189
    5BDD     C428849   4.124   8.891   7.865 -0.1417  0.1112 -0.2016
    5BDD     S128850   4.251   8.875   7.991 -0.1025  0.2158 -0.2278
    5BDD     C528851   3.989   8.564   7.990 -0.0190  0.1438  0.0172
    5BDD     C628852   3.923   8.770   7.775 -0.1339  0.0069 -0.0790
    5BDD     O128853   3.896   8.854   7.687 -0.1814 -0.0496 -0.1186
    5BDD     O228854   4.016   8.480   8.078  0.0284  0.2003  0.0575
    5BDD     C728855   3.843   8.647   7.795 -0.0954 -0.0036  0.0114
    5BDD     C828856   3.874   8.549   7.898 -0.0405  0.0618  0.0572
    5BDD     C928857   3.788   8.443   7.900 -0.0113  0.0393  0.1402
    5BDD     S228858   3.661   8.459   7.774 -0.0506 -0.0651  0.1665
    5BDD    C1028859   3.733   8.614   7.721 -0.1073 -0.0749  0.0600
    5BDD    C1128860   3.660   8.676   7.609 -0.3113 -0.6120 -0.0402
    5BDD    C1228861   3.717   8.633   7.467  0.4912  0.2771  0.1144
    5BDD    C1328862   3.679   8.491   7.422 -0.3611  0.6982  0.0277
    5BDD    C1428863   3.786   8.408   7.346 -0.2629 -0.0298 -0.4561
    5BDD    C1528864   3.921   8.397   7.413 -0.0088  0.6503  0.3116
    5BDD    C1628865   4.024   8.312   7.333  0.5298 -0.2464 -0.2659
    5BDD    C1728866   3.708   8.733   7.353 -0.0216 -0.4077 -0.1243
    5BDD    C1828867   3.784   8.868   7.367  0.1997  0.0208 -0.7141
    5BDD    C1928868   3.778   8.308   7.975 -0.0658 -0.4234 -0.3065
    5BDD    C2028869   3.886   8.203   7.933 -0.6337  0.8729 -0.6150
    5BDD    C2128870   3.875   8.153   7.781 -0.5428  0.2201 -0.2632
    5BDD    C2228871   3.753   8.096   7.721  0.3274 -0.3365 -0.0409
    5BDD    C2328872   3.770   8.032   7.581  0.5083 -0.0181 -0.4468
    5BDD    C2428873   3.853   7.906   7.557 -0.1024 -0.1169  0.2995
    5BDD    C2528874   3.879   8.076   8.018  0.0436 -0.6039  0.4888
    5BDD    C2628875   3.920   8.094   8.160  0.0414  0.9615 -0.2884
    6TPM     C128876   4.254   8.661   8.154  0.1033  0.2092  0.0080
    6TPM     C228877   4.282   8.527   8.156  0.3194  0.2489 -0.2792
    6TPM     C328878   4.385   8.491   8.250  0.5025  0.2363 -0.4833
    6TPM     C428879   4.436   8.597   8.319  0.4258  0.1869 -0.3520
    6TPM     S128880   4.356   8.752   8.271  0.1141  0.1523  0.0425
    7BDTP    C128881   4.894   8.671   8.746 -0.2121 -0.0460 -0.0460
    7BDTP    C228882   4.880   8.530   8.739 -0.2710 -0.0441  0.0312
    7BDTP    C328883   4.788   8.467   8.656 -0.3678 -0.0477  0.1411
    7BDTP    C428884   4.705   8.548   8.576 -0.4085 -0.0539  0.1767
    7BDTP    C528885   4.719   8.690   8.582 -0.3496 -0.0560  0.0994
    7BDTP    C628886   4.811   8.752   8.665 -0.2529 -0.0523 -0.0105
    7BDTP    C728887   4.603   8.506   8.482 -0.5068 -0.0586  0.2859
    7BDTP    C828888   4.540   8.608   8.419 -0.5244 -0.0639  0.2949
    7BDTP    S128889   4.602   8.772   8.469 -0.4189 -0.0639  0.1655
    7BDTP    C928890   4.996   8.713   8.839 -0.1138 -0.0412 -0.1554
    7BDTP   C1028891   5.059   8.611   8.902 -0.0961 -0.0358 -0.1640
    7BDTP    S228892   4.997   8.448   8.852 -0.2016 -0.0360 -0.0346
    8FTM     S128893   4.933   8.223   8.605 -0.1509  0.1798 -0.2817
    8FTM     C128894   4.837   8.070   8.603  0.1233  0.0108 -0.6436
    8FTM     C228895   4.706   8.097   8.629  0.0669 -0.2820 -0.6189
    8FTM     C328896   4.673   8.235   8.652 -0.1872 -0.3901 -0.3238
    8FTM     C428897   4.782   8.316   8.644 -0.3295 -0.1733 -0.1160
    8FTM     F128898   4.609   7.999   8.634  0.2416 -0.4691 -0.8614
    8FTM     C528899   4.903   7.946   8.565  0.0319  0.1888  0.7216
    8FTM     C628900   4.901   7.829   8.669  0.3363 -0.0804 -1.2569
    8FTM     C728901   4.931   7.854   8.824 -0.1865 -0.2372  0.7888
    8FTM     C828902   5.058   7.934   8.850  0.5718  0.2684 -0.3220
    8FTM     C928903   5.074   7.997   8.986  0.3503 -0.2685 -0.5418
    8FTM    C1028904   5.201   8.078   8.997 -0.6735 -0.2131 -0.3316
    8FTM    C1128905   4.776   7.743   8.649 -0.8676  0.5067  0.2170
    8FTM    C1228906   4.747   7.678   8.510  0.3175 -0.0171 -0.5721
    9FTM     S128907   4.851   9.003   8.798  0.3007 -0.1796  0.1586
    9FTM     C128908   4.899   9.139   8.690 -0.3432  0.0944  0.2096
    9FTM     C228909   4.897   9.098   8.560 -0.6746  0.2942  0.1464
    9FTM     C328910   4.860   8.961   8.538 -0.4535  0.2477  0.0565
    9FTM     C428911   4.832   8.896   8.654  0.0643  0.0043  0.0507
    9FTM     F128912   4.930   9.181   8.454 -1.1979  0.5310  0.1655
    9FTM     C528913   4.940   9.269   8.742  0.1106  0.5108 -0.2833
    9FTM     C628914   4.851   9.389   8.727  0.5450 -0.3888 -0.3143
    9FTM     C728915   4.703   9.377   8.780 -0.5265 -0.6419 -0.0902
    9FTM     C828916   4.684   9.318   8.920 -0.0905 -0.0707 -0.2841
    9FTM     C928917   4.536   9.328   8.952 -0.4558 -0.3202  0.1932
    9FTM    C1028918   4.517   9.284   9.091  0.1955 -0.3661  0.0125
    9FTM    C1128919   4.918   9.521   8.767  0.0995  0.1986  0.6504
    9FTM    C1228920   4.844   9.646   8.700 -0.5131 -0.2030  0.1513
   10TPM     C128921   5.168   8.612   9.000  0.1778 -0.0651  0.2108
   10TPM     C228922   5.279   8.691   9.006  0.3235 -0.2553  0.0927
   10TPM     C328923   5.380   8.643   9.096  0.3998 -0.5062 -0.1245
   10TPM     C428924   5.347   8.526   9.159  0.3119 -0.5071 -0.1723
   10TPM     S128925   5.184   8.468   9.108  0.1249 -0.1885  0.0558
   11BDD     C128926   5.535   8.216   9.314  0.1679  0.1415 -0.0847
   11BDD     C228927   5.593   8.325   9.373  0.1367  0.0875  0.0474
   11BDD     C328928   5.540   8.451   9.325  0.0527  0.1304  0.2494
   11BDD     C428929   5.443   8.437   9.230  0.0212  0.2176  0.2687
   11BDD     S128930   5.410   8.264   9.194  0.0944  0.2506  0.0350
   11BDD     C528931   5.699   8.317   9.476  0.1831 -0.0062 -0.0072
   11BDD     C628932   5.588   8.582   9.374  0.0070  0.0846  0.4163
   11BDD     O128933   5.543   8.691   9.333 -0.0654  0.1218  0.5906
   11BDD     O228934   5.744   8.208   9.518  0.2555 -0.0436 -0.1812
   11BDD     C728935   5.694   8.574   9.477  0.0533 -0.0088  0.3617
   11BDD     C828936   5.747   8.447   9.525  0.1372 -0.0520  0.1595
   11BDD     C928937   5.844   8.462   9.620  0.1690 -0.1385  0.1409
   11BDD     S228938   5.877   8.635   9.656  0.0959 -0.1719  0.3742
   11BDD    C1028939   5.752   8.683   9.536  0.0223 -0.0629  0.4940
   11BDD    C1128940   5.718   8.832   9.520 -0.2942  0.3321 -0.1179
   11BDD    C1228941   5.761   8.944   9.614 -0.4635  0.3214 -0.1897
   11BDD    C1328942   5.731   9.084   9.567  0.6104  0.1450  0.2258
   11BDD    C1428943   5.777   9.127   9.430 -0.2139 -0.2490  0.7629
   11BDD    C1528944   5.804   9.279   9.417  0.0243 -0.4946  0.1630
   11BDD    C1628945   5.695   9.380   9.453  0.0647 -0.3070 -0.2737
   11BDD    C1728946   5.738   8.923   9.765 -0.6221  0.2739 -0.6343
   11BDD    C1828947   5.815   9.008   9.869 -0.3758 -0.0054 -0.0959
   11BDD    C1928948   5.919   8.365   9.703 -0.9711 -0.5716 -0.1224
   11BDD    C2028949   5.867   8.334   9.842  0.1172  0.2323  0.9774
   11BDD    C2128950   5.933   8.219   9.919  0.0119  0.1950  0.4110
   11BDD    C2228951   5.974   8.084   9.852  0.0838 -0.1538  0.3542
   11BDD    C2328952   5.865   8.022   9.774 -0.3241  0.0949  0.4650
   11BDD    C2428953   5.918   7.914   9.681  0.2947 -0.1318  1.0380
   11BDD    C2528954   5.822   8.454   9.927 -0.0001 -0.0377 -0.4694
   11BDD    C2628955   5.741   8.415  10.050  0.5270 -0.2728  0.0550
   12TPM     C128956   5.575   8.076   9.304  0.0995  0.0706 -0.2132
   12TPM     C228957   5.596   8.018   9.183 -0.5076 -0.0331 -0.2766
   12TPM     C328958   5.617   7.876   9.190 -0.8062 -0.0805 -0.3021
   12TPM     C428959   5.612   7.825   9.316 -0.4268 -0.0131 -0.2574
   12TPM     S128960   5.580   7.955   9.438  0.3431  0.1167 -0.1796
   13BDTP    C128961   5.512   7.222   9.461 -0.0557  0.0323  0.1137
   13BDTP    C228962   5.570   7.274   9.581  0.0596  0.0267  0.0606
   13BDTP    C328963   5.613   7.406   9.592  0.1075  0.0151  0.0122
   13BDTP    C428964   5.598   7.490   9.480  0.0386  0.0091  0.0167
   13BDTP    C528965   5.540   7.438   9.361 -0.0768  0.0149  0.0703
   13BDTP    C628966   5.497   7.306   9.350 -0.1246  0.0264  0.1184
   13BDTP    C728967   5.635   7.630   9.468  0.0692 -0.0029 -0.0270
   13BDTP    C828968   5.608   7.684   9.347 -0.0167 -0.0062 -0.0095
   13BDTP    S128969   5.532   7.566   9.231 -0.1479  0.0051  0.0651
   13BDTP    C928970   5.475   7.082   9.473 -0.0861  0.0441  0.1576
   13BDTP   C1028971   5.502   7.028   9.594 -0.0006  0.0476  0.1402
   13BDTP    S228972   5.579   7.146   9.710  0.1310  0.0362  0.0655
   14FTM     S128973   5.652   7.618   9.786 -0.0570 -0.2677 -0.2149
   14FTM     C128974   5.780   7.590   9.910 -0.1225 -0.0791 -0.1042
   14FTM     C228975   5.838   7.468   9.890 -0.0122 -0.0476  0.0227
   14FTM     C328976   5.787   7.391   9.780  0.1266 -0.1655  0.0411
   14FTM     C428977   5.688   7.456   9.714  0.1223 -0.2911 -0.0754
   14FTM     F128978   5.940   7.420   9.971 -0.0302  0.0899  0.1297
   14FTM     C528979   5.805   7.693  10.017  0.2492  0.0340  0.8581
   14FTM     C628980   5.697   7.734  10.119  0.9460  0.2118 -0.0267
   14FTM     C728981   5.609   7.630  10.184  1.0604 -0.1848 -0.2700
   14FTM     C828982   5.669   7.522  10.282  0.1392  0.0583  0.4031
   14FTM     C928983   5.705   7.563  10.418 -0.0374  0.5653  0.1498
   14FTM    C1028984   5.596   7.547  10.524 -0.2968 -0.1826  0.2563
   14FTM    C1128985   5.732   7.862  10.201 -0.0440  0.8200  0.1247
   14FTM    C1228986   5.627   7.926  10.291  0.9886  0.4765  0.4303
   15FTM     S128987   5.299   7.324   9.146  0.1853 -0.1951 -0.0445
   15FTM     C128988   5.325   7.213   9.007  0.5073 -0.1315 -0.0375
   15FTM     C228989   5.433   7.133   9.031  0.5475 -0.0348  0.1061
   15FTM     C328990   5.500   7.154   9.155  0.3356 -0.0050  0.2172
   15FTM     C428991   5.442   7.252   9.230  0.1261 -0.0814  0.1560
   15FTM     F128992   5.477   7.037   8.941  0.7787  0.0323  0.1457
   15FTM     C528993   5.227   7.199   8.886 -0.1616  0.3529 -1.2031
   15FTM     C628994   5.237   7.284   8.763  0.1298 -0.5107 -0.2639
   15FTM     C728995   5.246   7.435   8.793  0.4745 -0.3282  0.9777
   15FTM     C828996   5.379   7.508   8.817 -0.1779 -0.4542 -0.0246
   15FTM     C928997   5.389   7.657   8.773 -0.5157  0.3087 -0.4543
   15FTM    C1028998   5.378   7.684   8.624  0.5183  0.5794  0.0590
   15FTM    C1128999   5.144   7.241   8.652  0.2414 -0.6992  0.4573
   15FTM    C1229000   4.999   7.264   8.674  0.1746 -0.0575 -0.0451
   16TPM     C129001   5.489   6.893   9.637  0.3318  0.5081  0.3050
   16TPM     C229002   5.391   6.804   9.604  0.0957  0.8018  0.2069
   16TPM     C329003   5.411   6.673   9.660 -0.2871  0.7062  0.1203
   16TPM     C429004   5.523   6.661   9.736 -0.3429  0.3394  0.1523
   16TPM     S129005   5.614   6.817   9.742  0.0871  0.0844  0.2954
   17BDD     C129006   5.761   6.380   9.873 -0.0890 -0.2457 -0.0026
   17BDD     C229007   5.637   6.322   9.871 -0.0629 -0.3009 -0.0128
   17BDD     C329008   5.533   6.409   9.819 -0.0732 -0.3949 -0.1518
   17BDD     C429009   5.579   6.533   9.782 -0.1068 -0.4101 -0.2455
   17BDD     S129010   5.756   6.548   9.810 -0.1280 -0.3077 -0.1663
   17BDD     C529011   5.610   6.184   9.916 -0.0277 -0.2692  0.1048
   17BDD     C629012   5.392   6.367   9.808 -0.0491 -0.4665 -0.1866
   17BDD     O129013   5.303   6.442   9.763 -0.0579 -0.5476 -0.3064
   17BDD     O229014   5.700   6.109   9.961 -0.0190 -0.1880  0.2247
   17BDD     C729015   5.365   6.229   9.853 -0.0139 -0.4349 -0.0689
   17BDD     C829016   5.469   6.142   9.905 -0.0038 -0.3408  0.0701
   17BDD     C929017   5.423   6.019   9.942  0.0300 -0.3256  0.1638
   17BDD     S229018   5.246   6.003   9.914  0.0513 -0.4280  0.0845
   17BDD    C1029019   5.241   6.171   9.851  0.0122 -0.4901 -0.0791
   17BDD    C1129020   5.105   6.219   9.810  0.3994 -0.6985  0.1312
   17BDD    C1229021   5.030   6.155   9.689 -0.6222  0.7423  0.2060
   17BDD    C1329022   5.092   6.169   9.550 -1.3274  0.0650 -0.4082
   17BDD    C1429023   5.100   6.294   9.474 -0.5110 -0.5746 -0.3967
   17BDD    C1529024   5.142   6.267   9.339 -0.2179  0.7295 -0.2636
   17BDD    C1629025   5.134   6.381   9.252 -0.3059  0.1351 -0.3147
   17BDD    C1729026   4.883   6.187   9.698  0.1819  0.2608  0.5102
   17BDD    C1829027   4.791   6.145   9.812  0.0866  0.2625  0.1231
   17BDD    C1929028   5.491   5.890   9.978 -0.8684 -0.5345  0.0056
   17BDD    C2029029   5.425   5.763   9.925 -0.6873 -0.0109  0.5182
   17BDD    C2129030   5.472   5.627   9.992 -0.6536  0.7014  0.2972
   17BDD    C2229031   5.387   5.497   9.967 -0.2653  0.2817  0.2604
   17BDD    C2329032   5.239   5.507  10.002 -0.2204 -0.0370  0.2545
   17BDD    C2429033   5.204   5.535  10.153  0.3760  0.5136 -0.3957
   17BDD    C2529034   5.397   5.751   9.767 -0.0498 -0.3874 -0.2109
   17BDD    C2629035   5.515   5.745   9.674 -0.5805  0.5580 -0.2990
   18TPM     C129036   5.898   6.345   9.920  0.2651 -0.0402 -0.2228
   18TPM     C229037   6.009   6.400   9.864  0.3597 -0.1627 -0.1592
   18TPM     C329038   6.133   6.344   9.911  0.2661 -0.4044 -0.1995
   18TPM     C429039   6.117   6.245  10.004  0.1005 -0.4660 -0.2938
   18TPM     S129040   5.942   6.216  10.039  0.0493 -0.2220 -0.3393
   19BDTP    C129041   6.601   6.068  10.367  0.1622 -0.2012  0.0880
   19BDTP    C229042   6.496   5.980  10.409  0.1734 -0.2711 -0.0287
   19BDTP    C329043   6.369   5.984  10.353  0.2030 -0.2846 -0.0973
   19BDTP    C429044   6.343   6.077  10.251  0.2224 -0.2266 -0.0488
   19BDTP    C529045   6.448   6.165  10.209  0.2111 -0.1568  0.0678
   19BDTP    C629046   6.575   6.162  10.265  0.1817 -0.1432  0.1365
   19BDTP    C729047   6.220   6.099  10.179  0.2537 -0.2274 -0.1031
   19BDTP    C829048   6.226   6.198  10.086  0.2666 -0.1624 -0.0336
   19BDTP    S129049   6.390   6.276  10.077  0.2406 -0.0908  0.1102
   19BDTP    C929050   6.725   6.046  10.439  0.1309 -0.2003  0.1422
   19BDTP   C1029051   6.718   5.948  10.532  0.1181 -0.2654  0.0728
   19BDTP    S229052   6.554   5.869  10.541  0.1441 -0.3368 -0.0711
   20FTM     S129053   6.087   5.936  10.418 -0.0338 -0.1266  0.1639
   20FTM     C129054   6.056   5.762  10.457  0.0037 -0.1968 -0.1170
   20FTM     C229055   6.174   5.694  10.462  0.0004 -0.2313 -0.4679
   20FTM     C329056   6.292   5.771  10.436 -0.0309 -0.2059 -0.5380
   20FTM     C429057   6.265   5.902  10.411 -0.0521 -0.1501 -0.2308
   20FTM     F129058   6.181   5.558  10.489  0.0254 -0.2880 -0.7464
   20FTM     C529059   5.920   5.703  10.491 -0.0057  0.4754 -0.2519
   20FTM     C629060   5.800   5.785  10.540 -0.6115 -0.6297 -0.1375
   20FTM     C729061   5.825   5.858  10.674 -0.4592  0.3056  0.0765
   20FTM     C829062   5.847   5.770  10.792  0.1517  0.2391 -0.1436
   20FTM     C929063   5.921   5.840  10.908  0.2490  0.4992  0.6340
   20FTM    C1029064   5.916   5.756  11.036 -0.4942  0.5067  0.6374
   20FTM    C1129065   5.755   5.897  10.442  0.0787 -0.7486 -0.7527
   20FTM    C1229066   5.689   5.857  10.313  0.3562  0.2315  0.2979
   21FTM     S129067   6.661   6.426  10.320  0.1331  0.2032  0.1185
   21FTM     C129068   6.789   6.498  10.215  0.1311 -0.1517 -0.1284
   21FTM     C229069   6.828   6.407  10.121 -0.2623 -0.2815 -0.1705
   21FTM     C329070   6.762   6.280  10.126 -0.5782 -0.1166 -0.0171
   21FTM     C429071   6.670   6.272  10.226 -0.4218  0.1478  0.1480
   21FTM     F129072   6.925   6.434  10.026 -0.3592 -0.5571 -0.3505
   21FTM     C529073   6.835   6.633  10.259 -0.4564  0.4278  0.7358
   21FTM     C629074   6.982   6.635  10.308  0.1366  0.4618  0.8649
   21FTM     C729075   7.015   6.562  10.441  0.4325  0.7208  0.4359
   21FTM     C829076   6.936   6.616  10.561 -0.4210 -0.2895  0.4220
   21FTM     C929077   6.966   6.546  10.697 -0.3041 -0.3575  0.1650
   21FTM    C1029078   6.880   6.597  10.809  0.4025  0.3377 -0.5720
   21FTM    C1129079   7.103   6.612  10.222 -0.0297 -0.1086 -0.0082
   21FTM    C1229080   7.140   6.694  10.101  0.4884  0.4953  0.5603
   22TPM     C129081   6.829   5.907  10.615  0.2869 -0.1389 -0.2319
   22TPM     C229082   6.871   5.781  10.646  0.6087 -0.1533 -0.7019
   22TPM     C329083   6.998   5.777  10.714  0.6697 -0.0900 -0.8118
   22TPM     C429084   7.053   5.899  10.734  0.3945 -0.0272 -0.4256
   22TPM     S129085   6.948   6.031  10.670  0.0340 -0.0435  0.1110
   23BDD     C129086   7.349   6.081  10.904 -0.1458 -0.0925 -0.0399
   23BDD     C229087   7.406   5.975  10.840 -0.1017 -0.1179  0.0400
   23BDD     C329088   7.309   5.888  10.775 -0.0724 -0.2592  0.1855
   23BDD     C429089   7.180   5.929  10.792 -0.0942 -0.3395  0.2143
   23BDD     S129090   7.170   6.080  10.889 -0.1534 -0.2438  0.0613
   23BDD     C529091   7.551   5.949  10.834 -0.0850 -0.0130 -0.0143
   23BDD     C629092   7.348   5.767  10.700 -0.0234 -0.3092  0.2906
   23BDD     O129093   7.264   5.692  10.644  0.0020 -0.4311  0.4161
   23BDD     O229094   7.635   6.024  10.890 -0.1104  0.1088 -0.1398
   23BDD     C729095   7.493   5.742  10.694 -0.0067 -0.2047  0.2363
   23BDD     C829096   7.590   5.829  10.759 -0.0360 -0.0633  0.0908
   23BDD     C929097   7.720   5.787  10.742 -0.0141  0.0170  0.0620
   23BDD     S229098   7.729   5.637  10.645  0.0450 -0.0786  0.2150
   23BDD    C1029099   7.550   5.636  10.630  0.0373 -0.2300  0.3162
   23BDD    C1129100   7.495   5.517  10.551 -0.8739  0.5915  0.0511
   23BDD    C1229101   7.441   5.541  10.408  0.0567  0.9698  0.1464
   23BDD    C1329102   7.526   5.622  10.306 -0.3249  0.2958 -0.4935
   23BDD    C1429103   7.670   5.571  10.262  0.7466 -0.1975 -0.1235
   23BDD    C1529104   7.756   5.658  10.170 -0.2369 -0.2363  0.4115
   23BDD    C1629105   7.861   5.554  10.116 -0.5267  0.1894  0.2888
   23BDD    C1729106   7.396   5.404  10.349  0.0016 -0.6673 -0.3775
   23BDD    C1829107   7.287   5.324  10.413  0.0842  0.3103  0.6651
   23BDD    C1929108   7.852   5.846  10.791  0.3142 -0.5539  0.2465
   23BDD    C2029109   7.949   5.910  10.690  0.8278 -0.2664  0.0247
   23BDD    C2129110   7.895   6.007  10.581  0.5154 -0.2830 -0.0642
   23BDD    C2229111   7.819   6.140  10.610 -0.3767 -0.5786 -0.7053
   23BDD    C2329112   7.906   6.245  10.690 -0.0082 -0.2821 -0.3383
   23BDD    C2429113   7.820   6.367  10.735 -0.7264 -0.3216 -0.0886
   23BDD    C2529114   8.041   5.794  10.649 -0.2190 -0.2120  0.2805
   23BDD    C2629115   8.160   5.821  10.555  0.0601 -0.1087 -0.5342
   24TPM     C129116   7.396   6.208  10.965 -0.0646  0.4121  0.0945
   24TPM     C229117   7.310   6.313  10.976 -0.0734  0.3998  0.1427
   24TPM     C329118   7.373   6.435  11.019 -0.0420  0.4413 -0.0190
   24TPM     C429119   7.507   6.423  11.041 -0.0092  0.4852 -0.1906
   24TPM     S129120   7.565   6.256  11.009 -0.0155  0.4774 -0.1611
   25BDTP    C129121   7.861   6.914  11.206 -0.1178 -0.1153 -0.0311
   25BDTP    C229122   7.957   6.815  11.172 -0.1094 -0.1339  0.0477
   25BDTP    C329123   7.922   6.688  11.129 -0.0987 -0.1583  0.1120
   25BDTP    C429124   7.785   6.657  11.120 -0.0964 -0.1647  0.0983
   25BDTP    C529125   7.689   6.756  11.154 -0.1049 -0.1460  0.0196
   25BDTP    C629126   7.724   6.883  11.196 -0.1153 -0.1217 -0.0448
   25BDTP    C729127   7.724   6.532  11.078 -0.0859 -0.1887  0.1555
   25BDTP    C829128   7.589   6.532  11.079 -0.0863 -0.1888  0.1239
   25BDTP    S129129   7.519   6.692  11.133 -0.0997 -0.1588  0.0173
   25BDTP    C929130   7.922   7.039  11.247 -0.1281 -0.0913 -0.0882
   25BDTP   C1029131   8.057   7.038  11.246 -0.1278 -0.0911 -0.0567
   25BDTP    S229132   8.127   6.879  11.192 -0.1144 -0.1211  0.0499
   26FTM     S129133   8.132   6.594  10.954  0.2082  0.0593  0.0552
   26FTM     C129134   8.223   6.454  11.021 -0.1083 -0.1407  0.0741
   26FTM     C229135   8.172   6.419  11.142 -0.2615 -0.0813  0.0263
   26FTM     C329136   8.061   6.497  11.188 -0.1452  0.1184 -0.0266
   26FTM     C429137   8.026   6.595  11.100  0.1053  0.2152 -0.0191
   26FTM     F129138   8.222   6.314  11.218 -0.5164 -0.2043  0.0276
   26FTM     C529139   8.342   6.388  10.955  0.5527 -0.2469  0.1393
   26FTM     C629140   8.444   6.480  10.880  0.6798 -0.5228 -0.7731
   26FTM     C729141   8.550   6.392  10.816  0.6737  0.4920  0.4287
   26FTM     C829142   8.665   6.457  10.737 -0.9435 -0.2218  1.0311
   26FTM     C929143   8.761   6.358  10.672 -0.3563  1.0561 -0.1231
   26FTM    C1029144   8.701   6.248  10.588  0.0543  0.4367  0.1920
   26FTM    C1129145   8.498   6.595  10.980  0.8028  0.5578  0.8479
   26FTM    C1229146   8.600   6.558  11.085 -0.1236  0.1261  0.0978
   27FTM     S129147   7.499   7.044  11.116  0.0043  0.2858  0.2218
   27FTM     C129148   7.424   7.145  11.245  0.0891  0.3905  0.1903
   27FTM     C229149   7.490   7.128  11.362 -0.0383  0.2276  0.2401
   27FTM     C329150   7.602   7.038  11.359 -0.2054  0.0165  0.3043
   27FTM     C429151   7.621   6.984  11.235 -0.2063  0.0180  0.3035
   27FTM     F129152   7.454   7.193  11.479 -0.0107  0.2596  0.2306
   27FTM     C529153   7.316   7.237  11.205 -0.0322  0.8196 -0.0177
   27FTM     C629154   7.171   7.190  11.230  0.1182  0.0805 -0.6792
   27FTM     C729155   7.131   7.157  11.371 -0.0359  0.2680 -0.3729
   27FTM     C829156   7.157   7.278  11.466 -0.5317 -0.0096  0.0016
   27FTM     C929157   7.158   7.262  11.615 -0.2435  0.1895 -0.2398
   27FTM    C1029158   7.213   7.388  11.655  0.0642 -0.7843 -0.2030
   27FTM    C1129159   7.117   7.100  11.124 -0.4647  1.4152 -0.0487
   27FTM    C1229160   7.109   7.141  10.975  0.6866  0.0605 -0.7441
   28TPM     C129161   8.152   7.145  11.278  0.0658  0.4291 -0.9895
   28TPM     C229162   8.155   7.267  11.218  0.5322  0.4742 -0.8834
   28TPM     C329163   8.286   7.326  11.214  0.6623  0.2381 -0.3142
   28TPM     C429164   8.383   7.250  11.272  0.2956  0.0127  0.0139
   28TPM     S129165   8.316   7.095  11.336 -0.2478  0.0819 -0.3738
   29BDD     C129166   8.729   7.181  11.099 -0.0194  0.0387  0.0264
   29BDD     C229167   8.723   7.317  11.118 -0.0689  0.0488 -0.0629
   29BDD     C329168   8.602   7.360  11.187 -0.1287  0.0601 -0.1740
   29BDD     C429169   8.518   7.257  11.220 -0.1244  0.0585 -0.1679
   29BDD     S129170   8.584   7.099  11.167 -0.0448  0.0426 -0.0225
   29BDD     C529171   8.827   7.411  11.073 -0.0625  0.0484 -0.0493
   29BDD     C629172   8.575   7.502  11.217 -0.1884  0.0722 -0.2824
   29BDD     O129173   8.471   7.540  11.277 -0.2398  0.0820 -0.3783
   29BDD     O229174   8.931   7.374  11.013 -0.0110  0.0386  0.0466
   29BDD     C729175   8.680   7.597  11.172 -0.1822  0.0716 -0.2688
   29BDD     C829176   8.800   7.553  11.103 -0.1223  0.0604 -0.1576
   29BDD     C929177   8.884   7.656  11.070 -0.1266  0.0622 -0.1638
   29BDD     S229178   8.818   7.814  11.123 -0.2059  0.0781 -0.3092
   29BDD    C1029179   8.673   7.732  11.191 -0.2313  0.0820 -0.3581
   29BDD    C1129180   8.585   7.828  11.254  0.6761 -0.1894  0.1362
   29BDD    C1229181   8.499   7.927  11.168 -0.0217 -0.1998  0.0902
   29BDD    C1329182   8.409   7.866  11.052 -0.5897 -0.2280  0.3624
   29BDD    C1429183   8.300   7.772  11.090 -0.2283  0.6811  0.1293
   29BDD    C1529184   8.221   7.719  10.976 -0.7562 -0.3702  0.0955
   29BDD    C1629185   8.119   7.619  11.013 -0.4681 -0.8304 -0.3613
   29BDD    C1729186   8.413   8.027  11.251 -0.0255 -0.4751  0.0895
   29BDD    C1829187   8.479   8.105  11.361 -0.2739 -0.0233  0.5377
   29BDD    C1929188   9.017   7.645  11.014 -0.2262 -0.0419 -0.6023
   29BDD    C2029189   9.050   7.722  10.888 -0.1724 -0.4730  0.4602
   29BDD    C2129190   9.198   7.687  10.846 -0.5500 -0.8382 -0.2668
   29BDD    C2229191   9.239   7.542  10.817  0.3295 -0.5412  0.7908
   29BDD    C2329192   9.377   7.526  10.758 -0.5991  0.1363 -0.1361
   29BDD    C2429193   9.415   7.382  10.748  0.0471  0.3869  0.2352
   29BDD    C2529194   8.940   7.719  10.775 -0.6524  0.1934 -0.1258
   29BDD    C2629195   8.907   7.586  10.706 -0.1059  0.5106  0.4106
   30TPM     C129196   8.823   7.081  11.041  0.0210 -0.0074 -0.0685
   30TPM     C229197   8.849   7.078  10.907 -0.5679 -0.3479 -0.1837
   30TPM     C329198   8.905   6.953  10.862 -0.8712 -0.5037 -0.1382
   30TPM     C429199   8.922   6.861  10.961 -0.5134 -0.2819  0.0116
   30TPM     S129200   8.868   6.925  11.121  0.2398  0.1442  0.1077
   31BDTP    C129201   9.177   6.295  10.891  0.0589 -0.0427 -0.1726
   31BDTP    C229202   9.083   6.274  10.996  0.1752 -0.0774 -0.0745
   31BDTP    C329203   8.999   6.374  11.043  0.2356 -0.0901  0.0598
   31BDTP    C429204   9.009   6.502  10.985  0.1786 -0.0674  0.0994
   31BDTP    C529205   9.103   6.523  10.880  0.0622 -0.0327  0.0013
   31BDTP    C629206   9.187   6.422  10.833  0.0017 -0.0199 -0.1329
   31BDTP    C729207   8.933   6.621  11.017  0.2230 -0.0745  0.2325
   31BDTP    C829208   8.966   6.729  10.942  0.1471 -0.0472  0.2390
   31BDTP    S129209   9.097   6.695  10.821  0.0079 -0.0085  0.0774
   31BDTP    C929210   9.253   6.176  10.859  0.0138 -0.0355 -0.3057
   31BDTP   C1029211   9.220   6.067  10.934  0.0901 -0.0628 -0.3121
   31BDTP    S229212   9.089   6.101  11.055  0.2295 -0.1016 -0.1506
   32FTM     S129213   8.759   6.225  11.136 -0.0549  0.2922 -0.1303
   32FTM     C129214   8.713   6.256  11.308  0.0508  0.0715 -0.0614
   32FTM     C229215   8.798   6.347  11.362  0.2053 -0.1451  0.0640
   32FTM     C329216   8.901   6.397  11.276  0.2499 -0.1525  0.1130
   32FTM     C429217   8.895   6.343  11.151  0.1253  0.0656  0.0221
   32FTM     F129218   8.788   6.391  11.493  0.3154 -0.3495  0.1419
   32FTM     C529219   8.603   6.172  11.360  0.6773  0.0942  0.1895
   32FTM     C629220   8.514   6.215  11.478  0.6042  0.1278  0.5238
   32FTM     C729221   8.411   6.112  11.530  0.2469  0.2191 -0.1643
   32FTM     C829222   8.457   5.968  11.573  0.5939 -0.3178  0.4129
   32FTM     C929223   8.572   5.963  11.672 -0.1730  0.3607  0.0748
   32FTM    C1029224   8.542   5.996  11.812  0.5073 -0.7419 -0.3527
   32FTM    C1129225   8.465   6.360  11.485 -0.2586 -0.5976 -0.7892
   32FTM    C1229226   8.421   6.412  11.622 -0.3734 -0.7139 -0.1923
   33FTM     S129227   9.456   6.417  10.723  0.3293 -0.1117 -0.3237
   33FTM     C129228   9.471   6.457  10.548 -0.1993 -0.3271 -0.4257
   33FTM     C229229   9.350   6.493  10.498 -0.3710 -0.4817 -0.1281
   33FTM     C329230   9.240   6.491  10.590 -0.1090 -0.4431  0.1896
   33FTM     C429231   9.279   6.453  10.715  0.2763 -0.2527  0.1335
   33FTM     F129232   9.332   6.529  10.365 -0.7765 -0.6673 -0.1258
   33FTM     C529233   9.602   6.442  10.476  0.3134 -0.2174  0.0755
   33FTM     C629234   9.713   6.551  10.503 -0.6103  0.6006  0.5845
   33FTM     C729235   9.676   6.695  10.476  0.0132  0.1428  0.0309
   33FTM     C829236   9.634   6.734  10.332  0.4621 -0.0527 -0.1485
   33FTM     C929237   9.603   6.883  10.294 -0.2638  0.1079 -0.1915
   33FTM    C1029238   9.586   6.910  10.140  0.0044  0.1152 -0.3299
   33FTM    C1129239   9.789   6.551  10.641  0.9156  0.7762  0.4763
   33FTM    C1229240   9.820   6.409  10.694 -0.1197 -0.5482 -0.3289
   34TPM     C129241   9.277   5.940  10.923  0.3851 -0.0658  0.5055
   34TPM     C229242   9.219   5.824  10.963  0.3726 -0.0829  0.4379
   34TPM     C329243   9.290   5.706  10.921  0.2615 -0.0708  0.2110
   34TPM     C429244   9.403   5.733  10.849  0.1886 -0.0449  0.1056
   34TPM     S129245   9.428   5.910  10.829  0.2559 -0.0333  0.2862
   35BDD     C129246   9.745   5.549  10.860  0.0914  0.0926 -0.0029
   35BDD     C229247   9.661   5.461  10.799  0.0866  0.0829  0.0179
   35BDD     C329248   9.524   5.507  10.791  0.0515  0.0062  0.1773
   35BDD     C429249   9.505   5.631  10.847  0.0301 -0.0412  0.2758
   35BDD     S129250   9.658   5.697  10.912  0.0523  0.0068  0.1757
   35BDD     C529251   9.704   5.330  10.745  0.1141  0.1435 -0.1081
   35BDD     C629252   9.416   5.427  10.729  0.0405 -0.0172  0.2263
   35BDD     O129253   9.297   5.467  10.722  0.0105 -0.0832  0.3638
   35BDD     O229254   9.822   5.290  10.751  0.1443  0.2097 -0.2456
   35BDD     C729255   9.459   5.297  10.675  0.0679  0.0436  0.1003
   35BDD     C829256   9.596   5.250  10.683  0.1031  0.1202 -0.0592
   35BDD     C929257   9.615   5.127  10.627  0.1246  0.1676 -0.1577
   35BDD     S229258   9.462   5.060  10.561  0.1026  0.1196 -0.0575
   35BDD    C1029259   9.375   5.208  10.614  0.0634  0.0336  0.1211
   35BDD    C1129260   9.221   5.208  10.588 -0.5822 -0.5120 -0.3229
   35BDD    C1229261   9.187   5.220  10.441 -0.7306  0.2223  0.7420
   35BDD    C1329262   9.202   5.363  10.383 -0.7190 -0.6407  0.3019
   35BDD    C1429263   9.136   5.494  10.435  0.9287  0.1463 -0.0330
   35BDD    C1529264   8.993   5.476  10.489 -0.3467 -0.0452 -0.9166
   35BDD    C1629265   8.951   5.596  10.577  0.2004  0.4611  0.3074
   35BDD    C1729266   9.055   5.153  10.411  0.0297  0.4682 -0.5719
   35BDD    C1829267   9.030   5.126  10.265  0.1138  0.1165  0.5009
   35BDD    C1929268   9.738   5.038  10.604 -0.0338  0.1945  0.2897
   35BDD    C2029269   9.844   5.087  10.497 -0.7012  0.8951 -0.9540
   35BDD    C2129270   9.970   4.999  10.486  0.3470 -0.8064  0.3765
   35BDD    C2229271  10.048   4.968  10.615  0.2323 -0.2942 -0.7716
   35BDD    C2329272  10.123   5.082  10.685 -0.0496  0.3701 -0.4739
   35BDD    C2429273  10.238   5.130  10.603 -0.0979 -0.5567  0.1345
   35BDD    C2529274   9.793   5.158  10.375  0.5564 -0.4772  0.3109
   35BDD    C2629275   9.881   5.223  10.269  0.1323 -0.2571  0.2664
   36TPM     C129276   9.888   5.559  10.899 -0.3254 -0.3726  0.1205
   36TPM     C229277   9.944   5.679  10.932 -0.3754 -0.2278 -0.3141
   36TPM     C329278  10.087   5.673  10.950 -0.2944  0.0163 -0.8369
   36TPM     C429279  10.140   5.549  10.931 -0.1826  0.0580 -0.8010
   36TPM     S129280  10.012   5.428  10.889 -0.1708 -0.2102 -0.0985
   37BDTP    C129281  10.761   5.427  10.962 -0.1070 -0.3111 -0.1566
   37BDTP    C229282  10.705   5.296  10.969 -0.1165 -0.3008 -0.0314
   37BDTP    C329283  10.568   5.273  10.964 -0.1207 -0.2923  0.0412
   37BDTP    C429284  10.482   5.384  10.952 -0.1152 -0.2937 -0.0121
   37BDTP    C529285  10.539   5.515  10.945 -0.1056 -0.3039 -0.1373
   37BDTP    C629286  10.675   5.538  10.950 -0.1014 -0.3126 -0.2098
   37BDTP    C729287  10.338   5.385  10.945 -0.1179 -0.2859  0.0448
   37BDTP    C829288  10.283   5.508  10.933 -0.1110 -0.2897 -0.0308
   37BDTP    S129289  10.408   5.641  10.930 -0.1000 -0.3039 -0.1844
   37BDTP    C929290  10.906   5.426  10.969 -0.1042 -0.3190 -0.2134
   37BDTP   C1029291  10.960   5.303  10.981 -0.1112 -0.3150 -0.1379
   37BDTP    S229292  10.836   5.170  10.984 -0.1222 -0.3010  0.0158
   38FTM     S129293  10.357   5.098  11.055  0.1786  0.0157  0.1757
   38FTM     C129294  10.354   4.932  10.984  0.0124  0.1747 -0.1974
   38FTM     C229295  10.459   4.916  10.900  0.0433  0.2306 -0.1699
   38FTM     C329296  10.547   5.028  10.885  0.1945  0.1552  0.1356
   38FTM     C429297  10.507   5.135  10.961  0.2822  0.0376  0.3490
   38FTM     F129298  10.483   4.798  10.831 -0.0635  0.3533 -0.4198
   38FTM     C529299  10.233   4.838  11.013 -0.9070 -0.0906 -0.2013
   38FTM     C629300  10.226   4.730  11.121  0.3071 -0.1852 -0.1052
   38FTM     C729301  10.314   4.607  11.114 -0.0709  0.4438 -0.4396
   38FTM     C829302  10.348   4.531  10.988 -0.3362 -0.4624  0.8004
   38FTM     C929303  10.234   4.465  10.915 -0.2332  0.1482  0.4466
   38FTM    C1029304  10.275   4.422  10.772  0.1882  0.0308 -0.0321
   38FTM    C1129305  10.215   4.780  11.267 -0.2052  0.4828  0.2688
   38FTM    C1229306  10.073   4.840  11.298 -1.1674 -0.1879 -0.0623
   39FTM     S129307  10.845   5.717  10.809 -0.0666  0.0162  0.1471
   39FTM     C129308  10.835   5.891  10.853 -0.4010  0.0337  0.0052
   39FTM     C229309  10.748   5.908  10.956 -0.3621 -0.0604  0.0536
   39FTM     C329310  10.686   5.790  11.007 -0.0769 -0.1497  0.2004
   39FTM     C429311  10.726   5.678  10.940  0.1088 -0.1231  0.2666
   39FTM     F129312  10.720   6.033  11.011 -0.5825 -0.0713 -0.0322
   39FTM     C529313  10.917   5.990  10.770 -0.1247 -0.3727 -0.1777
   39FTM     C629314  10.889   6.022  10.625 -0.4953  1.0392  0.5773
   39FTM     C729315  11.004   6.009  10.524  0.7688  0.9431  0.4882
   39FTM     C829316  11.092   5.886  10.513  0.0773  0.1459  0.3316
   39FTM     C929317  11.007   5.773  10.447  0.5029  0.5575 -0.3931
   39FTM    C1029318  11.082   5.645  10.435 -0.0414 -0.3933  0.3176
   39FTM    C1129319  10.784   6.125  10.577 -0.9316 -0.5031 -0.2823
   39FTM    C1229320  10.647   6.136  10.643 -0.8401 -1.0848  0.4092
   40TPM     C129321  11.095   5.278  11.033 -0.3986  0.0012  0.2222
   40TPM     C229322  11.206   5.348  10.997 -0.5236 -0.0119 -0.2100
   40TPM     C329323  11.321   5.319  11.079 -0.2035 -0.0345 -0.6599
   40TPM     C429324  11.298   5.227  11.177  0.1655 -0.0386 -0.5708
   40TPM     S129325  11.127   5.169  11.173  0.1371 -0.0140  0.0933
   41BDD     C129326  11.625   5.187  11.392 -0.1401  0.0916  0.0745
   41BDD     C229327  11.560   5.068  11.407 -0.1348  0.0880  0.0679
   41BDD     C329328  11.434   5.061  11.335 -0.1105  0.0681  0.0278
   41BDD     C429329  11.406   5.175  11.265 -0.0976  0.0571  0.0045
   41BDD     S129330  11.534   5.299  11.285 -0.1151  0.0706  0.0310
   41BDD     C529331  11.610   4.956  11.490 -0.1519  0.1024  0.0981
   41BDD     C629332  11.347   4.942  11.337 -0.1009  0.0608  0.0142
   41BDD     O129333  11.239   4.936  11.274 -0.0800  0.0436 -0.0203
   41BDD     O229334  11.719   4.962  11.552 -0.1729  0.1196  0.1327
   41BDD     C729335  11.398   4.830  11.419 -0.1180  0.0753  0.0445
   41BDD     C829336  11.524   4.837  11.492 -0.1423  0.0952  0.0845
   41BDD     C929337  11.552   4.723  11.562 -0.1552  0.1063  0.1078
   41BDD     S229338  11.424   4.599  11.542 -0.1378  0.0928  0.0813
   41BDD    C1029339  11.333   4.711  11.435 -0.1128  0.0716  0.0378
   41BDD    C1129340  11.199   4.655  11.396 -0.4028 -0.2100  0.5658
   41BDD    C1229341  11.115   4.592  11.514  0.0321  0.0981 -0.1283
   41BDD    C1329342  11.083   4.689  11.626 -0.0018  0.2479 -0.1369
   41BDD    C1429343  11.024   4.629  11.754  0.9168 -0.2926  0.0029
   41BDD    C1529344  11.006   4.723  11.870 -0.0988 -0.1340 -0.0482
   41BDD    C1629345  10.930   4.657  11.981  0.0325  0.7081 -0.3167
   41BDD    C1729346  10.977   4.538  11.469 -0.5777  0.9926 -0.0723
   41BDD    C1829347  10.966   4.402  11.400  0.6313  0.2170 -0.6955
   41BDD    C1929348  11.684   4.665  11.620  0.1611 -0.0355 -0.2908
   41BDD    C2029349  11.717   4.522  11.567 -0.7304 -0.6202 -0.6297
   41BDD    C2129350  11.773   4.513  11.418  0.7051 -0.0805 -0.1944
   41BDD    C2229351  11.910   4.580  11.383  0.2357 -1.3750  0.4105
   41BDD    C2329352  11.960   4.518  11.256  0.0840  0.5378 -0.0173
   41BDD    C2429353  12.089   4.584  11.199  1.0348 -0.2585  0.8955
   41BDD    C2529354  11.825   4.462  11.657  0.6715  0.2503  0.2871
   41BDD    C2629355  11.855   4.322  11.641 -0.3549  0.6627 -0.6181
   42TPM     C129356  11.767   5.235  11.418  0.0628  0.0879  0.0822
   42TPM     C229357  11.811   5.342  11.346  0.3220 -0.0348  0.0554
   42TPM     C329358  11.949   5.377  11.371  0.3321 -0.2027  0.2364
   42TPM     C429359  12.010   5.296  11.463  0.0806 -0.2080  0.4012
   42TPM     S129360  11.897   5.169  11.525 -0.1906  0.0003  0.3401
   43BDTP    C129361  12.583   5.447  11.676  0.0468  0.0319 -0.1149
   43BDTP    C229362  12.553   5.328  11.749 -0.0733  0.1168 -0.0273
   43BDTP    C329363  12.435   5.257  11.731 -0.0782  0.1389 -0.0806
   43BDTP    C429364  12.343   5.304  11.635  0.0406  0.0744 -0.2274
   43BDTP    C529365  12.374   5.422  11.562  0.1606 -0.0105 -0.3150
   43BDTP    C629366  12.491   5.494  11.580  0.1657 -0.0325 -0.2616
   43BDTP    C729367  12.215   5.246  11.598  0.0598  0.0819 -0.3067
   43BDTP    C829368  12.149   5.315  11.502  0.1870  0.0077 -0.4479
   43BDTP    S129369  12.240   5.462  11.445  0.3000 -0.0819 -0.5001
   43BDTP    C929370  12.711   5.504  11.713  0.0275  0.0244 -0.0355
   43BDTP   C1029371  12.777   5.435  11.809 -0.0995  0.0986  0.1055
   43BDTP    S229372  12.687   5.288  11.867 -0.2127  0.1882  0.1579
   44FTM     S129373  12.380   5.166  11.995 -0.2192 -0.0272  0.0388
   44FTM     C129374  12.338   4.992  12.014 -0.0212 -0.1025 -0.2021
   44FTM     C229375  12.343   4.929  11.893  0.0677  0.0662 -0.2859
   44FTM     C329376  12.379   5.011  11.782 -0.0107  0.2595 -0.1708
   44FTM     C429377  12.403   5.140  11.818 -0.1648  0.2384  0.0071
   44FTM     F129378  12.315   4.794  11.877  0.2255  0.0554 -0.4720
   44FTM     C529379  12.316   4.921  12.145 -0.3470 -0.0861  0.1166
   44FTM     C629380  12.262   4.995  12.266 -0.2923  0.3561 -0.5052
   44FTM     C729381  12.272   4.915  12.402 -0.3300  0.3695 -0.1154
   44FTM     C829382  12.417   4.892  12.451  0.4940 -0.4709 -0.4357
   44FTM     C929383  12.498   5.018  12.490  0.3667  0.2445  0.4488
   44FTM    C1029384  12.631   4.999  12.559  0.6256 -0.2471 -0.0258
   44FTM    C1129385  12.129   5.074  12.241 -0.1713 -0.3747 -0.4198
   44FTM    C1229386  12.089   5.173  12.356 -0.4375 -0.3562  0.0423
   45FTM     S129387  12.513   5.777  11.561 -0.1029  0.0204 -0.2949
   45FTM     C129388  12.568   5.843  11.402 -0.0474  0.2647 -0.1751
   45FTM     C229389  12.588   5.742  11.314  0.4506  0.3628 -0.1814
   45FTM     C329390  12.562   5.609  11.363  0.8107  0.2564 -0.2775
   45FTM     C429391  12.522   5.610  11.493  0.5810  0.0708 -0.3471
   45FTM     F129392  12.630   5.762  11.183  0.6099  0.5547 -0.1006
   45FTM     C529393  12.586   5.990  11.384 -0.4694 -0.2911 -0.1857
   45FTM     C629394  12.468   6.078  11.351  0.5250 -0.3935  0.4098
   45FTM     C729395  12.379   6.048  11.227 -0.5209  0.5726 -0.1646
   45FTM     C829396  12.460   6.048  11.100  0.3018  0.2431  0.7076
   45FTM     C929397  12.383   6.022  10.975 -0.7275  0.5287  0.2184
   45FTM    C1029398  12.484   6.006  10.858  0.1248 -0.5399  0.2328
   45FTM    C1129399  12.377   6.121  11.466  0.4278  0.4271  0.0326
   45FTM    C1229400  12.444   6.192  11.585 -0.1759  0.1059  0.2111
   46TPM     C129401  12.911   5.462  11.859 -0.1573 -0.0660 -0.3236
   46TPM     C229402  12.986   5.392  11.949 -0.0963 -0.1154 -0.4125
   46TPM     C329403  13.111   5.455  11.982 -0.0845 -0.1218 -0.4441
   46TPM     C429404  13.131   5.574  11.917 -0.1367 -0.0774 -0.3796
   46TPM     S129405  12.993   5.614  11.809 -0.2051 -0.0237 -0.2727
   47BDD     C129406  13.488   5.681  12.037 -0.1438  0.0782  0.0334
   47BDD     C229407  13.440   5.790  11.971 -0.1187  0.0941  0.0411
   47BDD     C329408  13.305   5.772  11.920 -0.1048  0.1111 -0.0023
   47BDD     C429409  13.253   5.649  11.949 -0.1195  0.1079 -0.0425
   47BDD     S129410  13.369   5.548  12.041 -0.1516  0.0834 -0.0287
   47BDD     C529411  13.515   5.916  11.951 -0.1067  0.0943  0.0887
   47BDD     C629412  13.233   5.877  11.845 -0.0776  0.1299 -0.0023
   47BDD     O129413  13.117   5.860  11.801 -0.0656  0.1446 -0.0398
   47BDD     O229414  13.632   5.932  11.995 -0.1186  0.0796  0.1261
   47BDD     C729415  13.309   6.002  11.825 -0.0654  0.1302  0.0452
   47BDD     C829416  13.443   6.021  11.876 -0.0794  0.1131  0.0886
   47BDD     C929417  13.496   6.144  11.847 -0.0647  0.1163  0.1287
   47BDD     S229418  13.380   6.245  11.755 -0.0326  0.1407  0.1151
   47BDD    C1029419  13.260   6.111  11.759 -0.0404  0.1460  0.0529
   47BDD    C1129420  13.122   6.147  11.706 -0.5197 -0.1829  0.5275
   47BDD    C1229421  13.020   6.213  11.798 -0.2192  0.6242 -0.2174
   47BDD    C1329422  13.073   6.331  11.876 -0.4096  0.1298 -0.5430
   47BDD    C1429423  12.991   6.373  12.004 -0.2163 -0.9847  0.5588
   47BDD    C1529424  13.043   6.500  12.073  0.6192  0.3935  0.1186
   47BDD    C1629425  12.960   6.524  12.193  0.3563 -0.3252  0.0529
   47BDD    C1729426  12.878   6.238  11.745  0.5067  0.7373 -0.0673
   47BDD    C1829427  12.807   6.108  11.709 -0.5523  0.5653 -0.4726
   47BDD    C1929428  13.629   6.215  11.875  0.5056  0.1500 -0.3681
   47BDD    C2029429  13.681   6.235  12.016 -0.7357 -0.6738  0.1497
   47BDD    C2129430  13.812   6.319  12.001  0.3003  0.7581  0.1030
   47BDD    C2229431  13.946   6.262  11.940  0.7938 -0.3436 -1.0185
   47BDD    C2329432  14.002   6.138  12.007 -0.2466 -0.0702  0.3716
   47BDD    C2429433  14.125   6.089  11.929  0.4362 -0.2956 -0.0003
   47BDD    C2529434  13.584   6.307  12.114 -0.8421  0.1989 -0.4593
   47BDD    C2629435  13.533   6.441  12.076 -0.3968 -0.9287 -0.7452
   48TPM     C129436  13.603   5.661  12.125  0.7398  0.5982 -0.0433
   48TPM     C229437  13.732   5.689  12.092  0.9129  0.1112  0.1934
   48TPM     C329438  13.829   5.634  12.183  0.5500 -0.4036  0.2775
   48TPM     C429439  13.774   5.564  12.286  0.1001 -0.3095  0.1050
   48TPM     S129440  13.594   5.562  12.276  0.1001  0.4427 -0.1792
   49BDTP    C129441  14.072   5.287  12.767  0.1100  0.2720 -0.0321
   49BDTP    C229442  13.935   5.257  12.794  0.1231  0.1554 -0.0938
   49BDTP    C329443  13.832   5.299  12.711  0.1186  0.1361 -0.0978
   49BDTP    C429444  13.864   5.373  12.596  0.1000  0.2362 -0.0381
   49BDTP    C529445  14.001   5.403  12.570  0.0868  0.3529  0.0235
   49BDTP    C629446  14.105   5.362  12.652  0.0915  0.3723  0.0275
   49BDTP    C729447  13.775   5.427  12.496  0.0920  0.2385 -0.0299
   49BDTP    C829448  13.837   5.495  12.397  0.0737  0.3496  0.0343
   49BDTP    S129449  14.017   5.500  12.416  0.0639  0.4673  0.0931
   49BDTP    C929450  14.162   5.234  12.867  0.1180  0.2700 -0.0404
   49BDTP   C1029451  14.100   5.166  12.967  0.1365  0.1588 -0.1045
   49BDTP    S229452  13.919   5.160  12.948  0.1461  0.0412 -0.1634
   50FTM     S129453  13.550   5.342  12.754 -0.0727  0.0112  0.1693
   50FTM     C129454  13.445   5.195  12.750 -0.3647  0.2243 -0.1833
   50FTM     C229455  13.522   5.084  12.730 -0.5940  0.1270 -0.5450
   50FTM     C329456  13.663   5.107  12.717 -0.5573 -0.1136 -0.5695
   50FTM     C429457  13.695   5.239  12.727 -0.2914 -0.2033 -0.2150
   50FTM     F129458  13.469   4.956  12.723 -0.8505  0.2497 -0.8754
   50FTM     C529459  13.305   5.202  12.793  0.0970 -0.3457  0.7114
   50FTM     C629460  13.197   5.214  12.681  0.5662  0.3791 -0.4137
   50FTM     C729461  13.200   5.334  12.583 -0.6473 -0.2206  0.2744
   50FTM     C829462  13.175   5.473  12.639  0.0241  0.0367 -0.7588
   50FTM     C929463  13.137   5.599  12.557  0.6019 -0.2597 -0.1383
   50FTM    C1029464  13.032   5.580  12.450 -0.1184 -0.5872  0.1363
   50FTM    C1129465  13.047   5.199  12.729 -0.3358  0.5265  0.3397
   50FTM    C1229466  13.001   5.067  12.791  0.1484 -0.3285  0.1944
   51FTM     S129467  14.290   5.575  12.626  0.0920  0.1070  0.0412
   51FTM     C129468  14.465   5.533  12.619  0.0462 -0.0434 -0.2062
   51FTM     C229469  14.481   5.398  12.624 -0.0709 -0.0669 -0.4188
   51FTM     C329470  14.361   5.321  12.635 -0.1308  0.0281 -0.4026
   51FTM     C429471  14.249   5.399  12.637 -0.0573  0.1277 -0.1701
   51FTM     F129472  14.605   5.336  12.620 -0.1310 -0.1760 -0.6406
   51FTM     C529473  14.573   5.641  12.618 -0.2631  0.7883 -0.8781
   51FTM     C629474  14.545   5.794  12.593 -0.7570  1.0178 -0.4803
   51FTM     C729475  14.506   5.817  12.449 -0.2736  0.4221  0.2572
   51FTM     C829476  14.357   5.829  12.412 -0.0740 -0.1321 -0.1068
   51FTM     C929477  14.338   5.853  12.260  0.4613  0.0489  0.4084
   51FTM    C1029478  14.186   5.835  12.227 -0.5936  0.8645  0.6820
   51FTM    C1129479  14.670   5.859  12.640  0.3487 -0.2441  0.4896
   51FTM    C1229480  14.676   6.014  12.627  0.4687 -0.2001  0.1255
   52TPM     C129481  14.167   5.105  13.079  0.0261  0.3433  0.3007
   52TPM     C229482  14.116   5.045  13.190  0.1307  0.7492  0.5731
   52TPM     C329483  14.215   5.003  13.285  0.2272  0.9906  0.5813
   52TPM     C429484  14.343   5.030  13.246  0.1963  0.7684  0.3151
   52TPM     S129485  14.348   5.113  13.085  0.0416  0.2334  0.0314
   53BDD     C129486  14.690   4.874  13.309 -0.0498 -0.0878  0.2026
   53BDD     C229487  14.628   4.868  13.431 -0.0143 -0.0932  0.2202
   53BDD     C329488  14.493   4.920  13.430 -0.0036 -0.0650  0.2689
   53BDD     C429489  14.453   4.966  13.307 -0.0313 -0.0382  0.2877
   53BDD     S129490  14.583   4.946  13.184 -0.0726 -0.0467  0.2457
   53BDD     C529491  14.692   4.813  13.553  0.0112 -0.1246  0.1931
   53BDD     C629492  14.408   4.924  13.551  0.0334 -0.0652  0.2952
   53BDD     O129493  14.292   4.969  13.550  0.0426 -0.0408  0.3371
   53BDD     O229494  14.809   4.768  13.553  0.0021 -0.1490  0.1510
   53BDD     C729495  14.472   4.869  13.672  0.0590 -0.0967  0.2679
   53BDD     C829496  14.607   4.817  13.673  0.0484 -0.1251  0.2191
   53BDD     C929497  14.647   4.771  13.796  0.0758 -0.1516  0.2004
   53BDD     S229498  14.517   4.791  13.919  0.1171 -0.1432  0.2424
   53BDD    C1029499  14.410   4.863  13.794  0.0943 -0.1022  0.2855
   53BDD    C1129500  14.279   4.917  13.840 -0.3091  0.2038 -0.2121
   53BDD    C1229501  14.153   4.837  13.833  0.0870  0.1679 -0.8663
   53BDD    C1329502  14.035   4.923  13.882  0.3114  0.2809 -0.1953
   53BDD    C1429503  13.972   5.035  13.784 -0.6381 -0.0350 -1.2258
   53BDD    C1529504  13.945   4.993  13.640 -0.6873  0.4375 -0.2427
   53BDD    C1629505  13.911   5.096  13.533  0.4816 -0.7663  0.0578
   53BDD    C1729506  14.172   4.696  13.898  0.3539  0.0595 -0.1732
   53BDD    C1829507  14.053   4.606  13.876  0.1504 -0.0599  0.0377
   53BDD    C1929508  14.783   4.709  13.842  0.1262 -0.4680 -0.3297
   53BDD    C2029509  14.808   4.566  13.797 -0.4713 -0.2143 -0.1499
   53BDD    C2129510  14.700   4.463  13.832 -0.3512 -0.0599  0.1261
   53BDD    C2229511  14.694   4.415  13.974  0.5588  0.5241 -0.2509
   53BDD    C2329512  14.575   4.316  13.989  0.0922  0.2359 -0.2752
   53BDD    C2429513  14.435   4.363  13.952  0.2497  0.0338  0.2796
   53BDD    C2529514  14.949   4.512  13.797  0.2600 -0.0014  0.3351
   53BDD    C2629515  15.046   4.587  13.709  0.1138 -0.7390 -0.1983
   54TPM     C129516  14.826   4.860  13.258  0.0926 -0.0225  0.0967
   54TPM     C229517  14.873   4.962  13.180  0.0842  0.1097  0.2621
   54TPM     C329518  15.016   4.967  13.171  0.0836  0.1286  0.2615
   54TPM     C429519  15.080   4.870  13.243  0.0912  0.0110  0.0956
   54TPM     S129520  14.962   4.763  13.327  0.1001 -0.1341 -0.0741
   55BDTP    C129521  15.689   4.859  13.391 -0.0483 -0.0180  0.1928
   55BDTP    C229522  15.638   4.753  13.470 -0.0043 -0.1125  0.0939
   55BDTP    C329523  15.504   4.713  13.465  0.0367 -0.2373 -0.0262
   55BDTP    C429524  15.418   4.782  13.378  0.0342 -0.2708 -0.0502
   55BDTP    C529525  15.470   4.889  13.299 -0.0099 -0.1761  0.0486
   55BDTP    C629526  15.603   4.929  13.304 -0.0509 -0.0512  0.1687
   55BDTP    C729527  15.277   4.760  13.356  0.0720 -0.3938 -0.1671
   55BDTP    C829528  15.221   4.843  13.265  0.0583 -0.3961 -0.1608
   55BDTP    S129529  15.339   4.962  13.195 -0.0038 -0.2427 -0.0060
   55BDTP    C929530  15.831   4.882  13.413 -0.0859  0.1051  0.3096
   55BDTP   C1029531  15.887   4.799  13.504 -0.0725  0.1074  0.3033
   55BDTP    S229532  15.769   4.679  13.574 -0.0103 -0.0458  0.1485
   56FTM     S129533  15.490   4.580  13.710 -0.1443  0.2848  0.0802
   56FTM     C129534  15.405   4.422  13.718 -0.0462  0.2469  0.4065
   56FTM     C229535  15.361   4.387  13.594  0.1670 -0.1398  0.4359
   56FTM     C329536  15.389   4.479  13.488  0.2646 -0.4232  0.2120
   56FTM     C429537  15.458   4.588  13.532  0.1216 -0.2479  0.0043
   56FTM     F129538  15.292   4.269  13.569  0.2863 -0.2600  0.6675
   56FTM     C529539  15.413   4.362  13.849  0.3526  0.2942 -0.0414
   56FTM     C629540  15.485   4.225  13.863 -0.4760 -0.2821  0.5128
   56FTM     C729541  15.627   4.217  13.796 -0.4995  0.6505 -0.3533
   56FTM     C829542  15.726   4.320  13.832 -0.1228  0.2422  0.1158
   56FTM     C929543  15.869   4.290  13.801  0.4041 -0.0865  0.3986
   56FTM    C1029544  15.964   4.365  13.899 -0.0811  0.4351 -0.1127
   56FTM    C1129545  15.477   4.175  14.008 -0.2050  0.0376  0.5340
   56FTM    C1229546  15.502   4.032  14.053 -0.8928 -0.0868  0.4057
   57FTM     S129547  15.602   5.045  13.035 -0.0466  0.2778 -0.0423
   57FTM     C129548  15.686   5.204  13.020  0.3791  0.0457 -0.1511
   57FTM     C229549  15.743   5.237  13.139  0.4039  0.0100 -0.1528
   57FTM     C329550  15.726   5.144  13.246  0.1007  0.1570 -0.0716
   57FTM     C429551  15.653   5.035  13.208 -0.1648  0.3107 -0.0056
   57FTM     F129552  15.815   5.354  13.157  0.7027 -0.1582 -0.2280
   57FTM     C529553  15.674   5.282  12.890 -0.1901 -0.3329  0.0510
   57FTM     C629554  15.541   5.337  12.837  0.4993  0.1730  0.3047
   57FTM     C729555  15.446   5.244  12.754  0.1473  0.7217  0.3551
   57FTM     C829556  15.511   5.162  12.637  1.0130 -0.2039 -0.6708
   57FTM     C929557  15.402   5.084  12.559 -0.0098  0.0013  0.6742
   57FTM    C1029558  15.458   4.975  12.477  0.3697  0.2436 -0.4639
   57FTM    C1129559  15.460   5.420  12.935 -0.9470  0.1984 -0.9642
   57FTM    C1229560  15.370   5.529  12.890  0.6490 -0.4851  0.3684
   58TPM     C129561  16.025   4.808  13.552 -0.1324  0.1189  0.3055
   58TPM     C229562  16.079   4.725  13.645 -0.1762  0.5232  0.7032
   58TPM     C329563  16.216   4.755  13.678 -0.1349  0.5618  0.5001
   58TPM     C429564  16.266   4.862  13.610 -0.0599  0.1870 -0.0523
   58TPM     S129565  16.143   4.934  13.499 -0.0352 -0.2472 -0.3614
   59BDD     C129566  16.546   5.114  13.679  0.0430  0.0389 -0.2173
   59BDD     C229567  16.606   4.991  13.690 -0.0141  0.0221 -0.1035
   59BDD     C329568  16.513   4.881  13.671 -0.0910  0.0451  0.1189
   59BDD     C429569  16.385   4.921  13.644 -0.0914  0.0793  0.1711
   59BDD     S129570  16.371   5.100  13.642  0.0048  0.0849 -0.0541
   59BDD     C529571  16.749   4.971  13.720 -0.0002 -0.0161 -0.1948
   59BDD     C629572  16.556   4.740  13.679 -0.1615  0.0324  0.2711
   59BDD     O129573  16.476   4.644  13.662 -0.2279  0.0525  0.4628
   59BDD     O229574  16.828   5.066  13.737  0.0660 -0.0360 -0.3865
   59BDD     C729575  16.699   4.719  13.709 -0.1476 -0.0056  0.1798
   59BDD     C829576  16.791   4.830  13.729 -0.0706 -0.0286 -0.0424
   59BDD     C929577  16.919   4.790  13.755 -0.0703 -0.0628 -0.0950
   59BDD     S229578  16.933   4.611  13.757 -0.1665 -0.0685  0.1304
   59BDD    C1029579  16.758   4.597  13.720 -0.2048 -0.0224  0.2935
   59BDD    C1129580  16.718   4.455  13.699 -0.2654  0.0428 -0.0995
   59BDD    C1229581  16.700   4.364  13.829  0.3605  0.7788  0.4403
   59BDD    C1329582  16.610   4.407  13.945 -0.2322 -0.2855 -0.5817
   59BDD    C1429583  16.651   4.534  14.030 -0.1197 -0.6455 -0.1392
   59BDD    C1529584  16.776   4.519  14.118  0.1420  0.3885 -0.2548
   59BDD    C1629585  16.809   4.639  14.209 -0.1870 -0.2091  0.3731
   59BDD    C1729586  16.687   4.213  13.802 -0.0302  0.4263  0.1204
   59BDD    C1829587  16.778   4.138  13.703 -0.0762  0.1596  1.0234
   59BDD    C1929588  17.055   4.854  13.775  0.0609 -0.0284  0.0729
   59BDD    C2029589  17.080   4.921  13.907 -0.1030 -0.0673 -0.8842
   59BDD    C2129590  17.211   5.009  13.898  0.1974 -0.0250  0.2258
   59BDD    C2229591  17.235   5.122  13.997 -0.3009 -0.5381  0.7184
   59BDD    C2329592  17.133   5.242  13.989  0.2905  0.3427 -0.0074
   59BDD    C2429593  17.173   5.352  14.081 -0.3061 -0.4115  0.0845
   59BDD    C2529594  17.069   4.824  14.027  0.1808  0.4476 -0.4774
   59BDD    C2629595  17.175   4.720  14.053  0.1846  0.2750  0.1400
   60TPM     C129596  16.589   5.252  13.697  0.0930 -0.0310 -0.2333
   60TPM     C229597  16.513   5.355  13.650  0.1568  0.0939 -0.0675
   60TPM     C329598  16.564   5.485  13.684  0.2505  0.0081  0.1236
   60TPM     C429599  16.679   5.482  13.757  0.2582 -0.1821  0.1034
   60TPM     S129600  16.731   5.313  13.790  0.1468 -0.2683 -0.1605
    1BDTP    C129601   6.710   8.913   4.597 -0.0535 -0.2587  0.0845
    1BDTP    C229602   6.613   8.971   4.684 -0.0215 -0.2685  0.1268
    1BDTP    C329603   6.587   9.107   4.687 -0.0901 -0.2806  0.0830
    1BDTP    C429604   6.659   9.190   4.600 -0.1957 -0.2832 -0.0067
    1BDTP    C529605   6.755   9.133   4.512 -0.2278 -0.2735 -0.0491
    1BDTP    C629606   6.782   8.997   4.509 -0.1591 -0.2610 -0.0051
    1BDTP    C729607   6.648   9.334   4.585 -0.2813 -0.2955 -0.0657
    1BDTP    C829608   6.731   9.387   4.492 -0.3749 -0.2947 -0.1489
    1BDTP    S129609   6.834   9.261   4.410 -0.3678 -0.2789 -0.1647
    1BDTP    C929610   6.720   8.769   4.611  0.0319 -0.2465  0.1435
    1BDTP   C1029611   6.637   8.717   4.705  0.1255 -0.2470  0.2271
    1BDTP    S229612   6.534   8.842   4.787  0.1184 -0.2627  0.2425
    2FTM     S129613   6.343   9.247   4.761 -0.0096 -0.2006 -0.2756
    2FTM     C129614   6.311   9.248   4.939  0.0245  0.1235 -0.2712
    2FTM     C229615   6.415   9.189   5.005  0.1613  0.4818 -0.1609
    2FTM     C329616   6.522   9.141   4.923  0.2460  0.5245 -0.0751
    2FTM     C429617   6.501   9.163   4.791  0.1715  0.1884 -0.1212
    2FTM     F129618   6.418   9.176   5.143  0.2183  0.7920 -0.1309
    2FTM     C529619   6.188   9.307   5.009 -0.6670 -0.1421 -0.5675
    2FTM     C629620   6.123   9.439   4.981  0.7389  0.9868 -0.0020
    2FTM     C729621   6.214   9.556   4.985 -0.2231 -0.1544  0.0109
    2FTM     C829622   6.240   9.613   5.120  0.1865 -0.5622 -0.6902
    2FTM     C929623   6.318   9.748   5.108  0.2913  0.1330 -0.0068
    2FTM    C1029624   6.372   9.803   5.239 -0.2170  0.5547  0.0341
    2FTM    C1129625   6.042   9.422   4.849  0.0146  0.0179 -0.6958
    2FTM    C1229626   5.959   9.533   4.794  0.8678  0.1743  0.6356
    3FTM     S129627   7.016   8.837   4.465  0.1848 -0.0344 -0.0308
    3FTM     C129628   7.051   8.795   4.294  0.7790 -0.1328  0.1083
    3FTM     C229629   6.960   8.855   4.212  0.8502 -0.4582 -0.2141
    3FTM     C329630   6.860   8.935   4.277  0.4567 -0.6466 -0.5800
    3FTM     C429631   6.875   8.937   4.412  0.0716 -0.4590 -0.5364
    3FTM     F129632   6.961   8.840   4.074  1.2759 -0.6053 -0.1969
    3FTM     C529633   7.174   8.711   4.255 -0.5737  0.1330  0.0370
    3FTM     C629634   7.192   8.566   4.316  0.0828 -0.4348  0.1268
    3FTM     C729635   7.059   8.475   4.336 -0.0041  1.1021  0.4965
    3FTM     C829636   6.990   8.420   4.204 -0.2464  0.5486  0.2463
    3FTM     C929637   6.864   8.329   4.212  0.1887  0.5239  0.2301
    3FTM    C1029638   6.752   8.371   4.302  0.0099 -0.5038  0.2864
    3FTM    C1129639   7.313   8.483   4.270 -0.4404  0.1114 -0.0633
    3FTM    C1229640   7.449   8.533   4.327 -0.1236 -0.4717 -0.0506
    4TPM     C129641   6.633   8.581   4.743  0.1494 -0.0654 -0.2229
    4TPM     C229642   6.559   8.474   4.700  0.2869 -0.1109 -0.3500
    4TPM     C329643   6.583   8.354   4.776  0.0751 -0.0415 -0.1727
    4TPM     C429644   6.674   8.369   4.876 -0.2241  0.0566  0.0893
    4TPM     S129645   6.738   8.537   4.882 -0.2617  0.0692  0.1330
    5BDD     C129646   6.733   8.164   5.208 -0.1534  0.0981 -0.1114
    5BDD     C229647   6.722   8.070   5.109 -0.0879  0.0694 -0.0911
    5BDD     C329648   6.702   8.127   4.977  0.0691  0.0324 -0.1305
    5BDD     C429649   6.699   8.264   4.977  0.1211  0.0338 -0.1801
    5BDD     S129650   6.720   8.330   5.143 -0.0229  0.0815 -0.1812
    5BDD     C529651   6.728   7.924   5.133 -0.1671  0.0746 -0.0347
    5BDD     C629652   6.688   8.044   4.856  0.1619 -0.0033 -0.1173
    5BDD     O129653   6.672   8.094   4.742  0.2972 -0.0353 -0.1513
    5BDD     O229654   6.745   7.875   5.246 -0.3026  0.1066 -0.0007
    5BDD     C729655   6.695   7.899   4.879  0.0826  0.0021 -0.0610
    5BDD     C829656   6.714   7.841   5.011 -0.0745  0.0391 -0.0216
    5BDD     C929657   6.717   7.705   5.011 -0.1264  0.0374  0.0281
    5BDD     S229658   6.697   7.638   4.846  0.0176 -0.0102  0.0291
    5BDD    C1029659   6.684   7.805   4.780  0.1481 -0.0274 -0.0408
    5BDD    C1129660   6.644   7.810   4.629 -0.0967 -0.2397  0.1635
    5BDD    C1229661   6.720   7.717   4.523 -0.5832 -0.1926 -0.0844
    5BDD    C1329662   6.873   7.727   4.533 -0.5406  0.4981  0.8431
    5BDD    C1429663   6.951   7.852   4.508 -0.7556 -0.2339  0.7467
    5BDD    C1529664   6.931   7.931   4.377  0.2730  0.1942 -0.1848
    5BDD    C1629665   7.057   8.011   4.336  0.3365  0.4365 -0.0446
    5BDD    C1729666   6.659   7.576   4.500 -0.1739  1.0931  0.8332
    5BDD    C1829667   6.724   7.487   4.391  0.0799 -0.3649  0.1164
    5BDD    C1929668   6.742   7.604   5.123  0.7538  0.1265  0.0808
    5BDD    C2029669   6.867   7.523   5.108  0.6240  0.8478  0.9083
    5BDD    C2129670   6.845   7.396   5.193  0.0263 -0.3826  0.5983
    5BDD    C2229671   6.942   7.281   5.177  0.1050 -0.0690 -0.4252
    5BDD    C2329672   6.940   7.197   5.052  0.6249  0.4022  0.0933
    5BDD    C2429673   7.040   7.083   5.046  0.0208 -0.2771  0.1097
    5BDD    C2529674   6.993   7.602   5.122 -0.4630  0.1185  0.6299
    5BDD    C2629675   7.035   7.685   5.242  0.2029 -0.0147 -0.0605
    6TPM     C129676   6.753   8.166   5.356 -0.5191  0.2933 -0.1183
    6TPM     C229677   6.656   8.120   5.439 -0.1680  0.1206  0.2002
    6TPM     C329678   6.660   8.180   5.571  0.2786 -0.0246  0.2559
    6TPM     C429679   6.760   8.271   5.587  0.2680  0.0380 -0.0201
    6TPM     S129680   6.858   8.289   5.436 -0.3112  0.2866 -0.3745
    7BDTP    C129681   6.906   8.638   6.074 -0.0669  0.0007 -0.1974
    7BDTP    C229682   6.949   8.714   5.962  0.0223  0.0081 -0.1581
    7BDTP    C329683   6.933   8.670   5.831  0.0863  0.0370 -0.1760
    7BDTP    C429684   6.871   8.546   5.810  0.0614  0.0596 -0.2353
    7BDTP    C529685   6.827   8.470   5.923 -0.0278  0.0520 -0.2745
    7BDTP    C629686   6.844   8.513   6.053 -0.0918  0.0231 -0.2567
    7BDTP    C729687   6.843   8.480   5.684  0.1160  0.0910 -0.2638
    7BDTP    C829688   6.781   8.360   5.696  0.0727  0.1070 -0.3219
    7BDTP    S129689   6.750   8.313   5.869 -0.0435  0.0846 -0.3484
    7BDTP    C929690   6.934   8.703   6.200 -0.1215 -0.0308 -0.1688
    7BDTP   C1029691   6.996   8.823   6.188 -0.0781 -0.0470 -0.1107
    7BDTP    S229692   7.027   8.870   6.015  0.0379 -0.0247 -0.0842
    8FTM     S129693   7.068   8.685   5.583  0.2862  0.3079  0.1793
    8FTM     C129694   7.063   8.843   5.497 -0.4917  0.1808 -0.0279
    8FTM     C229695   6.992   8.934   5.571 -1.0728 -0.1040 -0.2210
    8FTM     C329696   6.939   8.886   5.695 -0.9516 -0.2377 -0.2197
    8FTM     C429697   6.970   8.755   5.718 -0.2547 -0.0488 -0.0193
    8FTM     F129698   6.972   9.064   5.530 -1.7490 -0.2606 -0.4103
    8FTM     C529699   7.125   8.853   5.361 -0.4312  0.0198  0.5152
    8FTM     C629700   7.278   8.847   5.338  0.5686  0.1851  0.7202
    8FTM     C729701   7.350   8.966   5.386  0.2573 -0.2683  0.0427
    8FTM     C829702   7.332   9.103   5.324 -0.2156 -0.0299 -0.6955
    8FTM     C929703   7.343   9.111   5.173  0.4426  0.1321  0.0006
    8FTM    C1029704   7.266   9.240   5.130  0.7218  0.8928  0.5751
    8FTM    C1129705   7.346   8.720   5.390 -0.0297 -0.2811  1.1284
    8FTM    C1229706   7.327   8.593   5.305 -0.2272 -0.0236 -0.4152
    9FTM     S129707   6.674   8.509   6.286  0.1424  0.2853  0.2997
    9FTM     C129708   6.686   8.359   6.385  0.2125  0.0350 -0.0846
    9FTM     C229709   6.772   8.271   6.326 -0.0949  0.0401 -0.5471
    9FTM     C329710   6.832   8.314   6.203 -0.3966  0.2341 -0.6286
    9FTM     C429711   6.791   8.439   6.167 -0.3175  0.3828 -0.2152
    9FTM     F129712   6.801   8.146   6.380 -0.1216 -0.1311 -0.9239
    9FTM     C529713   6.606   8.331   6.512 -0.4720  0.1051  0.0786
    9FTM     C629714   6.543   8.446   6.599 -0.6827  0.1363  0.3347
    9FTM     C729715   6.622   8.567   6.639  0.3567 -0.1624  0.0464
    9FTM     C829716   6.766   8.545   6.701  0.2018  0.4121  0.4808
    9FTM     C929717   6.840   8.677   6.716  0.1880 -0.3773  0.1593
    9FTM    C1029718   6.988   8.667   6.763 -0.3027 -0.5691  0.3698
    9FTM    C1129719   6.465   8.379   6.715 -0.4387 -0.0154 -0.4863
    9FTM    C1229720   6.335   8.303   6.699 -0.1929  0.2516  0.4054
   10TPM     C129721   7.033   8.917   6.293 -0.3134  0.2517  0.1496
   10TPM     C229722   7.050   9.052   6.287 -0.5612  0.3006  0.5186
   10TPM     C329723   7.097   9.110   6.411 -0.5046  0.0277  0.6256
   10TPM     C429724   7.116   9.018   6.510 -0.2138 -0.2298  0.3380
   10TPM     S129725   7.076   8.851   6.455  0.0130 -0.1468 -0.0934
   11BDD     C129726   7.309   9.174   6.820  0.0405  0.1076 -0.0337
   11BDD     C229727   7.179   9.160   6.858  0.0374  0.0968 -0.0485
   11BDD     C329728   7.096   9.098   6.756  0.0544  0.0892 -0.0577
   11BDD     C429729   7.164   9.066   6.642  0.0700  0.0940 -0.0494
   11BDD     S129730   7.338   9.111   6.654  0.0648  0.1085 -0.0298
   11BDD     C529731   7.125   9.203   6.989  0.0186  0.0937 -0.0551
   11BDD     C629732   6.951   9.073   6.775  0.0542  0.0775 -0.0741
   11BDD     O129733   6.880   9.020   6.687  0.0688  0.0706 -0.0820
   11BDD     O229734   7.197   9.256   7.076  0.0041  0.1004 -0.0473
   11BDD     C729735   6.898   9.116   6.906  0.0355  0.0741 -0.0807
   11BDD     C829736   6.981   9.178   7.008  0.0186  0.0820 -0.0716
   11BDD     C929737   6.912   9.210   7.122  0.0027  0.0772 -0.0798
   11BDD     S229738   6.739   9.165   7.109  0.0080  0.0627 -0.0994
   11BDD    C1029739   6.767   9.102   6.944  0.0323  0.0637 -0.0956
   11BDD    C1129740   6.642   9.049   6.873  0.0845  0.4559  0.2932
   11BDD    C1229741   6.533   8.950   6.929 -0.3090  0.5484  0.4467
   11BDD    C1329742   6.419   8.912   6.827  0.1305  0.3946 -0.0402
   11BDD    C1429743   6.366   9.033   6.746 -0.4306 -0.0011 -0.0327
   11BDD    C1529744   6.271   8.986   6.634  0.2997  0.4344 -0.2538
   11BDD    C1629745   6.243   9.100   6.542 -0.1943 -0.1905 -0.0599
   11BDD    C1729746   6.570   8.819   6.998  0.3464 -0.7203  0.1695
   11BDD    C1829747   6.646   8.826   7.125  0.1752 -0.2386 -0.2005
   11BDD    C1929748   6.947   9.286   7.256 -0.8322 -0.5558 -0.1469
   11BDD    C2029749   7.049   9.215   7.350  0.0728 -0.1844  0.0501
   11BDD    C2129750   7.095   9.306   7.460 -0.0097  0.0190 -0.4474
   11BDD    C2229751   7.149   9.448   7.445  0.5671  0.3123  0.1279
   11BDD    C2329752   7.268   9.448   7.360 -0.7442  0.2669  0.9400
   11BDD    C2429753   7.326   9.577   7.315  0.7028 -0.5412 -0.1911
   11BDD    C2529754   7.024   9.070   7.396 -0.1983  0.3999  0.2302
   11BDD    C2629755   7.133   8.970   7.376 -0.2661  0.2179 -0.3115
   12TPM     C129756   7.424   9.224   6.888  0.1534  0.0169  0.0889
   12TPM     C229757   7.468   9.351   6.864  0.0112  0.0851  0.1895
   12TPM     C329758   7.557   9.401   6.965 -0.1386  0.1485  0.2896
   12TPM     C429759   7.581   9.313   7.066 -0.1104  0.1283  0.2652
   12TPM     S129760   7.492   9.158   7.041  0.1092  0.0273  0.1131
   13BDTP    C129761   7.751   9.485   7.635  0.0399 -0.0904 -0.0143
   13BDTP    C229762   7.692   9.356   7.654 -0.0520 -0.0458  0.0005
   13BDTP    C329763   7.650   9.276   7.549 -0.0746 -0.0446  0.0087
   13BDTP    C429764   7.668   9.324   7.418 -0.0036 -0.0887  0.0014
   13BDTP    C529765   7.727   9.452   7.398  0.0882 -0.1333 -0.0136
   13BDTP    C629766   7.768   9.533   7.504  0.1109 -0.1348 -0.0216
   13BDTP    C729767   7.632   9.259   7.294 -0.0106 -0.0965  0.0074
   13BDTP    C829768   7.661   9.331   7.183  0.0707 -0.1438 -0.0021
   13BDTP    S129769   7.738   9.492   7.220  0.1671 -0.1857 -0.0200
   13BDTP    C929770   7.787   9.550   7.759  0.0467 -0.0827 -0.0201
   13BDTP   C1029771   7.758   9.478   7.870 -0.0345 -0.0355 -0.0107
   13BDTP    S229772   7.681   9.317   7.832 -0.1308  0.0065  0.0073
   14FTM     S129773   7.423   9.151   7.690 -0.0694 -0.1498  0.0473
   14FTM     C129774   7.399   8.978   7.645  0.4815 -0.3189  0.3780
   14FTM     C229775   7.494   8.940   7.555  0.5859 -0.1805  0.4293
   14FTM     C329776   7.589   9.041   7.517  0.2519  0.0601  0.2199
   14FTM     C429777   7.566   9.160   7.580 -0.1204  0.1071  0.0009
   14FTM     F129778   7.501   8.812   7.502  0.9900 -0.2632  0.6691
   14FTM     C529779   7.270   8.919   7.708  0.2061  0.7127 -0.0810
   14FTM     C629780   7.267   8.796   7.804 -0.2120  0.0010  0.4982
   14FTM     C729781   7.321   8.846   7.939 -0.1043  0.0635 -0.3710
   14FTM     C829782   7.238   8.938   8.018  0.1381 -0.0690 -0.2539
   14FTM     C929783   7.304   8.969   8.154  0.0639 -0.3542  0.0804
   14FTM    C1029784   7.218   9.068   8.233 -0.0167 -0.0069  0.8985
   14FTM    C1129785   7.334   8.663   7.746  0.2493 -1.0196  0.0455
   14FTM    C1229786   7.299   8.546   7.834  0.0945  0.6467 -0.5247
   15FTM     S129787   7.698   9.798   7.410  0.2248 -0.0080 -0.1079
   15FTM     C129788   7.819   9.927   7.447  0.0138  0.1667 -0.0175
   15FTM     C229789   7.928   9.872   7.507  0.0755  0.3140  0.0063
   15FTM     C329790   7.924   9.730   7.528  0.2851  0.3003 -0.0429
   15FTM     C429791   7.808   9.675   7.482  0.3876  0.1371 -0.1066
   15FTM     F129792   8.038   9.946   7.547 -0.0546  0.4700  0.0744
   15FTM     C529793   7.807  10.061   7.377  0.2444  0.4564  0.3622
   15FTM     C629794   7.670  10.116   7.394  0.3769 -0.0470 -0.1044
   15FTM     C729795   7.624  10.225   7.295 -0.2526  0.0791 -0.2583
   15FTM     C829796   7.669  10.372   7.303 -0.0891  0.0725  0.8247
   15FTM     C929797   7.611  10.465   7.196  0.0936 -0.1575  0.0318
   15FTM    C1029798   7.475  10.524   7.233 -0.3984  0.1551  0.1436
   15FTM    C1129799   7.609  10.122   7.535 -0.0157 -0.5016  0.4808
   15FTM    C1229800   7.460  10.147   7.558  0.0257 -0.2754 -0.2594
   16TPM     C129801   7.759   9.537   8.006 -0.1666  0.1126 -0.0188
   16TPM     C229802   7.669   9.505   8.103 -0.3997  0.1855 -0.2098
   16TPM     C329803   7.679   9.587   8.221 -0.4390  0.0374 -0.1018
   16TPM     C429804   7.777   9.682   8.214 -0.2359 -0.1484  0.1715
   16TPM     S129805   7.865   9.674   8.056  0.0227 -0.1506  0.3148
   17BDD     C129806   7.827  10.040   8.368 -0.2596  0.0480 -0.0100
   17BDD     C229807   7.785   9.962   8.473 -0.2300  0.0568  0.0086
   17BDD     C329808   7.766   9.823   8.436 -0.1322  0.0313  0.0529
   17BDD     C429809   7.793   9.797   8.305 -0.0887  0.0034  0.0673
   17BDD     S129810   7.845   9.944   8.218 -0.1671  0.0071  0.0267
   17BDD     C529811   7.762  10.013   8.609 -0.2904  0.0890 -0.0136
   17BDD     C629812   7.720   9.721   8.533 -0.0855  0.0355  0.0792
   17BDD     O129813   7.703   9.601   8.502 -0.0012  0.0134  0.1175
   17BDD     O229814   7.779  10.133   8.641 -0.3747  0.1110 -0.0517
   17BDD     C729815   7.697   9.772   8.670 -0.1459  0.0677  0.0565
   17BDD     C829816   7.716   9.911   8.706 -0.2438  0.0932  0.0124
   17BDD     C929817   7.689   9.937   8.838 -0.2872  0.1211 -0.0021
   17BDD     S229818   7.637   9.789   8.925 -0.2088  0.1174  0.0387
   17BDD    C1029819   7.655   9.694   8.774 -0.1163  0.0765  0.0753
   17BDD    C1129820   7.631   9.546   8.787  0.6903  0.0599  1.0794
   17BDD    C1229821   7.497   9.497   8.852  0.4890 -0.1296 -0.4700
   17BDD    C1329822   7.495   9.348   8.888 -0.6817 -0.3342 -0.3362
   17BDD    C1429823   7.609   9.285   8.971 -1.3601 -0.0083  0.1203
   17BDD    C1529824   7.613   9.326   9.117 -0.4134 -0.1301  0.5055
   17BDD    C1629825   7.715   9.258   9.204 -0.2161 -0.1368  0.1770
   17BDD    C1729826   7.365   9.538   8.771 -0.2089  0.5193 -0.7446
   17BDD    C1829827   7.229   9.503   8.838  0.6049  0.3576  0.0351
   17BDD    C1929828   7.696  10.066   8.924 -0.9705  0.3997  0.6981
   17BDD    C2029829   7.836  10.114   8.961  0.0143 -0.5878 -0.1658
   17BDD    C2129830   7.810  10.249   9.016  0.5749  0.2055  0.1603
   17BDD    C2229831   7.926  10.348   9.015  0.0265 -0.0772 -0.6652
   17BDD    C2329832   7.968  10.427   8.893  0.1985 -0.0319  0.0610
   17BDD    C2429833   7.855  10.496   8.826  0.5041 -0.1593  0.0170
   17BDD    C2529834   7.939  10.026   9.035  0.0543 -0.4601  0.5038
   17BDD    C2629835   7.890   9.969   9.164 -0.1681 -0.8318  0.3767
   18TPM     C129836   7.861  10.182   8.350 -0.3371  0.2754 -0.0980
   18TPM     C229837   7.854  10.232   8.223 -0.0780  0.1875 -0.1466
   18TPM     C329838   7.890  10.371   8.213  0.2966  0.0867 -0.2275
   18TPM     C429839   7.924  10.428   8.333  0.3233  0.0979 -0.2405
   18TPM     S129840   7.913  10.308   8.468 -0.1263  0.2376 -0.1508
   19BDTP    C129841   8.096  11.029   8.387 -0.3400  0.0138 -0.1633
   19BDTP    C229842   8.122  10.978   8.517 -0.1101 -0.0062 -0.2146
   19BDTP    C329843   8.098  10.845   8.552  0.0141 -0.0279 -0.2103
   19BDTP    C429844   8.046  10.759   8.454 -0.0935 -0.0299 -0.1531
   19BDTP    C529845   8.021  10.810   8.323 -0.3228 -0.0099 -0.1020
   19BDTP    C629846   8.045  10.942   8.288 -0.4471  0.0118 -0.1059
   19BDTP    C729847   8.014  10.619   8.466  0.0008 -0.0505 -0.1378
   19BDTP    C829848   7.966  10.562   8.353 -0.1453 -0.0470 -0.0782
   19BDTP    S129849   7.955  10.679   8.214 -0.4227 -0.0170 -0.0329
   19BDTP    C929850   8.129  11.169   8.374 -0.4337  0.0344 -0.1783
   19BDTP   C1029851   8.177  11.226   8.488 -0.2878  0.0309 -0.2379
   19BDTP    S229852   8.187  11.109   8.626 -0.0104  0.0010 -0.2829
   20FTM     S129853   8.290  10.752   8.738 -0.3642  0.1601 -0.0341
   20FTM     C129854   8.234  10.733   8.908 -0.1932  0.0065  0.0054
   20FTM     C229855   8.101  10.760   8.916 -0.1688  0.0753  0.1781
   20FTM     C329856   8.037  10.797   8.794 -0.2782  0.2474  0.2871
   20FTM     C429857   8.123  10.798   8.688 -0.3911  0.3126  0.1952
   20FTM     F129858   8.030  10.754   9.035 -0.0453 -0.0135  0.2472
   20FTM     C529859   8.315  10.693   9.026  0.0602  0.2390 -0.2855
   20FTM     C629860   8.421  10.591   9.017 -0.3067  0.5396  0.6452
   20FTM     C729861   8.377  10.439   9.009  1.0233 -0.0890 -0.0921
   20FTM     C829862   8.351  10.377   9.148 -0.1769 -0.5482 -0.4619
   20FTM     C929863   8.311  10.233   9.149  0.0200  0.4223 -0.1623
   20FTM    C1029864   8.264  10.183   9.286 -0.4770 -0.1049 -0.1704
   20FTM    C1129865   8.546  10.624   8.939  0.5445 -0.3968  0.2733
   20FTM    C1229866   8.668  10.548   8.958 -0.4218  0.0794  0.1330
   21FTM     S129867   7.939  11.144   8.111  0.0578 -0.0612  0.1975
   21FTM     C129868   7.950  11.110   7.934 -0.2219  0.0180  0.1642
   21FTM     C229869   8.006  10.988   7.914 -0.3626 -0.0246  0.0221
   21FTM     C329870   8.044  10.915   8.031 -0.2642 -0.1191 -0.0675
   21FTM     C429871   8.015  10.984   8.146 -0.0408 -0.1499  0.0090
   21FTM     F129872   8.028  10.935   7.787 -0.5894  0.0195 -0.0358
   21FTM     C529873   7.917  11.218   7.834 -0.1515  0.3098 -0.2295
   21FTM     C629874   7.769  11.263   7.834  0.6130  0.1873  0.0534
   21FTM     C729875   7.667  11.151   7.801  0.1884 -0.4777 -0.0139
   21FTM     C829876   7.694  11.063   7.678 -0.5053 -0.2890 -0.1218
   21FTM     C929877   7.602  10.942   7.656  0.6412 -0.0656 -0.4101
   21FTM    C1029878   7.613  10.866   7.527  0.7980  0.1518  0.2178
   21FTM    C1129879   7.728  11.371   7.947 -0.3401  0.3349  0.7310
   21FTM    C1229880   7.610  11.459   7.908  0.0549  0.2893  0.8607
   22TPM     C129881   8.207  11.363   8.511 -0.1709  0.0564  0.4950
   22TPM     C229882   8.245  11.425   8.627 -0.1285  0.2603  0.3731
   22TPM     C329883   8.280  11.563   8.610 -0.2496  0.2630  0.1371
   22TPM     C429884   8.269  11.608   8.481 -0.3844  0.0610  0.0783
   22TPM     S129885   8.213  11.476   8.371 -0.3686 -0.1497  0.3192
   23BDD     C129886   8.414  11.955   8.372 -0.2926  0.0118  0.1413
   23BDD     C229887   8.282  11.957   8.337 -0.2837 -0.0463  0.1016
   23BDD     C329888   8.210  11.836   8.373 -0.1881 -0.1718 -0.1295
   23BDD     C429889   8.289  11.743   8.434 -0.1259 -0.2078 -0.2627
   23BDD     S129890   8.458  11.800   8.452 -0.1826 -0.0868 -0.1085
   23BDD     C529891   8.216  12.071   8.270 -0.3622  0.0117  0.2747
   23BDD     C629892   8.066  11.817   8.345 -0.1616 -0.2515 -0.2096
   23BDD     O129893   8.005  11.713   8.375 -0.0796 -0.3598 -0.4089
   23BDD     O229894   8.278  12.176   8.239 -0.4442  0.1200  0.4740
   23BDD     C729895   8.001  11.931   8.277 -0.2406 -0.1936 -0.0367
   23BDD     C829896   8.072  12.052   8.241 -0.3362 -0.0680  0.1945
   23BDD     C929897   7.993  12.146   8.180 -0.3980 -0.0321  0.3276
   23BDD     S229898   7.824  12.088   8.162 -0.3413 -0.1529  0.1732
   23BDD    C1029899   7.869  11.934   8.242 -0.2311 -0.2516 -0.0763
   23BDD    C1129900   7.753  11.831   8.257 -0.3718  0.1225 -0.2675
   23BDD    C1229901   7.618  11.873   8.305 -0.2550 -0.1946  0.0302
   23BDD    C1329902   7.617  11.937   8.443  0.1836 -0.9994 -0.3163
   23BDD    C1429903   7.477  11.940   8.507 -0.3599  0.4151  0.9078
   23BDD    C1529904   7.492  11.986   8.652  0.0572  0.0568 -0.3219
   23BDD    C1629905   7.364  11.956   8.741  0.7222  0.2103  0.1869
   23BDD    C1729906   7.520  11.924   8.195  0.3886  0.2830  0.6338
   23BDD    C1829907   7.485  11.836   8.071  0.9951  0.2851 -0.8492
   23BDD    C1929908   8.021  12.286   8.130 -0.4582 -0.2436 -0.9676
   23BDD    C2029909   8.021  12.310   7.977  0.5784  0.1037 -0.3955
   23BDD    C2129910   8.126  12.236   7.892 -0.0298 -0.5203  0.0105
   23BDD    C2229911   8.273  12.245   7.930 -0.6015 -0.6760  0.1441
   23BDD    C2329912   8.345  12.372   7.962 -0.1603  0.3039 -0.8608
   23BDD    C2429913   8.337  12.487   7.863 -0.5427 -0.1111  0.5180
   23BDD    C2529914   7.885  12.297   7.906 -0.1147 -0.1843  0.0174
   23BDD    C2629915   7.782  12.399   7.960 -0.5448  0.4870  0.7073
   24TPM     C129916   8.533  12.035   8.362 -0.0530 -0.3485 -0.1272
   24TPM     C229917   8.547  12.150   8.290  0.0424 -0.4185 -0.2196
   24TPM     C329918   8.681  12.204   8.292  0.0045 -0.3353  0.0255
   24TPM     C429919   8.768  12.131   8.367 -0.1205 -0.2021  0.3044
   24TPM     S129920   8.688  11.987   8.441 -0.2000 -0.1709  0.2789
   25BDTP    C129921   9.378  12.269   8.446 -0.1214 -0.0493 -0.0584
   25BDTP    C229922   9.361  12.159   8.536 -0.1423 -0.0325 -0.0420
   25BDTP    C329923   9.239  12.094   8.552 -0.1419 -0.0404 -0.0713
   25BDTP    C429924   9.130  12.138   8.476 -0.1197 -0.0659 -0.1187
   25BDTP    C529925   9.147  12.248   8.387 -0.0987 -0.0827 -0.1347
   25BDTP    C629926   9.268  12.313   8.371 -0.0990 -0.0747 -0.1062
   25BDTP    C729927   8.994  12.087   8.476 -0.1146 -0.0785 -0.1555
   25BDTP    C829928   8.910  12.151   8.392 -0.0913 -0.1034 -0.1979
   25BDTP    S129929   8.990  12.287   8.301 -0.0722 -0.1145 -0.1976
   25BDTP    C929930   9.513  12.320   8.446 -0.1261 -0.0367 -0.0217
   25BDTP   C1029931   9.597  12.256   8.531 -0.1495 -0.0118  0.0210
   25BDTP    S229932   9.517  12.120   8.621 -0.1683 -0.0006  0.0207
   26FTM     S129933   9.112  11.949   8.766 -0.0049  0.2069  0.0236
   26FTM     C129934   9.159  11.775   8.774 -0.1537  0.1669  0.0386
   26FTM     C229935   9.257  11.749   8.682 -0.1068  0.0977  0.1075
   26FTM     C329936   9.299  11.861   8.602  0.0439  0.0722  0.1514
   26FTM     C429937   9.233  11.975   8.634  0.1148  0.1235  0.1155
   26FTM     F129938   9.313  11.624   8.665 -0.1972  0.0533  0.1340
   26FTM     C529939   9.104  11.678   8.869  1.0492 -0.3986 -0.1738
   26FTM     C629940   8.948  11.654   8.862 -0.1371  0.3056 -0.3114
   26FTM     C729941   8.893  11.560   8.968  0.1948 -0.2950 -0.1129
   26FTM     C829942   8.963  11.427   8.993  0.1606 -0.1474 -0.0184
   26FTM     C929943   8.960  11.323   8.874  0.2878 -0.9121 -0.3290
   26FTM    C1029944   9.020  11.189   8.896  0.2502 -0.1518 -0.5219
   26FTM    C1129945   8.879  11.637   8.731  0.6921  0.1977  0.7968
   26FTM    C1229946   8.730  11.680   8.729  0.0099 -0.0052 -0.3427
   27FTM     S129947   9.357  12.583   8.333 -0.0142 -0.2926  0.1800
   27FTM     C129948   9.337  12.652   8.168  0.1726 -0.1384  0.2215
   27FTM     C229949   9.279  12.561   8.086  0.1490 -0.0176  0.1028
   27FTM     C329950   9.247  12.434   8.144 -0.0122 -0.0370 -0.0246
   27FTM     C429951   9.282  12.428   8.276 -0.1153 -0.1774 -0.0028
   27FTM     F129952   9.251  12.587   7.952  0.2713  0.1179  0.1024
   27FTM     C529953   9.395  12.794   8.170  0.2324 -0.4776 -0.1476
   27FTM     C629954   9.295  12.918   8.175 -0.6371  0.9119 -0.1294
   27FTM     C729955   9.227  12.944   8.044 -0.4355 -0.2703  0.3808
   27FTM     C829956   9.308  13.001   7.931  0.2424 -0.3212 -0.1986
   27FTM     C929957   9.364  13.138   7.964  0.0960  0.3061 -0.3953
   27FTM    C1029958   9.417  13.194   7.836 -0.3491  0.0782  0.3937
   27FTM    C1129959   9.207  12.936   8.295  0.2484 -0.7049 -0.2600
   27FTM    C1229960   9.246  12.896   8.433  0.0817 -0.4983  0.2276
   28TPM     C129961   9.741  12.278   8.549  0.0005 -0.0276 -0.2548
   28TPM     C229962   9.838  12.333   8.470  0.0226  0.3656  0.0412
   28TPM     C329963   9.968  12.336   8.533 -0.0829  0.4562  0.2577
   28TPM     C429964   9.970  12.284   8.659 -0.1854  0.1321  0.1271
   28TPM     S129965   9.806  12.226   8.709 -0.1564 -0.3163 -0.2827
   29BDD     C129966  10.254  12.077   8.841 -0.1062  0.0851  0.0163
   29BDD     C229967  10.317  12.190   8.797 -0.0952  0.0789  0.0162
   29BDD     C329968  10.229  12.280   8.725 -0.1120  0.1388  0.1123
   29BDD     C429969  10.101  12.235   8.715 -0.1357  0.1898  0.1841
   29BDD     S129970  10.081  12.076   8.795 -0.1385  0.1664  0.1364
   29BDD     C529971  10.460  12.219   8.820 -0.0686  0.0176 -0.0722
   29BDD     C629972  10.276  12.409   8.669 -0.1040  0.1433  0.1292
   29BDD     O129973  10.201  12.487   8.607 -0.1186  0.1950  0.2120
   29BDD     O229974  10.536  12.140   8.882 -0.0541 -0.0340 -0.1550
   29BDD     C729975  10.420  12.438   8.692 -0.0775  0.0821  0.0408
   29BDD     C829976  10.507  12.347   8.764 -0.0606  0.0222 -0.0553
   29BDD     C929977  10.636  12.392   8.774 -0.0370 -0.0288 -0.1271
   29BDD     S229978  10.656  12.552   8.694 -0.0342 -0.0053 -0.0793
   29BDD    C1029979  10.483  12.551   8.648 -0.0665  0.0759  0.0408
   29BDD    C1129980  10.430  12.670   8.564  0.3624  1.1190  0.3124
   29BDD    C1229981  10.400  12.804   8.635 -0.4231  0.8030  1.0736
   29BDD    C1329982  10.504  12.855   8.734 -0.0305  0.4203  0.0710
   29BDD    C1429983  10.637  12.912   8.694  0.1120  0.2969 -0.0928
   29BDD    C1529984  10.740  12.906   8.808 -0.4822  0.3914  1.1413
   29BDD    C1629985  10.876  12.940   8.738 -0.0446  0.6200  0.0693
   29BDD    C1729986  10.353  12.915   8.534 -0.4711 -0.5127 -0.0361
   29BDD    C1829987  10.237  12.868   8.440 -0.1218  0.2192  0.0437
   29BDD    C1929988  10.759  12.333   8.834  0.0205 -0.2234 -0.3374
   29BDD    C2029989  10.871  12.274   8.752 -0.6315  0.2786 -0.4120
   29BDD    C2129990  10.990  12.203   8.824 -0.6590  0.9005 -0.3861
   29BDD    C2229991  10.978  12.107   8.947 -0.0064 -0.3790  0.2598
   29BDD    C2329992  10.851  12.023   8.979 -0.7629 -0.2479 -0.1989
   29BDD    C2429993  10.819  11.910   8.877 -0.7719 -0.3303  0.2958
   29BDD    C2529994  10.909  12.352   8.623  0.4922 -0.4519  0.3844
   29BDD    C2629995  10.977  12.268   8.511 -0.2922 -0.4588 -0.6209
   30TPM     C129996  10.291  11.946   8.909  0.0759  0.0822 -0.5445
   30TPM     C229997  10.418  11.907   8.937  0.1277  0.0302 -0.8495
   30TPM     C329998  10.427  11.776   8.997  0.1806  0.2189 -0.4427
   30TPM     C429999  10.306  11.716   9.015  0.1691  0.4147  0.1719
   30TPM     S130000  10.171  11.820   8.957  0.0900  0.3758  0.2863
   31BDTP    C130001  10.120  11.141   9.201 -0.1517  0.0421  0.4113
   31BDTP    C230002  10.246  11.153   9.266 -0.0714 -0.0144  0.2668
   31BDTP    C330003  10.325  11.267   9.255 -0.0250 -0.0565  0.1624
   31BDTP    C430004  10.278  11.374   9.177 -0.0592 -0.0423  0.2024
   31BDTP    C530005  10.152  11.361   9.112 -0.1395  0.0142  0.3471
   31BDTP    C630006  10.072  11.248   9.123 -0.1859  0.0563  0.4513
   31BDTP    C730007  10.342  11.501   9.151 -0.0229 -0.0787  0.1128
   31BDTP    C830008  10.271  11.584   9.071 -0.0714 -0.0525  0.1829
   31BDTP    S130009  10.113  11.512   9.017 -0.1698  0.0218  0.3715
   31BDTP    C930010  10.056  11.014   9.227 -0.1880  0.0784  0.5007
   31BDTP   C1030011  10.127  10.931   9.308 -0.1395  0.0523  0.4308
   31BDTP    S230012  10.285  11.003   9.361 -0.0411 -0.0220  0.2419
   32FTM     S130013  10.482  11.415   9.453 -0.0368 -0.0521  0.5168
   32FTM     C130014  10.655  11.365   9.461  0.0389  0.0644 -0.2058
   32FTM     C230015  10.677  11.259   9.378 -0.1700  0.2569 -0.5109
   32FTM     C330016  10.564  11.212   9.305 -0.3961  0.3240 -0.2086
   32FTM     C430017  10.451  11.283   9.332 -0.3593  0.1780  0.3459
   32FTM     F130018  10.802  11.200   9.364 -0.1688  0.3839 -1.0822
   32FTM     C530019  10.751  11.432   9.562  0.2835 -0.3767  0.0459
   32FTM     C630020  10.785  11.350   9.681  0.0503  0.9200 -0.2377
   32FTM     C730021  10.926  11.370   9.745 -0.2432 -0.0274  0.1413
   32FTM     C830022  11.053  11.338   9.653  0.5764  0.3085  0.2101
   32FTM     C930023  11.051  11.201   9.589 -0.2918  0.2679  0.0555
   32FTM    C1030024  11.153  11.190   9.472  0.0303 -0.3065  0.1928
   32FTM    C1130025  10.672  11.326   9.789  0.0378 -0.0799 -0.1029
   32FTM    C1230026  10.615  11.442   9.861 -0.2466  0.1198 -0.7737
   33FTM     S130027   9.793  11.178   9.110 -0.1743 -0.1457 -0.0762
   33FTM     C130028   9.712  11.200   8.951 -0.3554 -0.0788  0.0242
   33FTM     C230029   9.801  11.247   8.860 -0.5049  0.1435 -0.0095
   33FTM     C330030   9.935  11.268   8.908 -0.4881  0.2724 -0.1125
   33FTM     C430031   9.948  11.236   9.039 -0.3203  0.1445 -0.1593
   33FTM     F130032   9.768  11.274   8.728 -0.6658  0.2436  0.0513
   33FTM     C530033   9.572  11.160   8.911 -0.0740  0.5326  0.1443
   33FTM     C630034   9.461  11.170   9.015 -0.0941  0.5681  0.1763
   33FTM     C730035   9.449  11.053   9.122 -0.0961  0.2006 -0.1961
   33FTM     C830036   9.432  10.911   9.074  0.2645  0.1664 -0.4006
   33FTM     C930037   9.304  10.897   8.981 -0.4233  0.8995  0.3242
   33FTM    C1030038   9.300  10.758   8.899  0.4995 -0.5186 -0.0660
   33FTM    C1130039   9.424  11.316   9.045  0.7161 -0.2933 -0.3088
   33FTM    C1230040   9.320  11.336   9.164  0.2065  0.4237  0.4791
   34TPM     C130041  10.080  10.796   9.333  0.0944 -0.0688  0.1773
   34TPM     C230042  10.154  10.685   9.362 -0.1698 -0.1155  0.6895
   34TPM     C330043  10.074  10.569   9.395 -0.4579  0.0760  0.6697
   34TPM     C430044   9.940  10.592   9.391 -0.4133  0.2686  0.1426
   34TPM     S130045   9.903  10.763   9.345 -0.0008  0.2227 -0.3737
   35BDD     C130046   9.671  10.304   9.428 -0.0600  0.1347  0.0422
   35BDD     C230047   9.684  10.325   9.294 -0.0373  0.1230  0.0424
   35BDD     C330048   9.784  10.425   9.261 -0.1712  0.2643  0.0606
   35BDD     C430049   9.846  10.478   9.370 -0.2940  0.3818  0.0741
   35BDD     S130050   9.784  10.407   9.523 -0.2505  0.3236  0.0646
   35BDD     C530051   9.605  10.255   9.191  0.1082 -0.0187  0.0260
   35BDD     C630052   9.815  10.464   9.122 -0.1724  0.2776  0.0641
   35BDD     O130053   9.901  10.550   9.093 -0.2878  0.3995  0.0799
   35BDD     O230054   9.518  10.169   9.219  0.2236 -0.1405  0.0105
   35BDD     C730055   9.736  10.394   9.018 -0.0269  0.1360  0.0477
   35BDD     C830056   9.635  10.294   9.051  0.1070 -0.0053  0.0296
   35BDD     C930057   9.573  10.241   8.942  0.2298 -0.1228  0.0162
   35BDD     S230058   9.636  10.313   8.790  0.1863 -0.0646  0.0259
   35BDD    C1030059   9.749  10.416   8.884 -0.0042  0.1242  0.0479
   35BDD    C1130060   9.850  10.499   8.802  0.0977 -0.1453 -0.0986
   35BDD    C1230061   9.795  10.620   8.729 -0.3049 -0.8802 -0.5238
   35BDD    C1330062   9.900  10.694   8.646  0.0033 -0.1829  0.0066
   35BDD    C1430063   9.989  10.619   8.552 -0.4227  0.2080  0.5327
   35BDD    C1530064  10.085  10.709   8.476 -0.1933  0.0720  1.0849
   35BDD    C1630065  10.162  10.632   8.374 -0.2035  0.0957  0.1071
   35BDD    C1730066   9.696  10.715   8.810  0.2006  0.2152 -0.6375
   35BDD    C1830067   9.759  10.797   8.910  0.4411  0.0129  0.5960
   35BDD    C1930068   9.467  10.131   8.926  0.5293  0.1055 -0.6274
   35BDD    C2030069   9.322  10.176   8.918  0.3507  0.0135  0.2067
   35BDD    C2130070   9.258  10.212   9.049  0.2276 -0.8320 -0.4232
   35BDD    C2230071   9.112  10.238   9.049  0.1131 -0.3332  0.0906
   35BDD    C2330072   9.054  10.250   9.190 -0.3720 -0.1111  0.3648
   35BDD    C2430073   9.097  10.374   9.261  0.3689  0.0817 -0.0629
   35BDD    C2530074   9.290  10.282   8.800 -0.1192 -0.0436 -0.6112
   35BDD    C2630075   9.284  10.235   8.662  0.0407 -0.0266 -0.3211
   36TPM     C130076   9.608  10.204   9.508  0.5245  0.3240 -0.1327
   36TPM     C230077   9.474  10.178   9.497  0.4883  0.5731 -0.2949
   36TPM     C330078   9.422  10.099   9.605  0.2096  0.6633 -0.3614
   36TPM     C430079   9.515  10.064   9.698  0.0336  0.4830 -0.2505
   36TPM     S130080   9.678  10.129   9.656  0.2072  0.1829 -0.0514
   37BDTP    C130081   9.365   9.708  10.198 -0.0806 -0.1530  0.0755
   37BDTP    C230082   9.507   9.693  10.193 -0.0796 -0.1193  0.0120
   37BDTP    C330083   9.585   9.756  10.096 -0.1421 -0.1329 -0.0475
   37BDTP    C430084   9.521   9.837  10.001 -0.2086 -0.1820 -0.0444
   37BDTP    C530085   9.379   9.852  10.007 -0.2098 -0.2156  0.0191
   37BDTP    C630086   9.301   9.789  10.103 -0.1470 -0.2021  0.0786
   37BDTP    C730087   9.580   9.911   9.892 -0.2801 -0.2045 -0.0991
   37BDTP    C830088   9.491   9.980   9.817 -0.3343 -0.2529 -0.0801
   37BDTP    S130089   9.320   9.961   9.873 -0.3018 -0.2767  0.0099
   37BDTP    C930090   9.306   9.634  10.308 -0.0091 -0.1304  0.1302
   37BDTP   C1030091   9.395   9.565  10.383  0.0448 -0.0823  0.1112
   37BDTP    S230092   9.566   9.584  10.326  0.0127 -0.0581  0.0212
   38FTM     S130093   9.801   9.620   9.964  0.1156  0.2888  0.1329
   38FTM     C130094   9.951   9.605  10.063  0.0963  0.0224  0.1217
   38FTM     C230095   9.935   9.670  10.181  0.1127 -0.2031  0.2494
   38FTM     C330096   9.808   9.735  10.202  0.1405 -0.1830  0.3610
   38FTM     C430097   9.725   9.718  10.095  0.1456  0.0660  0.3173
   38FTM     F130098  10.034   9.675  10.278  0.1034 -0.4411  0.2728
   38FTM     C530099  10.068   9.528  10.023  0.4419  0.3156  0.4081
   38FTM     C630100  10.055   9.375  10.017  0.0818 -0.5311  0.0284
   38FTM     C730101  10.032   9.288  10.146  0.0637 -0.0103  0.3433
   38FTM     C830102  10.152   9.292  10.244 -0.5095  0.2927  0.5498
   38FTM     C930103  10.138   9.206  10.370 -0.3218 -0.4244 -0.3941
   38FTM    C1030104  10.265   9.196  10.454 -0.3902  0.0139  0.1738
   38FTM    C1130105   9.968   9.311   9.910 -0.2673  0.7888  0.0468
   38FTM    C1230106   9.999   9.354   9.773 -0.1736  0.4503  0.4680
   39FTM     S130107   9.033   9.686  10.116 -0.1437 -0.0906  0.3823
   39FTM     C130108   8.903   9.809  10.138 -0.1470  0.0454 -0.3592
   39FTM     C230109   8.957   9.934  10.139 -0.0637  0.0097 -0.3945
   39FTM     C330110   9.099   9.942  10.123  0.0067 -0.1223  0.1401
   39FTM     C430111   9.156   9.818  10.110 -0.0245 -0.1900  0.5996
   39FTM     F130112   8.881  10.049  10.154 -0.0455  0.0945 -0.9129
   39FTM     C530113   8.760   9.772  10.150  0.7102  0.2933 -0.0010
   39FTM     C630114   8.705   9.652  10.061 -0.7273  0.0773 -0.3942
   39FTM     C730115   8.569   9.586  10.089 -0.0565  0.5979 -0.2869
   39FTM     C830116   8.552   9.516  10.223 -0.2038  0.5471 -0.8014
   39FTM     C930117   8.410   9.460  10.238  0.1266 -0.6321 -0.7277
   39FTM    C1030118   8.378   9.331  10.166  0.9449  0.0767  0.4122
   39FTM    C1130119   8.731   9.690   9.911 -0.3005 -0.3649 -0.0583
   39FTM    C1230120   8.643   9.794   9.844  0.3455  0.7597  0.2152
   40TPM     C130121   9.375   9.489  10.507  0.2174 -0.5280 -0.1380
   40TPM     C230122   9.274   9.410  10.553  0.2456 -0.3781  0.1884
   40TPM     C330123   9.293   9.363  10.688  0.3054  0.1082  0.3513
   40TPM     C430124   9.409   9.407  10.745  0.3227  0.3293  0.1492
   40TPM     S130125   9.503   9.511  10.632  0.2646 -0.0629 -0.2659
   41BDD     C130126   9.390   9.299  11.123  0.0867 -0.3728 -0.0951
   41BDD     C230127   9.523   9.318  11.098  0.0741 -0.2654 -0.0804
   41BDD     C330128   9.552   9.360  10.962  0.0284  0.0722  0.0111
   41BDD     C430129   9.439   9.372  10.884  0.0067  0.2179  0.0649
   41BDD     S130130   9.291   9.332  10.977  0.0417 -0.0582  0.0046
   41BDD     C530131   9.630   9.299  11.199  0.1040 -0.4697 -0.1499
   41BDD     C630132   9.689   9.386  10.913  0.0083  0.2389  0.0420
   41BDD     O130133   9.713   9.422  10.796 -0.0308  0.5305  0.1209
   41BDD     O230134   9.605   9.263  11.316  0.1431 -0.7613 -0.2288
   41BDD     C730135   9.795   9.367  11.014  0.0384  0.0348 -0.0275
   41BDD     C830136   9.767   9.325  11.150  0.0839 -0.3033 -0.1190
   41BDD     C930137   9.879   9.313  11.228  0.1054 -0.4487 -0.1728
   41BDD     S230138  10.027   9.353  11.135  0.0706 -0.1728 -0.1125
   41BDD    C1030139   9.928   9.386  10.990  0.0257  0.1421 -0.0128
   41BDD    C1130140  10.006   9.400  10.861 -0.0710  0.1350  0.7258
   41BDD    C1230141  10.091   9.520  10.844 -0.0270 -0.7808  0.5174
   41BDD    C1330142  10.169   9.513  10.711  0.5546  0.2118 -0.1664
   41BDD    C1430143  10.267   9.628  10.671 -0.5594 -0.6078 -0.0423
   41BDD    C1530144  10.385   9.645  10.762 -0.4309 -0.2048 -0.3908
   41BDD    C1630145  10.499   9.719  10.688 -0.2528 -0.3567  0.5638
   41BDD    C1730146  10.033   9.655  10.884  0.0773  0.0566 -0.1845
   41BDD    C1830147   9.915   9.721  10.808 -0.6794 -0.1141 -0.3423
   41BDD    C1930148   9.899   9.279  11.377 -0.1981 -0.0336  0.1949
   41BDD    C2030149   9.936   9.136  11.417 -0.2015  0.0136  0.5156
   41BDD    C2130150  10.084   9.109  11.396 -0.8887 -0.1252  0.2617
   41BDD    C2230151  10.171   9.182  11.508 -0.3206  0.1577  0.0195
   41BDD    C2330152  10.322   9.192  11.478 -0.1444  0.0194 -0.5177
   41BDD    C2430153  10.357   9.293  11.368  0.1140  0.0100  0.5535
   41BDD    C2530154   9.868   9.110  11.549 -0.0425 -0.2065 -0.6427
   41BDD    C2630155   9.724   9.060  11.549  0.0876 -0.6795 -0.2805
   42TPM     C130156   9.304   9.273  11.235  0.0628  0.1155 -0.0738
   42TPM     C230157   9.333   9.175  11.325 -0.1233  0.3037  0.1934
   42TPM     C330158   9.219   9.129  11.399 -0.2918  0.4084  0.0014
   42TPM     C430159   9.103   9.192  11.366 -0.2350  0.3001 -0.4121
   42TPM     S130160   9.129   9.315  11.237  0.0385  0.0556 -0.5925
   43BDTP    C130161   8.515   9.110  11.577 -0.1390 -0.0999 -0.0659
   43BDTP    C230162   8.589   9.013  11.651 -0.1352 -0.0606 -0.0194
   43BDTP    C330163   8.726   8.998  11.639 -0.1316 -0.0482  0.0014
   43BDTP    C430164   8.795   9.082  11.549 -0.1328 -0.0749 -0.0246
   43BDTP    C530165   8.721   9.179  11.475 -0.1373 -0.1142 -0.0711
   43BDTP    C630166   8.584   9.194  11.487 -0.1402 -0.1268 -0.0920
   43BDTP    C730167   8.936   9.085  11.520 -0.1303 -0.0686 -0.0104
   43BDTP    C830168   8.972   9.178  11.428 -0.1323 -0.1006 -0.0436
   43BDTP    S130169   8.832   9.275  11.366 -0.1376 -0.1435 -0.0974
   43BDTP    C930170   8.373   9.107  11.606 -0.1419 -0.1063 -0.0801
   43BDTP   C1030171   8.337   9.014  11.698 -0.1402 -0.0741 -0.0470
   43BDTP    S230172   8.478   8.917  11.760 -0.1346 -0.0313  0.0068
   44FTM     S130173   8.852   8.736  11.619  0.0336  0.0018 -0.0313
   44FTM     C130174   8.916   8.669  11.774  0.0094 -0.1391 -0.0822
   44FTM     C230175   8.896   8.757  11.875  0.3164 -0.0761 -0.0724
   44FTM     C330176   8.830   8.880  11.839  0.5829  0.0811 -0.0257
   44FTM     C430177   8.800   8.885  11.707  0.4765  0.1409  0.0008
   44FTM     F130178   8.935   8.733  12.006  0.3743 -0.1578 -0.1049
   44FTM     C530179   8.989   8.539  11.782 -0.0164 -0.1992  0.4433
   44FTM     C630180   8.912   8.406  11.766  0.4584  0.0420 -0.1878
   44FTM     C730181   8.799   8.391  11.874  0.2705  0.0797  0.0675
   44FTM     C830182   8.659   8.331  11.852  0.2383  0.0828  0.1038
   44FTM     C930183   8.571   8.369  11.732 -0.4031 -0.3276 -0.2557
   44FTM    C1030184   8.552   8.524  11.714 -0.0851  0.0700 -0.4864
   44FTM    C1130185   8.992   8.280  11.742 -0.3789  0.7798  0.1530
   44FTM    C1230186   9.084   8.268  11.620 -0.6191 -0.2580 -0.0358
   45FTM     S130187   8.428   9.259  11.253 -0.3219  0.1296 -0.2885
   45FTM     C130188   8.366   9.427  11.241 -0.0946  0.2530  0.2361
   45FTM     C230189   8.407   9.499  11.349  0.1404 -0.0920  0.3806
   45FTM     C330190   8.487   9.429  11.445  0.1581 -0.4644  0.0991
   45FTM     C430191   8.508   9.300  11.410 -0.0712 -0.4027 -0.2732
   45FTM     F130192   8.375   9.633  11.367  0.3538 -0.0908  0.7765
   45FTM     C530193   8.271   9.464  11.128 -0.4174 -0.4431 -0.2263
   45FTM     C630194   8.323   9.523  10.998  0.2381 -0.2552 -0.0382
   45FTM     C730195   8.439   9.452  10.923 -0.0571  0.4241 -0.0443
   45FTM     C830196   8.405   9.310  10.866 -0.0583 -0.2740 -0.6516
   45FTM     C930197   8.324   9.310  10.738  0.2876  0.7204  0.3269
   45FTM    C1030198   8.275   9.166  10.692  0.6780  0.0276 -0.2295
   45FTM    C1130199   8.368   9.670  11.006 -0.0419 -0.1001 -0.8413
   45FTM    C1230200   8.283   9.787  11.068 -0.1086  0.4153  0.1739
   46TPM     C130201   8.210   8.995  11.757 -0.1912 -0.3317  0.5210
   46TPM     C230202   8.178   8.997  11.890 -0.4060 -0.3111  0.4700
   46TPM     C330203   8.038   9.019  11.916 -0.4108 -0.0684  0.2452
   46TPM     C430204   7.963   9.034  11.803 -0.1994  0.0963  0.1248
   46TPM     S130205   8.065   9.021  11.654  0.0239 -0.0434  0.2872
   47BDD     C130206   7.588   8.987  11.720 -0.1291  0.0808 -0.2175
   47BDD     C230207   7.592   9.085  11.816 -0.1316  0.0503 -0.1862
   47BDD     C330208   7.725   9.113  11.865 -0.1200  0.1092 -0.2502
   47BDD     C430209   7.822   9.036  11.806 -0.1090  0.1835 -0.3293
   47BDD     S130210   7.752   8.924  11.684 -0.1123  0.1853 -0.3292
   47BDD     C530211   7.472   9.156  11.865 -0.1446 -0.0343 -0.0963
   47BDD     C630212   7.753   9.214  11.969 -0.1204  0.0889 -0.2305
   47BDD     O130213   7.868   9.238  12.011 -0.1106  0.1397 -0.2857
   47BDD     O230214   7.357   9.132  11.823 -0.1546 -0.0851 -0.0412
   47BDD     C730215   7.633   9.285  12.018 -0.1336  0.0045 -0.1407
   47BDD     C830216   7.499   9.258  11.969 -0.1452 -0.0544 -0.0768
   47BDD     C930217   7.403   9.334  12.028 -0.1564 -0.1290  0.0023
   47BDD     S230218   7.472   9.446  12.150 -0.1531 -0.1305  0.0022
   47BDD    C1030219   7.636   9.383  12.114 -0.1363 -0.0262 -0.1095
   47BDD    C1130220   7.742   9.462  12.189 -0.1115 -0.4568 -0.2511
   47BDD    C1230221   7.777   9.599  12.122 -0.8498  0.5371  0.1407
   47BDD    C1330222   7.665   9.696  12.093  0.4037 -0.6395 -0.3242
   47BDD    C1430223   7.685   9.806  11.987 -0.2428  0.3866  0.2491
   47BDD    C1530224   7.730   9.758  11.850 -0.4056 -0.0943  0.4468
   47BDD    C1630225   7.764   9.880  11.761 -0.0345  0.2101 -0.4559
   47BDD    C1730226   7.903   9.666  12.192  0.3577 -0.2633 -0.0740
   47BDD    C1830227   8.036   9.591  12.199  0.7926  0.4981  0.2402
   47BDD    C1930228   7.259   9.355  12.001  0.5058 -0.5373 -0.7462
   47BDD    C2030229   7.217   9.424  11.869 -0.1727 -0.3106 -0.0238
   47BDD    C2130230   7.265   9.564  11.836  0.3548 -0.5967 -0.1071
   47BDD    C2230231   7.295   9.604  11.688 -0.1056 -0.1688  0.4102
   47BDD    C2330232   7.375   9.512  11.605  0.0014  0.1198  0.5706
   47BDD    C2430233   7.386   9.556  11.460 -0.2974  0.1258  0.1507
   47BDD    C2530234   7.070   9.396  11.835  0.2639  0.5006  0.1506
   47BDD    C2630235   6.945   9.467  11.898  0.7535 -0.3084 -0.0557
   48TPM     C130236   7.492   8.926  11.635  0.3924 -0.1373 -0.1422
   48TPM     C230237   7.419   9.007  11.552  0.3942 -0.1490 -0.1549
   48TPM     C330238   7.370   8.941  11.435  0.3186 -0.1888 -0.1009
   48TPM     C430239   7.405   8.809  11.427  0.2595 -0.2075 -0.0471
   48TPM     S130240   7.504   8.759  11.569  0.2949 -0.1760 -0.0606
   49BDTP    C130241   7.276   8.377  10.993  0.0161  0.0405 -0.1534
   49BDTP    C230242   7.199   8.488  10.947 -0.0283  0.0196 -0.1302
   49BDTP    C330243   7.197   8.610  11.014 -0.0840  0.0021 -0.1001
   49BDTP    C430244   7.273   8.623  11.131 -0.0963  0.0052 -0.0923
   49BDTP    C530245   7.350   8.512  11.177 -0.0519  0.0265 -0.1155
   49BDTP    C630246   7.352   8.390  11.110  0.0037  0.0440 -0.1456
   49BDTP    C730247   7.287   8.739  11.216 -0.1505 -0.0103 -0.0627
   49BDTP    C830248   7.368   8.721  11.323 -0.1489 -0.0024 -0.0625
   49BDTP    S130249   7.440   8.554  11.330 -0.0787  0.0267 -0.0998
   49BDTP    C930250   7.263   8.260  10.908  0.0703  0.0563 -0.1830
   49BDTP   C1030251   7.181   8.279  10.801  0.0689  0.0477 -0.1832
   49BDTP    S230252   7.109   8.446  10.794 -0.0015  0.0192 -0.1459
   50FTM     S130253   7.150   8.886  10.950 -0.0955  0.0125 -0.0334
   50FTM     C130254   6.982   8.931  10.900 -0.0116 -0.2380 -0.5529
   50FTM     C230255   6.902   8.821  10.904  0.0906 -0.3147 -0.5906
   50FTM     C330256   6.964   8.698  10.945  0.1094 -0.1862 -0.2266
   50FTM     C430257   7.096   8.715  10.973  0.0187 -0.0050  0.1005
   50FTM     F130258   6.767   8.825  10.870  0.1732 -0.5057 -0.9569
   50FTM     C530259   6.969   9.075  10.856 -0.0915  0.3112 -0.0443
   50FTM     C630260   6.996   9.121  10.712  0.3120 -0.1918 -0.1415
   50FTM     C730261   6.917   9.039  10.605  0.1154 -0.4960  0.4510
   50FTM     C830262   6.759   9.054  10.608 -0.4784 -0.4212 -0.1109
   50FTM     C930263   6.683   8.973  10.505  0.1869 -0.3430  0.0946
   50FTM    C1030264   6.683   8.825  10.525  0.0839 -0.1032  0.1384
   50FTM    C1130265   6.994   9.271  10.713  0.4649 -0.0798  0.1457
   50FTM    C1230266   7.036   9.349  10.591  0.1649 -0.2354  0.3407
   51FTM     S130267   7.609   8.291  11.192 -0.1101 -0.0433  0.0881
   51FTM     C130268   7.609   8.136  11.282  0.2406  0.2178  0.5450
   51FTM     C230269   7.483   8.085  11.288  0.3355  0.0031  0.7870
   51FTM     C330270   7.381   8.162  11.223  0.1460 -0.3688  0.6357
   51FTM     C430271   7.431   8.276  11.167 -0.1024 -0.4409  0.2656
   51FTM     F130272   7.453   7.965  11.351  0.5997  0.1302  1.1600
   51FTM     C530273   7.727   8.071  11.347  0.3365  0.4851  0.1867
   51FTM     C630274   7.869   8.068  11.280 -0.1568 -0.6127 -0.1999
   51FTM     C730275   7.970   7.976  11.344  0.5934  0.1318  0.6265
   51FTM     C830276   8.005   7.993  11.489  0.3271  0.2821 -0.2054
   51FTM     C930277   8.097   8.110  11.503 -0.1737 -0.7198  0.4110
   51FTM    C1030278   8.161   8.114  11.641  0.2067  0.3609 -0.3606
   51FTM    C1130279   7.874   8.056  11.128  0.0523  0.1284 -0.3513
   51FTM    C1230280   7.828   7.934  11.050 -0.5522 -0.2984 -0.5932
   52TPM     C130281   7.144   8.185  10.703  0.5558  0.1389  0.6668
   52TPM     C230282   7.067   8.218  10.595  1.0315  0.7448  0.5015
   52TPM     C330283   7.053   8.111  10.499  0.8506  1.0362  0.2006
   52TPM     C430284   7.119   7.997  10.534  0.2368  0.6526  0.1364
   52TPM     S130285   7.205   8.015  10.692 -0.1634 -0.1126  0.4536
   53BDD     C130286   7.284   7.705  10.328  0.0393 -0.0161 -0.0755
   53BDD     C230287   7.157   7.714  10.278  0.0495 -0.0008 -0.0989
   53BDD     C330288   7.080   7.822  10.338  0.0409 -0.0122 -0.0897
   53BDD     C430289   7.149   7.893  10.432  0.0241 -0.0358 -0.0594
   53BDD     S130290   7.316   7.831  10.452  0.0181 -0.0457 -0.0404
   53BDD     C530291   7.102   7.624  10.175  0.0675  0.0246 -0.1306
   53BDD     C630292   6.940   7.850  10.299  0.0495  0.0010 -0.1113
   53BDD     O130293   6.873   7.943  10.350  0.0420 -0.0088 -0.1033
   53BDD     O230294   7.169   7.532  10.124  0.0747  0.0342 -0.1385
   53BDD     C730295   6.885   7.760  10.195  0.0675  0.0265 -0.1429
   53BDD     C830296   6.962   7.653  10.136  0.0759  0.0377 -0.1521
   53BDD     C930297   6.893   7.581  10.042  0.0926  0.0612 -0.1824
   53BDD     S230298   6.726   7.644  10.021  0.0988  0.0711 -0.2014
   53BDD    C1030299   6.758   7.770  10.146  0.0776  0.0415 -0.1663
   53BDD    C1130300   6.635   7.858  10.177 -0.2506  0.1463  0.3348
   53BDD    C1230301   6.556   7.922  10.062  0.4727  0.0252  0.6481
   53BDD    C1330302   6.644   8.014   9.979  0.1002 -0.1562 -0.9668
   53BDD    C1430303   6.589   8.075   9.855  0.3153 -0.6863  0.1115
   53BDD    C1530304   6.559   7.994   9.728  0.2087  0.1514 -0.3749
   53BDD    C1630305   6.684   7.917   9.670  0.5365 -0.0387 -0.4994
   53BDD    C1730306   6.418   7.977  10.113  0.0013 -0.1841  0.0918
   53BDD    C1830307   6.408   8.104  10.195 -0.2712 -0.0408 -0.3161
   53BDD    C1930308   6.916   7.467   9.951  0.3463 -0.2259  0.3287
   53BDD    C2030309   6.917   7.476   9.794 -0.9811 -1.0505  0.4201
   53BDD    C2130310   7.032   7.562   9.735 -0.1573  0.9217 -0.2584
   53BDD    C2230311   7.078   7.554   9.590 -0.3678 -0.2902  0.9497
   53BDD    C2330312   7.090   7.422   9.523 -0.6113 -1.1762  0.3493
   53BDD    C2430313   7.195   7.435   9.410  0.2627 -0.3975 -0.2371
   53BDD    C2530314   6.786   7.487   9.717 -0.0794 -0.6360 -0.0368
   53BDD    C2630315   6.670   7.397   9.761  0.3156 -0.9626  0.3885
   54TPM     C130316   7.405   7.617  10.311 -0.2008  0.0249  0.0454
   54TPM     C230317   7.508   7.619  10.401 -0.3122 -0.1786  0.1810
   54TPM     C330318   7.618   7.535  10.365 -0.3610 -0.2673  0.2401
   54TPM     C430319   7.600   7.467  10.248 -0.2868 -0.1315  0.1495
   54TPM     S130320   7.441   7.506  10.173 -0.1485  0.1210 -0.0186
   55BDTP    C130321   8.014   7.108   9.948 -0.1249  0.0460 -0.0358
   55BDTP    C230322   7.899   7.099   9.864 -0.1386 -0.0870 -0.0033
   55BDTP    C330323   7.779   7.162   9.894 -0.1680 -0.1308 -0.0283
   55BDTP    C430324   7.772   7.239  10.011 -0.1851 -0.0393 -0.0883
   55BDTP    C530325   7.887   7.248  10.095 -0.1719  0.0938 -0.1208
   55BDTP    C630326   8.007   7.184  10.065 -0.1426  0.1376 -0.0957
   55BDTP    C730327   7.659   7.313  10.063 -0.2162 -0.0617 -0.1237
   55BDTP    C830328   7.683   7.377  10.180 -0.2265  0.0468 -0.1805
   55BDTP    S130329   7.853   7.352  10.241 -0.1985  0.1925 -0.1972
   55BDTP    C930330   8.127   7.034   9.896 -0.0942  0.0684 -0.0003
   55BDTP   C1030331   8.103   6.970   9.779 -0.0837 -0.0401  0.0565
   55BDTP    S230332   7.934   6.995   9.718 -0.1118 -0.1857  0.0731
   56FTM     S130333   7.498   7.120   9.881 -0.4671  0.2335  0.2347
   56FTM     C130334   7.422   7.142   9.719 -0.1455 -0.0951  0.0350
   56FTM     C230335   7.518   7.165   9.625  0.0451 -0.3376  0.1695
   56FTM     C330336   7.653   7.166   9.672 -0.0451 -0.2843  0.4296
   56FTM     C430337   7.661   7.144   9.807 -0.3137  0.0089  0.4966
   56FTM     F130338   7.489   7.186   9.491  0.3126 -0.6225  0.0648
   56FTM     C530339   7.271   7.118   9.708 -0.2747 -0.6200  0.0221
   56FTM     C630340   7.228   6.976   9.672  0.5073  0.1132 -0.0084
   56FTM     C730341   7.076   6.967   9.639  0.3843 -0.4847 -0.2245
   56FTM     C830342   7.052   7.006   9.494 -0.2319 -0.1182  0.0612
   56FTM     C930343   6.905   7.036   9.474 -0.3421  0.7742 -0.3703
   56FTM    C1030344   6.883   7.113   9.346  0.2271 -0.4992 -0.4523
   56FTM    C1130345   7.286   6.868   9.760 -0.5722  0.2173 -0.1112
   56FTM    C1230346   7.260   6.721   9.734  0.0742  0.0195  0.2469
   57FTM     S130347   8.286   7.261  10.112 -0.2611  0.0179  0.0031
   57FTM     C130348   8.336   7.244  10.284 -0.1613 -0.6535 -0.0845
   57FTM     C230349   8.232   7.198  10.358 -0.1256 -0.9202 -0.1993
   57FTM     C330350   8.110   7.173  10.288 -0.1726 -0.6257 -0.2255
   57FTM     C430351   8.121   7.201  10.155 -0.2468 -0.1169 -0.1275
   57FTM     F130352   8.242   7.175  10.495 -0.0482 -1.4468 -0.2875
   57FTM     C530353   8.469   7.282  10.352 -0.0655 -0.6483  0.1307
   57FTM     C630354   8.559   7.395  10.287  0.0978  0.2430 -0.0245
   57FTM     C730355   8.693   7.419  10.359  0.3139 -0.0927  0.3280
   57FTM     C830356   8.789   7.300  10.361 -0.5840  0.2084  0.1018
   57FTM     C930357   8.903   7.318  10.459  0.1181  0.2221 -0.5635
   57FTM    C1030358   8.997   7.196  10.473  0.1473  0.2947 -0.1110
   57FTM    C1130359   8.493   7.523  10.239 -0.1469 -0.7057 -0.5008
   57FTM    C1230360   8.435   7.622  10.338 -0.0750 -0.0617 -0.7615
   58TPM     C130361   8.186   6.873   9.711 -0.5467 -0.2445  0.3773
   58TPM     C230362   8.161   6.791   9.605 -0.5009 -0.4520  0.5262
   58TPM     C330363   8.266   6.695   9.580 -0.3614 -0.3153  0.5859
   58TPM     C430364   8.371   6.705   9.667 -0.3017 -0.0039  0.4823
   58TPM     S130365   8.344   6.836   9.788 -0.4172  0.1421  0.3001
   59BDD     C130366   8.611   6.402   9.585  0.1584  0.0374 -0.1582
   59BDD     C230367   8.689   6.497   9.646  0.1602 -0.0118 -0.0842
   59BDD     C330368   8.615   6.617   9.683  0.1481 -0.0681  0.0725
   59BDD     C430369   8.483   6.611   9.650  0.1373 -0.0611  0.1150
   59BDD     S130370   8.441   6.456   9.570  0.1416  0.0166 -0.0379
   59BDD     C530371   8.833   6.481   9.671  0.1733 -0.0088 -0.1540
   59BDD     C630372   8.679   6.732   9.750  0.1478 -0.1266  0.1738
   59BDD     O130373   8.616   6.835   9.783  0.1373 -0.1751  0.3088
   59BDD     O230374   8.897   6.378   9.639  0.1838  0.0398 -0.2890
   59BDD     C730375   8.824   6.716   9.776  0.1607 -0.1236  0.1040
   59BDD     C830376   8.897   6.597   9.738  0.1726 -0.0674 -0.0527
   59BDD     C930377   9.030   6.602   9.771  0.1838 -0.0744 -0.0949
   59BDD     S230378   9.072   6.757   9.851  0.1796 -0.1519  0.0579
   59BDD    C1030379   8.901   6.811   9.837  0.1626 -0.1727  0.1786
   59BDD    C1130380   8.875   6.952   9.877  0.7841  0.0794 -0.7878
   59BDD    C1230381   8.850   6.955  10.032 -0.0967 -0.5186  0.5993
   59BDD    C1330382   8.981   6.931  10.115  0.2512 -0.5819 -0.6214
   59BDD    C1430383   8.962   6.872  10.260  0.3867 -0.0993 -0.4211
   59BDD    C1530384   9.083   6.824  10.340  0.0818 -0.3024  0.4814
   59BDD    C1630385   9.050   6.726  10.442  0.2148  0.4009 -0.1472
   59BDD    C1730386   8.763   7.069  10.092 -0.4011 -0.2669 -0.2976
   59BDD    C1830387   8.620   7.071  10.040 -0.6022  0.2387  0.2631
   59BDD    C1930388   9.145   6.510   9.747 -0.3949  0.9057 -0.4102
   59BDD    C2030389   9.194   6.415   9.867 -0.4676  0.0252 -0.1238
   59BDD    C2130390   9.300   6.299   9.831 -0.0396 -0.5201  0.2017
   59BDD    C2230391   9.268   6.217   9.697 -0.3425  0.1684 -0.8086
   59BDD    C2330392   9.133   6.139   9.697  0.8032 -0.5813 -0.0351
   59BDD    C2430393   9.114   6.041   9.587  0.4186  0.2006 -0.1710
   59BDD    C2530394   9.212   6.477  10.013 -0.0338  0.1216 -0.2586
   59BDD    C2630395   9.341   6.561  10.044  0.0846 -0.1018  0.3767
   60TPM     C130396   8.625   6.258   9.553 -0.0885 -0.1679 -0.2232
   60TPM     C230397   8.530   6.164   9.583 -0.1357 -0.2191 -0.5238
   60TPM     C330398   8.572   6.029   9.558  0.0420 -0.2009 -0.3357
   60TPM     C430399   8.699   6.019   9.508  0.2245 -0.1355  0.1087
   60TPM     S130400   8.776   6.181   9.490  0.1859 -0.0920  0.3251
    1BDTP    C130401   4.811   1.052   0.123  0.1378 -0.0032  0.0989
    1BDTP    C230402   4.905   1.054   0.016  0.1400  0.0415  0.1014
    1BDTP    C330403   4.939   1.170  -0.052  0.1131  0.0637  0.1256
    1BDTP    C430404   4.877   1.290  -0.014  0.0829  0.0407  0.1486
    1BDTP    C530405   4.782   1.288   0.093  0.0808 -0.0041  0.1461
    1BDTP    C630406   4.748   1.172   0.161  0.1075 -0.0263  0.1218
    1BDTP    C730407   4.896   1.422  -0.070  0.0516  0.0567  0.1758
    1BDTP    C830408   4.821   1.519  -0.011  0.0266  0.0265  0.1937
    1BDTP    S130409   4.716   1.455   0.124  0.0390 -0.0265  0.1785
    1BDTP    C930410   4.792   0.920   0.179  0.1689 -0.0192  0.0716
    1BDTP   C1030411   4.867   0.823   0.120  0.1940  0.0110  0.0538
    1BDTP    S230412   4.971   0.886  -0.014  0.1817  0.0639  0.0690
    2FTM     S130413   5.058   1.249  -0.302 -0.0311  0.2176 -0.2674
    2FTM     C130414   5.236   1.227  -0.316 -0.0544 -0.0523 -0.1666
    2FTM     C230415   5.285   1.167  -0.204 -0.1999 -0.0657 -0.1104
    2FTM     C330416   5.189   1.134  -0.103 -0.2995  0.1284 -0.1421
    2FTM     C430417   5.062   1.171  -0.139 -0.2279  0.2959 -0.2246
    2FTM     F130418   5.419   1.137  -0.187 -0.2513 -0.2545 -0.0274
    2FTM     C530419   5.321   1.263  -0.436 -0.0855 -0.7095 -0.4946
    2FTM     C630420   5.256   1.252  -0.579 -0.6883  0.1418  0.1654
    2FTM     C730421   5.200   1.113  -0.607 -0.1264 -0.1498  0.3117
    2FTM     C830422   5.292   0.997  -0.594 -0.3791  0.1851 -0.1169
    2FTM     C930423   5.224   0.868  -0.629  0.1005 -0.0877  0.2620
    2FTM    C1030424   5.319   0.747  -0.618 -0.6038 -0.0845 -0.0408
    2FTM    C1130425   5.162   1.363  -0.620 -0.7611  0.8851  0.1023
    2FTM    C1230426   5.087   1.353  -0.751  0.1781 -0.4113 -0.5524
    3FTM     S130427   4.505   1.076   0.282  0.0370 -0.1173 -0.1287
    3FTM     C130428   4.469   1.144   0.444  0.2011  0.1409 -0.1982
    3FTM     C230429   4.568   1.229   0.483  0.1966  0.2723 -0.4704
    3FTM     C330430   4.676   1.245   0.390  0.0683  0.1825 -0.6375
    3FTM     C430431   4.659   1.171   0.277 -0.0287 -0.0245 -0.4884
    3FTM     F130432   4.567   1.296   0.604  0.3083  0.4817 -0.5844
    3FTM     C530433   4.353   1.089   0.529  0.4044 -0.6924 -0.2031
    3FTM     C630434   4.209   1.123   0.485 -0.1904  0.0236 -0.0131
    3FTM     C730435   4.099   1.076   0.582  0.3744  0.1743 -0.8847
    3FTM     C830436   4.095   1.134   0.720 -0.1240 -0.6581 -0.4204
    3FTM     C930437   3.976   1.095   0.802 -0.1046 -0.0467  0.0078
    3FTM    C1030438   3.999   1.164   0.940  0.3791 -0.0652  0.1183
    3FTM    C1130439   4.157   1.097   0.337 -0.6847 -0.1898 -0.6733
    3FTM    C1230440   4.145   0.946   0.295  0.4502 -0.8203  0.4061
    4TPM     C130441   4.852   0.679   0.151 -0.0578 -0.1001 -0.3930
    4TPM     C230442   4.942   0.580   0.125 -0.1729 -0.1759 -0.5100
    4TPM     C330443   4.893   0.448   0.155 -0.2632 -0.1391 -0.4953
    4TPM     C430444   4.765   0.446   0.203 -0.2172 -0.0354 -0.3671
    4TPM     S130445   4.697   0.613   0.214 -0.0548  0.0244 -0.2541
    5BDD     C130446   4.493   0.166   0.152 -0.0191 -0.0750  0.0657
    5BDD     C230447   4.599   0.103   0.211 -0.0298 -0.0878  0.0716
    5BDD     C330448   4.713   0.191   0.233 -0.0215 -0.1008  0.0803
    5BDD     C430449   4.692   0.319   0.192 -0.0044 -0.0978  0.0810
    5BDD     S130450   4.528   0.339   0.121  0.0024 -0.0784  0.0708
    5BDD     C530451   4.600  -0.040   0.249 -0.0484 -0.0885  0.0693
    5BDD     C630452   4.839   0.144   0.296 -0.0308 -0.1159  0.0876
    5BDD     O130453   4.937   0.219   0.315 -0.0236 -0.1271  0.0951
    5BDD     O230454   4.502  -0.115   0.229 -0.0556 -0.0772  0.0618
    5BDD     C730455   4.839   0.001   0.333 -0.0491 -0.1166  0.0853
    5BDD     C830456   4.726  -0.087   0.311 -0.0575 -0.1035  0.0766
    5BDD     C930457   4.747  -0.215   0.353 -0.0746 -0.1066  0.0759
    5BDD     S230458   4.911  -0.235   0.423 -0.0815 -0.1264  0.0861
    5BDD    C1030459   4.946  -0.062   0.392 -0.0600 -0.1295  0.0911
    5BDD    C1130460   5.087  -0.011   0.423 -0.4029  0.8200  0.2446
    5BDD    C1230461   5.158  -0.032   0.559  0.1460  0.3491  0.1142
    5BDD    C1330462   5.283   0.045   0.551 -0.1857 -0.5851  0.2756
    5BDD    C1430463   5.376   0.069   0.662 -0.5746  0.1309 -0.6923
    5BDD    C1530464   5.503   0.149   0.631 -0.2449  0.0065 -0.9217
    5BDD    C1630465   5.592   0.139   0.752 -0.6834 -0.0381 -0.5314
    5BDD    C1730466   5.173  -0.178   0.608  0.0449 -0.7520  0.0987
    5BDD    C1830467   5.241  -0.279   0.514  0.0636  0.6697 -0.2030
    5BDD    C1930468   4.676  -0.349   0.351 -0.4915  0.2100  0.2010
    5BDD    C2030469   4.569  -0.361   0.462  0.6151  0.0797  0.1477
    5BDD    C2130470   4.499  -0.494   0.432 -0.1525 -0.0206  0.1008
    5BDD    C2230471   4.354  -0.506   0.441  0.5335  0.5621 -0.4155
    5BDD    C2330472   4.267  -0.416   0.350  0.7477 -0.0967 -0.0857
    5BDD    C2430473   4.113  -0.449   0.359  0.0011 -0.6828 -0.5305
    5BDD    C2530474   4.616  -0.318   0.603  0.3195  0.2916 -0.3305
    5BDD    C2630475   4.515  -0.315   0.713  0.0872  0.1190  0.4023
    6TPM     C130476   4.352   0.133   0.111 -0.4460 -0.2043 -0.0912
    6TPM     C230477   4.311   0.013   0.061 -0.6614 -0.1759  0.0130
    6TPM     C330478   4.175   0.012   0.015 -0.5977  0.0885 -0.1805
    6TPM     C430479   4.112   0.132   0.029 -0.3337  0.2617 -0.4323
    6TPM     S130480   4.220   0.256   0.104 -0.1435  0.1031 -0.4446
    7BDTP    C130481   3.527   0.323  -0.096 -0.0845  0.0089  0.0560
    7BDTP    C230482   3.522   0.184  -0.131 -0.1225 -0.0178  0.1678
    7BDTP    C330483   3.632   0.100  -0.121 -0.1180 -0.0157  0.1369
    7BDTP    C430484   3.753   0.155  -0.074 -0.0741  0.0140 -0.0117
    7BDTP    C530485   3.758   0.293  -0.040 -0.0362  0.0407 -0.1240
    7BDTP    C630486   3.648   0.377  -0.050 -0.0407  0.0386 -0.0926
    7BDTP    C730487   3.880   0.088  -0.055 -0.0611  0.0219 -0.0706
    7BDTP    C830488   3.979   0.167  -0.009 -0.0158  0.0529 -0.2198
    7BDTP    S130489   3.925   0.339   0.017  0.0167  0.0763 -0.3066
    7BDTP    C930490   3.400   0.390  -0.115 -0.0975  0.0009  0.1147
    7BDTP   C1030491   3.301   0.310  -0.162 -0.1428 -0.0300  0.2639
    7BDTP    S230492   3.355   0.138  -0.188 -0.1753 -0.0534  0.3506
    8FTM     S130493   3.655  -0.177  -0.032  0.2470 -0.3819  0.0614
    8FTM     C130494   3.601  -0.298  -0.154 -0.3630  0.1944 -0.2539
    8FTM     C230495   3.564  -0.234  -0.268 -0.7342  0.7262  0.1509
    8FTM     C330496   3.574  -0.092  -0.268 -0.5707  0.7186  0.7169
    8FTM     C430497   3.622  -0.044  -0.150 -0.0577  0.1620  0.7468
    8FTM     F130498   3.517  -0.302  -0.380 -1.2439  1.2524  0.0324
    8FTM     C530499   3.607  -0.444  -0.125  0.4101  0.4487 -0.2255
    8FTM     C630500   3.519  -0.500  -0.012 -0.5029  0.0771 -0.4551
    8FTM     C730501   3.368  -0.489  -0.024 -0.2844 -0.2182  0.3438
    8FTM     C830502   3.297  -0.547  -0.146  0.2247 -0.1823 -0.3035
    8FTM     C930503   3.258  -0.691  -0.148  0.1070  0.0726  0.7671
    8FTM    C1030504   3.211  -0.726  -0.287 -0.0799  0.3466 -0.2993
    8FTM    C1130505   3.579  -0.486   0.127  0.7810 -0.4290 -0.4914
    8FTM    C1230506   3.720  -0.511   0.165 -0.3279 -0.5514  0.6381
    9FTM     S130507   3.749   0.563   0.145  0.1148 -0.1458 -0.0931
    9FTM     C130508   3.748   0.735   0.089 -0.1590 -0.2401 -0.3893
    9FTM     C230509   3.683   0.745  -0.029 -0.7774 -0.4425 -0.0744
    9FTM     C330510   3.630   0.623  -0.083 -1.0688 -0.5343  0.4048
    9FTM     C430511   3.657   0.516  -0.003 -0.6603 -0.3978  0.4591
    9FTM     F130512   3.666   0.865  -0.096 -1.1162 -0.5566 -0.2015
    9FTM     C530513   3.808   0.844   0.173 -1.0016 -0.1723  0.5222
    9FTM     C630514   3.751   0.912   0.297  0.2041  0.4431 -0.0362
    9FTM     C730515   3.723   0.814   0.415  0.1356  0.0438 -0.2014
    9FTM     C830516   3.855   0.764   0.474 -0.5511  0.5794 -0.2881
    9FTM     C930517   3.847   0.724   0.627 -0.3518  0.1612  0.0293
    9FTM    C1030518   3.985   0.692   0.691  0.2077 -0.5517 -0.1023
    9FTM    C1130519   3.626   0.991   0.263 -0.1641 -0.0075 -0.7171
    9FTM    C1230520   3.652   1.119   0.187  0.4498 -0.6202  0.1437
   10TPM     C130521   3.164   0.347  -0.187 -0.0909  0.0140 -0.0477
   10TPM     C230522   3.066   0.263  -0.232 -0.0924  0.1200 -0.2437
   10TPM     C330523   2.935   0.323  -0.234 -0.0380  0.2350 -0.4263
   10TPM     C430524   2.933   0.452  -0.190  0.0051  0.2166 -0.3694
   10TPM     S130525   3.098   0.509  -0.143 -0.0200  0.0515 -0.0786
   11BDD     C130526   2.571   0.607  -0.192 -0.0718  0.2627  0.1305
   11BDD     C230527   2.632   0.662  -0.082 -0.0395  0.1718  0.1585
   11BDD     C330528   2.767   0.614  -0.061 -0.0748  0.0669  0.1459
   11BDD     C430529   2.807   0.522  -0.154 -0.1337  0.0793  0.1085
   11BDD     S130530   2.679   0.490  -0.275 -0.1488  0.2232  0.0858
   11BDD     C530531   2.568   0.762   0.006  0.0252  0.1781  0.1984
   11BDD     C630532   2.851   0.660   0.051 -0.0489 -0.0419  0.1719
   11BDD     O130533   2.968   0.618   0.070 -0.0794 -0.1324  0.1609
   11BDD     O230534   2.451   0.803  -0.013  0.0557  0.2686  0.2096
   11BDD     C730535   2.787   0.760   0.140  0.0157 -0.0356  0.2120
   11BDD     C830536   2.652   0.808   0.118  0.0511  0.0693  0.2246
   11BDD     C930537   2.612   0.900   0.211  0.1100  0.0569  0.2623
   11BDD     S230538   2.740   0.932   0.332  0.1251 -0.0870  0.2846
   11BDD    C1030539   2.848   0.815   0.249  0.0481 -0.1265  0.2401
   11BDD    C1130540   2.982   0.800   0.310  0.2219 -0.1756 -0.6735
   11BDD    C1230541   3.114   0.841   0.235 -0.0597  0.2398 -0.8336
   11BDD    C1330542   3.236   0.820   0.333  0.3371 -0.4111  0.2360
   11BDD    C1430543   3.267   0.681   0.399  0.0520  0.5535 -0.2573
   11BDD    C1530544   3.338   0.593   0.301 -0.9714  0.0191 -0.7231
   11BDD    C1630545   3.396   0.473   0.366  0.5865 -0.2259  0.4531
   11BDD    C1730546   3.110   0.978   0.163  0.4875 -1.3933 -0.3874
   11BDD    C1830547   3.233   1.011   0.074  0.0999  0.2843 -0.3633
   11BDD    C1930548   2.489   0.986   0.216  0.0148 -0.1483 -0.7748
   11BDD    C2030549   2.387   0.941   0.318 -0.2599 -0.9379 -0.4424
   11BDD    C2130550   2.273   1.043   0.333 -0.0967 -0.6249  0.6568
   11BDD    C2230551   2.305   1.198   0.356 -1.1734 -0.4345  0.0631
   11BDD    C2330552   2.371   1.221   0.499 -0.2268 -0.3011  1.0198
   11BDD    C2430553   2.400   1.371   0.514 -0.1519  0.3538 -0.2093
   11BDD    C2530554   2.331   0.802   0.302 -0.1211  0.3682  0.4064
   11BDD    C2630555   2.236   0.755   0.415  0.0680 -0.3446  0.1294
   12TPM     C130556   2.435   0.610  -0.257 -0.0800 -0.1829  0.0090
   12TPM     C230557   2.350   0.717  -0.256 -0.4171 -0.4444  0.3760
   12TPM     C330558   2.229   0.695  -0.331 -0.5226 -0.6997  0.6173
   12TPM     C430559   2.221   0.572  -0.388 -0.2658 -0.6329  0.4342
   12TPM     S130560   2.367   0.472  -0.352  0.1322 -0.2393 -0.0609
   13BDTP    C130561   1.821   0.336  -0.811  0.1569 -0.0155  0.2327
   13BDTP    C230562   1.732   0.390  -0.713  0.1473 -0.0705  0.2542
   13BDTP    C330563   1.776   0.453  -0.598  0.1358 -0.0597  0.2527
   13BDTP    C430564   1.915   0.464  -0.577  0.1337  0.0085  0.2294
   13BDTP    C530565   2.004   0.411  -0.675  0.1433  0.0635  0.2079
   13BDTP    C630566   1.960   0.348  -0.791  0.1549  0.0527  0.2095
   13BDTP    C730567   1.984   0.525  -0.466  0.1225  0.0323  0.2229
   13BDTP    C830568   2.119   0.521  -0.475  0.1234  0.1016  0.1986
   13BDTP    S130569   2.177   0.438  -0.626  0.1384  0.1465  0.1800
   13BDTP    C930570   1.752   0.275  -0.923  0.1681 -0.0393  0.2389
   13BDTP   C1030571   1.617   0.280  -0.914  0.1673 -0.1086  0.2632
   13BDTP    S230572   1.558   0.362  -0.763  0.1523 -0.1535  0.2821
   14FTM     S130573   1.665   0.424  -0.341  0.0416 -0.2600  0.0419
   14FTM     C130574   1.533   0.540  -0.297  0.1539 -0.0916 -0.0613
   14FTM     C230575   1.513   0.627  -0.399  0.2840 -0.1218 -0.1137
   14FTM     C330576   1.596   0.611  -0.514  0.3038 -0.2740 -0.0777
   14FTM     C430577   1.683   0.507  -0.501  0.1850 -0.3633  0.0047
   14FTM     F130578   1.417   0.728  -0.393  0.3929 -0.0134 -0.1979
   14FTM     C530579   1.479   0.536  -0.150 -0.4403  0.7234  0.3644
   14FTM     C630580   1.325   0.556  -0.134  0.1359  0.6797  0.0683
   14FTM     C730581   1.283   0.570   0.014  0.6252  0.5703  0.5039
   14FTM     C830582   1.320   0.695   0.086  0.0145  0.1440 -0.1678
   14FTM     C930583   1.291   0.835   0.034  0.1754  0.3391 -0.2177
   14FTM    C1030584   1.346   0.947   0.127  0.1063  0.5560  0.0049
   14FTM    C1130585   1.235   0.463  -0.223 -0.6047  0.9816 -0.1273
   14FTM    C1230586   1.235   0.312  -0.211 -0.4856 -0.4298 -0.0820
   15FTM     S130587   2.060   0.133  -0.956  0.1834 -0.0010  0.1239
   15FTM     C130588   2.192   0.176  -1.071 -0.0263  0.2023 -0.0429
   15FTM     C230589   2.223   0.308  -1.058 -0.1533  0.2301 -0.0200
   15FTM     C330590   2.148   0.382  -0.961 -0.0966  0.0981  0.1252
   15FTM     C430591   2.056   0.304  -0.897  0.0795 -0.0350  0.2164
   15FTM     F130592   2.321   0.370  -1.134 -0.3285  0.3766 -0.1290
   15FTM     C530593   2.261   0.063  -1.148  0.2457 -0.2219 -0.3955
   15FTM     C630594   2.405   0.005  -1.111 -0.4340 -0.7924 -0.0215
   15FTM     C730595   2.453  -0.104  -1.209  0.2833 -0.2936  0.2037
   15FTM     C830596   2.453  -0.088  -1.366 -0.6970  0.0142  0.3097
   15FTM     C930597   2.537  -0.192  -1.433  0.3229  0.2187  0.0414
   15FTM    C1030598   2.546  -0.181  -1.588 -0.3036 -0.5172  0.0924
   15FTM    C1130599   2.429  -0.034  -0.959  0.5629  0.6149  1.0113
   15FTM    C1230600   2.348  -0.156  -0.912  0.9836  0.1664 -0.1262
   16TPM     C130601   1.523   0.253  -1.017 -0.2342  0.2292 -0.4735
   16TPM     C230602   1.541   0.181  -1.131 -0.2054  0.3176 -0.5257
   16TPM     C330603   1.419   0.151  -1.201 -0.2068  0.2048 -0.4756
   16TPM     C430604   1.307   0.201  -1.140 -0.2367  0.0304 -0.3854
   16TPM     S130605   1.348   0.290  -0.989 -0.2655 -0.0051 -0.3564
   17BDD     C130606   0.925   0.108  -1.132 -0.1858 -0.1827 -0.0657
   17BDD     C230607   0.959   0.102  -1.264 -0.1691 -0.0840 -0.0665
   17BDD     C330608   1.099   0.132  -1.289 -0.1969  0.0655 -0.0412
   17BDD     C430609   1.169   0.161  -1.175 -0.2343  0.0786 -0.0214
   17BDD     S130610   1.065   0.153  -1.030 -0.2374 -0.0953 -0.0331
   17BDD     C530611   0.865   0.067  -1.373 -0.1271 -0.1234 -0.0904
   17BDD     C630612   1.158   0.131  -1.425 -0.1853  0.1900 -0.0377
   17BDD     O130613   1.278   0.157  -1.446 -0.2092  0.3189 -0.0157
   17BDD     O230614   0.744   0.041  -1.351 -0.1032 -0.2524 -0.1121
   17BDD     C730615   1.063   0.096  -1.533 -0.1433  0.1505 -0.0615
   17BDD     C830616   0.924   0.066  -1.508 -0.1155  0.0010 -0.0865
   17BDD     C930617   0.854   0.036  -1.622 -0.0781 -0.0121 -0.1066
   17BDD     S230618   0.958   0.045  -1.768 -0.0750  0.1619 -0.0948
   17BDD    C1030619   1.098   0.090  -1.665 -0.1266  0.2493 -0.0623
   17BDD    C1130620   1.228   0.112  -1.741  0.0641  0.2483  0.2164
   17BDD    C1230621   1.304  -0.006  -1.816 -0.5396 -0.7010 -0.7382
   17BDD    C1330622   1.427   0.050  -1.886  0.0096  0.1183  0.2367
   17BDD    C1430623   1.414   0.168  -1.987 -0.5080  0.4458 -0.0201
   17BDD    C1530624   1.549   0.190  -2.058  0.2464  0.1077 -0.0591
   17BDD    C1630625   1.552   0.303  -2.155 -0.2691 -0.2647  0.7135
   17BDD    C1730626   1.357  -0.131  -1.751  0.1476  0.2639  0.2472
   17BDD    C1830627   1.243  -0.232  -1.715 -0.9991  0.0727  0.1528
   17BDD    C1930628   0.706  -0.012  -1.643 -0.9447  0.0451 -0.3575
   17BDD    C2030629   0.684  -0.160  -1.612  0.4861  0.4749 -0.5662
   17BDD    C2130630   0.750  -0.259  -1.711  0.4430  0.6192 -0.4057
   17BDD    C2230631   0.735  -0.409  -1.680  0.0813 -0.3267 -0.7540
   17BDD    C2330632   0.762  -0.496  -1.798 -0.2729 -0.0121 -0.2888
   17BDD    C2430633   0.743  -0.643  -1.761  0.1523 -0.0099 -0.7714
   17BDD    C2530634   0.534  -0.182  -1.578  0.2012 -0.3289  0.1673
   17BDD    C2630635   0.433  -0.179  -1.693  0.2380  0.3156 -0.3483
   18TPM     C130636   0.806   0.095  -1.052  0.2621  0.1454 -0.1000
   18TPM     C230637   0.801   0.009  -0.947  0.5657  0.0147 -0.1905
   18TPM     C330638   0.669  -0.005  -0.889  0.6929 -0.1991  0.0529
   18TPM     C430639   0.574   0.071  -0.951  0.4862 -0.2313  0.3290
   18TPM     S130640   0.644   0.167  -1.087  0.1121  0.0075  0.3028
   19BDTP    C130641  -0.042   0.092  -0.837 -0.2089 -0.2409 -0.1931
   19BDTP    C230642  -0.022   0.206  -0.920 -0.1385 -0.1159 -0.0060
   19BDTP    C330643   0.103   0.241  -0.969 -0.0927 -0.0279  0.1707
   19BDTP    C430644   0.213   0.160  -0.935 -0.1171 -0.0647  0.1624
   19BDTP    C530645   0.192   0.046  -0.852 -0.1873 -0.1896 -0.0250
   19BDTP    C630646   0.068   0.011  -0.803 -0.2332 -0.2776 -0.2017
   19BDTP    C730647   0.351   0.176  -0.975 -0.0792  0.0099  0.3250
   19BDTP    C830648   0.435   0.082  -0.926 -0.1172 -0.0522  0.2697
   19BDTP    S130649   0.350  -0.042  -0.823 -0.2062 -0.2139  0.0038
   19BDTP    C930650  -0.181   0.075  -0.797 -0.2468 -0.3154 -0.3557
   19BDTP   C1030651  -0.264   0.170  -0.846 -0.2089 -0.2533 -0.3009
   19BDTP    S230652  -0.179   0.294  -0.949 -0.1196 -0.0916 -0.0346
   20FTM     S130653   0.246   0.487  -1.056 -0.1187  0.1007 -0.1385
   20FTM     C130654   0.174   0.568  -1.200  0.1256  0.1210 -0.2492
   20FTM     C230655   0.065   0.500  -1.242  0.3266  0.0024 -0.5817
   20FTM     C330656   0.031   0.382  -1.168  0.3035 -0.1089 -0.7660
   20FTM     C430657   0.117   0.360  -1.064  0.0774 -0.0743 -0.5684
   20FTM     F130658  -0.011   0.539  -1.351  0.5434 -0.0126 -0.7391
   20FTM     C530659   0.237   0.702  -1.231 -0.1412 -0.4937  0.4841
   20FTM     C630660   0.201   0.778  -1.357 -0.4527  0.1652 -0.1175
   20FTM     C730661   0.246   0.703  -1.492 -0.0231 -0.3241 -0.8779
   20FTM     C830662   0.398   0.674  -1.497  0.0177  0.0312 -0.2282
   20FTM     C930663   0.485   0.802  -1.532 -0.3370  0.6447  0.9720
   20FTM    C1030664   0.635   0.767  -1.543  0.3107  0.1591 -0.3630
   20FTM    C1130665   0.062   0.850  -1.343  0.5498 -0.2853 -0.2420
   20FTM    C1230666   0.007   0.931  -1.457 -0.0470  0.6538  0.5467
   21FTM     S130667  -0.080  -0.232  -0.720  0.2147 -0.1932  0.1518
   21FTM     C130668  -0.020  -0.306  -0.567  0.2186  0.1958  0.3409
   21FTM     C230669   0.080  -0.231  -0.515  0.2191  0.3293  0.1469
   21FTM     C330670   0.116  -0.114  -0.590  0.2172  0.1416 -0.1531
   21FTM     C430671   0.041  -0.099  -0.702  0.2144 -0.1447 -0.1903
   21FTM     F130672   0.146  -0.263  -0.398  0.2217  0.6292  0.2296
   21FTM     C530673  -0.068  -0.436  -0.509  0.5534 -0.2930 -0.0813
   21FTM     C630674  -0.216  -0.465  -0.504  0.3921  0.1821 -0.1303
   21FTM     C730675  -0.289  -0.501  -0.635  0.1549  0.4168 -0.4927
   21FTM     C830676  -0.272  -0.644  -0.683  0.6260 -0.0901 -0.0652
   21FTM     C930677  -0.364  -0.687  -0.810  0.3150 -0.4115 -0.4332
   21FTM    C1030678  -0.346  -0.838  -0.835  0.3711  0.4760  0.1638
   21FTM    C1130679  -0.313  -0.373  -0.417  0.0531  0.3142 -0.4393
   21FTM    C1230680  -0.284  -0.367  -0.266  0.1666 -1.0550  0.0470
   22TPM     C130681  -0.402   0.174  -0.798 -0.0418 -0.0104  0.0498
   22TPM     C230682  -0.505   0.259  -0.825  0.0074  0.0900  0.1771
   22TPM     C330683  -0.631   0.218  -0.768 -0.0372  0.0243  0.0324
   22TPM     C430684  -0.624   0.102  -0.698 -0.1203 -0.1261 -0.2058
   22TPM     S130685  -0.457   0.034  -0.698 -0.1487 -0.1970 -0.2659
   23BDD     C130686  -0.810  -0.076  -0.411 -0.1417  0.1318  0.2506
   23BDD     C230687  -0.897  -0.073  -0.517 -0.0396  0.0873  0.1650
   23BDD     C330688  -0.848   0.005  -0.630  0.1070 -0.0334  0.1459
   23BDD     C430689  -0.724   0.059  -0.609  0.1150 -0.0790  0.2175
   23BDD     S130690  -0.661   0.018  -0.446 -0.0606  0.0262  0.3133
   23BDD     C530691  -1.028  -0.140  -0.518 -0.0739  0.1538  0.0975
   23BDD     C630692  -0.925   0.021  -0.755  0.2344 -0.0992  0.0579
   23BDD     O130693  -0.883   0.088  -0.852  0.3610 -0.2034  0.0415
   23BDD     O230694  -1.071  -0.207  -0.421 -0.2005  0.2580  0.1140
   23BDD     C730695  -1.057  -0.047  -0.756  0.2005 -0.0329 -0.0095
   23BDD     C830696  -1.106  -0.124  -0.643  0.0534  0.0882  0.0093
   23BDD     C930697  -1.229  -0.178  -0.664  0.0458  0.1335 -0.0615
   23BDD     S230698  -1.293  -0.137  -0.827  0.2214  0.0283 -0.1576
   23BDD    C1030699  -1.144  -0.043  -0.861  0.3026 -0.0775 -0.0947
   23BDD    C1130700  -1.138   0.023  -0.997  0.2933 -0.3689 -0.3500
   23BDD    C1230701  -1.101  -0.075  -1.113 -0.5556 -0.2832 -0.2281
   23BDD    C1330702  -0.965  -0.153  -1.087  0.4061 -0.1828  0.1458
   23BDD    C1430703  -0.925  -0.262  -1.188  0.4040 -0.0988  0.0211
   23BDD    C1530704  -1.033  -0.366  -1.219 -0.4715 -0.0699 -0.0505
   23BDD    C1630705  -1.072  -0.456  -1.098  0.0752  0.0503  0.0077
   23BDD    C1730706  -1.116  -0.014  -1.256  0.1064 -0.4065  0.4817
   23BDD    C1830707  -1.258   0.019  -1.306  0.4003 -0.1630 -0.3320
   23BDD    C1930708  -1.306  -0.280  -0.580 -0.0179  0.4858 -0.2505
   23BDD    C2030709  -1.397  -0.219  -0.471 -0.5676  0.0338 -0.4288
   23BDD    C2130710  -1.458  -0.330  -0.386  0.3658  0.8309 -0.3916
   23BDD    C2230711  -1.567  -0.309  -0.279 -0.3151  0.3275 -0.8704
   23BDD    C2330712  -1.583  -0.446  -0.220 -0.0118  0.1340  0.4031
   23BDD    C2430713  -1.662  -0.443  -0.096  0.1999  0.2386 -0.2369
   23BDD    C2530714  -1.492  -0.111  -0.523 -0.7388 -0.5565  0.3006
   23BDD    C2630715  -1.609  -0.139  -0.614  0.4175 -0.3656 -0.1774
   24TPM     C130716  -0.793  -0.144  -0.287  0.1066 -0.2958 -0.3252
   24TPM     C230717  -0.896  -0.166  -0.200 -0.0086 -0.7837 -0.5772
   24TPM     C330718  -0.853  -0.209  -0.069 -0.1290 -0.6983 -0.5088
   24TPM     C430719  -0.717  -0.220  -0.057 -0.1059 -0.1449 -0.2045
   24TPM     S130720  -0.633  -0.176  -0.210  0.0715  0.3147  0.0212
   25BDTP    C130721  -0.378  -0.355   0.451 -0.0317 -0.1097  0.0665
   25BDTP    C230722  -0.281  -0.307   0.359 -0.0415  0.0713  0.1499
   25BDTP    C330723  -0.314  -0.260   0.232 -0.0222  0.0322  0.1306
   25BDTP    C430724  -0.450  -0.261   0.195  0.0076 -0.1950  0.0240
   25BDTP    C530725  -0.547  -0.310   0.287  0.0172 -0.3757 -0.0593
   25BDTP    C630726  -0.514  -0.356   0.414 -0.0018 -0.3371 -0.0400
   25BDTP    C730727  -0.508  -0.218   0.069  0.0318 -0.2772 -0.0155
   25BDTP    C830728  -0.642  -0.231   0.063  0.0582 -0.5076 -0.1231
   25BDTP    S130729  -0.714  -0.300   0.215  0.0570 -0.6537 -0.1895
   25BDTP    C930730  -0.320  -0.398   0.577 -0.0558 -0.0277  0.1060
   25BDTP   C1030731  -0.185  -0.385   0.583 -0.0823  0.2031  0.2137
   25BDTP    S230732  -0.113  -0.316   0.431 -0.0811  0.3489  0.2801
   26FTM     S130733  -0.222  -0.023   0.119 -0.2260 -0.0716  0.0269
   26FTM     C130734  -0.088  -0.033  -0.001  0.1616  0.1865  0.4331
   26FTM     C230735  -0.048  -0.162  -0.015  0.6957  0.3030  0.8101
   26FTM     C330736  -0.117  -0.259   0.064  0.8318  0.2007  0.8062
   26FTM     C430737  -0.214  -0.202   0.142  0.3888 -0.0001  0.4134
   26FTM     F130738   0.054  -0.200  -0.101  1.0922  0.5088  1.1811
   26FTM     C530739  -0.039   0.102  -0.056  0.8404  0.6993 -0.1046
   26FTM     C630740   0.025   0.114  -0.194 -0.1540 -0.8726 -0.1253
   26FTM     C730741  -0.052   0.044  -0.304 -0.1663  0.2403 -0.5155
   26FTM     C830742  -0.206   0.069  -0.326  0.2122 -0.2315  0.1553
   26FTM     C930743  -0.240   0.215  -0.359  0.4739  0.1751  0.0508
   26FTM    C1030744  -0.391   0.242  -0.348  0.0696  0.1284 -0.1807
   26FTM    C1130745   0.173   0.070  -0.199  0.3694  0.3068  0.3109
   26FTM    C1230746   0.282   0.147  -0.125 -0.4220  0.0941  0.6759
   27FTM     S130747  -0.643  -0.300   0.658 -0.0685 -0.2474 -0.1166
   27FTM     C130748  -0.799  -0.384   0.693 -0.2633 -0.0107 -0.4117
   27FTM     C230749  -0.826  -0.474   0.595 -0.1597 -0.0465 -0.4076
   27FTM     C330750  -0.729  -0.483   0.489  0.0720 -0.2551 -0.1802
   27FTM     C430751  -0.625  -0.398   0.507  0.1480 -0.3830 -0.0045
   27FTM     F130752  -0.939  -0.553   0.595 -0.2682  0.1070 -0.6095
   27FTM     C530753  -0.871  -0.347   0.817  0.4611  0.5005  0.3208
   27FTM     C630754  -0.835  -0.417   0.947  0.1147  0.9946  0.0571
   27FTM     C730755  -0.862  -0.347   1.079 -0.3755  0.2014 -0.2581
   27FTM     C830756  -0.769  -0.226   1.113  0.1862 -0.2513  0.1940
   27FTM     C930757  -0.787  -0.138   1.233  0.0264 -0.0622 -0.8362
   27FTM    C1030758  -0.779  -0.212   1.372 -0.3252 -1.2274  0.0572
   27FTM    C1130759  -0.837  -0.572   0.956 -0.1141  0.5989  0.2891
   27FTM    C1230760  -0.978  -0.632   0.964  0.3118 -0.6352  0.0178
   28TPM     C130761  -0.094  -0.413   0.691 -0.2625  0.3878  0.0844
   28TPM     C230762   0.039  -0.383   0.701 -0.4344  1.0505  0.5124
   28TPM     C330763   0.104  -0.446   0.813 -0.4034  1.0855  0.5139
   28TPM     C430764   0.021  -0.524   0.888 -0.2082  0.4493  0.0870
   28TPM     S130765  -0.147  -0.524   0.823 -0.0469 -0.2485 -0.3534
   29BDD     C130766   0.248  -0.635   1.195  0.1820  0.0703  0.0047
   29BDD     C230767   0.119  -0.651   1.240  0.1585  0.0653 -0.0643
   29BDD     C330768   0.019  -0.616   1.141  0.2106  0.1507 -0.0870
   29BDD     C430769   0.073  -0.574   1.022  0.2731  0.2191 -0.0350
   29BDD     S130770   0.252  -0.576   1.026  0.2709  0.1822  0.0460
   29BDD     C530771   0.084  -0.698   1.375  0.0873 -0.0179 -0.1119
   29BDD     C630772  -0.126  -0.625   1.167  0.1967  0.1607 -0.1595
   29BDD     O130773  -0.212  -0.595   1.082  0.2415  0.2344 -0.1791
   29BDD     O230774   0.170  -0.728   1.461  0.0423 -0.0913 -0.0923
   29BDD     C730775  -0.161  -0.672   1.303  0.1254  0.0780 -0.2070
   29BDD     C830776  -0.061  -0.707   1.402  0.0732 -0.0074 -0.1843
   29BDD     C930777  -0.114  -0.749   1.521  0.0110 -0.0761 -0.2363
   29BDD     S230778  -0.294  -0.747   1.516  0.0133 -0.0388 -0.3173
   29BDD    C1030779  -0.289  -0.688   1.347  0.1018  0.0730 -0.2760
   29BDD    C1130780  -0.425  -0.646   1.288 -0.1555  0.8186 -0.0552
   29BDD    C1230781  -0.530  -0.757   1.246 -0.1572 -0.0277  0.1473
   29BDD    C1330782  -0.611  -0.834   1.352  0.1761  0.6261  0.1400
   29BDD    C1430783  -0.708  -0.764   1.450 -0.6672  0.3262  0.4791
   29BDD    C1530784  -0.810  -0.676   1.378  0.8539 -0.1571 -0.3375
   29BDD    C1630785  -0.927  -0.608   1.458  0.2178  0.1719  0.0447
   29BDD    C1730786  -0.480  -0.850   1.126 -0.0724 -0.5266  0.4715
   29BDD    C1830787  -0.570  -0.963   1.070  0.2559 -0.0977  0.2085
   29BDD    C1930788  -0.061  -0.787   1.662  0.6703 -0.0652 -0.4724
   29BDD    C2030789  -0.080  -0.933   1.712  0.2346  0.1054  0.8879
   29BDD    C2130790  -0.223  -0.982   1.742  0.7801  0.3100  0.6208
   29BDD    C2230791  -0.314  -0.914   1.842  0.7672 -0.1464 -0.6028
   29BDD    C2330792  -0.263  -0.911   1.990 -0.3056  0.0094  1.1383
   29BDD    C2430793  -0.363  -0.837   2.081 -0.2736 -0.6063 -0.5648
   29BDD    C2530794  -0.002  -1.034   1.624  0.2769 -0.0355  0.4939
   29BDD    C2630795   0.027  -1.159   1.694  0.4491 -0.1597  0.3656
   30TPM     C130796   0.380  -0.649   1.253 -0.0414  0.3651  0.3967
   30TPM     C230797   0.414  -0.771   1.303 -0.1732  0.4096  0.5965
   30TPM     C330798   0.556  -0.794   1.310 -0.2015  0.1528  0.3498
   30TPM     C430799   0.630  -0.690   1.265 -0.0913 -0.0884 -0.0382
   30TPM     S130800   0.527  -0.553   1.210  0.0579 -0.0083 -0.1227
   31BDTP    C130801   1.241  -0.535   1.236  0.0754 -0.0348 -0.0556
   31BDTP    C230802   1.230  -0.591   1.367  0.1212 -0.1338 -0.0938
   31BDTP    C330803   1.110  -0.643   1.416  0.1428 -0.1876 -0.0979
   31BDTP    C430804   0.997  -0.639   1.332  0.1182 -0.1419 -0.0627
   31BDTP    C530805   1.009  -0.583   1.201  0.0724 -0.0429 -0.0246
   31BDTP    C630806   1.128  -0.531   1.153  0.0508  0.0110 -0.0205
   31BDTP    C730807   0.864  -0.687   1.361  0.1333 -0.1826 -0.0595
   31BDTP    C830808   0.775  -0.670   1.259  0.1016 -0.1197 -0.0212
   31BDTP    S130809   0.849  -0.591   1.113  0.0479  0.0000  0.0160
   31BDTP    C930810   1.375  -0.487   1.207  0.0603  0.0057 -0.0589
   31BDTP   C1030811   1.463  -0.505   1.309  0.0921 -0.0572 -0.0972
   31BDTP    S230812   1.389  -0.584   1.455  0.1457 -0.1765 -0.1344
   32FTM     S130813   1.011  -0.823   1.613  0.2151  0.0433 -0.1170
   32FTM     C130814   1.054  -0.783   1.783  0.3128  0.0884 -0.1527
   32FTM     C230815   1.128  -0.669   1.786  0.1651  0.1855 -0.2096
   32FTM     C330816   1.154  -0.607   1.660 -0.0284  0.2291 -0.2286
   32FTM     C430817   1.099  -0.676   1.556 -0.0288  0.1642 -0.1847
   32FTM     F130818   1.176  -0.613   1.904  0.1963  0.2401 -0.2480
   32FTM     C530819   1.006  -0.877   1.892  0.6660 -0.0198  0.5895
   32FTM     C630820   0.872  -0.838   1.956  0.3206 -0.5175 -0.8552
   32FTM     C730821   0.757  -0.801   1.853  0.4022  0.1409  0.3564
   32FTM     C830822   0.690  -0.917   1.786 -0.5434  0.6107  0.4231
   32FTM     C930823   0.572  -0.879   1.689  0.0442  0.4439 -0.4029
   32FTM    C1030824   0.498  -0.999   1.630 -0.1815  0.0744 -0.1858
   32FTM    C1130825   0.891  -0.729   2.064  0.8568  0.8756  0.1666
   32FTM    C1230826   0.972  -0.766   2.185  0.0166 -0.1366 -0.8242
   33FTM     S130827   1.258  -0.512   0.898 -0.2554 -0.1475 -0.0124
   33FTM     C130828   1.197  -0.384   0.788  0.4914  0.4837  0.2860
   33FTM     C230829   1.092  -0.320   0.845  0.7213  0.8142  0.3412
   33FTM     C330830   1.054  -0.365   0.976  0.3400  0.6015  0.1592
   33FTM     C430831   1.132  -0.467   1.019 -0.1995  0.0919 -0.0419
   33FTM     F130832   1.024  -0.216   0.783  1.2908  1.3285  0.5598
   33FTM     C530833   1.261  -0.363   0.660 -0.4150 -0.0624  0.0692
   33FTM     C630834   1.414  -0.330   0.665 -0.4327 -0.4485  0.2706
   33FTM     C730835   1.485  -0.317   0.525  0.1868  0.3921  0.0540
   33FTM     C830836   1.473  -0.445   0.436 -0.2458 -0.4559 -0.4716
   33FTM     C930837   1.531  -0.416   0.299  0.1836 -0.3020  0.9655
   33FTM    C1030838   1.550  -0.544   0.217  0.5615  0.2660 -0.1764
   33FTM    C1130839   1.444  -0.203   0.744 -0.4274  0.7142 -0.4975
   33FTM    C1230840   1.589  -0.183   0.778 -0.1411  0.1017  0.4041
   34TPM     C130841   1.598  -0.467   1.303 -0.2806 -0.4723 -0.2003
   34TPM     C230842   1.655  -0.348   1.268 -0.4402 -0.5054 -0.5906
   34TPM     C330843   1.798  -0.347   1.280 -0.4305 -0.3128 -0.7120
   34TPM     C430844   1.851  -0.465   1.323 -0.2635 -0.1326 -0.4142
   34TPM     S130845   1.721  -0.588   1.353 -0.1042 -0.1933  0.0462
   35BDD     C130846   2.196  -0.572   1.496  0.0172  0.0476 -0.0822
   35BDD     C230847   2.231  -0.485   1.397  0.0117  0.1247 -0.0168
   35BDD     C330848   2.118  -0.435   1.321 -0.0088  0.3223  0.1441
   35BDD     C430849   1.998  -0.484   1.364 -0.0184  0.3930  0.1991
   35BDD     S130850   2.018  -0.597   1.501 -0.0026  0.2174  0.0532
   35BDD     C530851   2.371  -0.446   1.368  0.0249  0.0191 -0.0999
   35BDD     C630852   2.134  -0.339   1.209 -0.0179  0.4337  0.2375
   35BDD     O130853   2.037  -0.296   1.144 -0.0355  0.6039  0.3763
   35BDD     O230854   2.468  -0.489   1.434  0.0425 -0.1512 -0.2386
   35BDD     C730855   2.273  -0.300   1.181 -0.0045  0.3283  0.1544
   35BDD     C830856   2.386  -0.350   1.256  0.0159  0.1307 -0.0065
   35BDD     C930857   2.507  -0.301   1.214  0.0255  0.0598 -0.0615
   35BDD     S230858   2.487  -0.188   1.076  0.0097  0.2355  0.0844
   35BDD    C1030859   2.309  -0.213   1.081 -0.0102  0.4053  0.2198
   35BDD    C1130860   2.228  -0.140   0.977 -0.3945  0.1595  0.2549
   35BDD    C1230861   2.162  -0.007   0.991 -0.2908 -1.1444  0.5950
   35BDD    C1330862   2.255   0.112   1.037  0.0351  0.2032  0.9347
   35BDD    C1430863   2.201   0.248   1.047  0.8151  0.2352 -0.5665
   35BDD    C1530864   2.306   0.349   1.086  0.2746  0.0194  0.4847
   35BDD    C1630865   2.248   0.484   1.120  0.6076  0.3890 -0.5152
   35BDD    C1730866   2.070   0.032   0.869 -0.1709 -0.1836  0.3468
   35BDD    C1830867   1.939  -0.045   0.858 -0.2630  0.0941  0.2852
   35BDD    C1930868   2.651  -0.330   1.249 -0.8271  0.5812  0.3597
   35BDD    C2030869   2.691  -0.270   1.384 -0.6114  0.0457  0.1906
   35BDD    C2130870   2.655  -0.120   1.404 -0.7275 -0.5741  0.1371
   35BDD    C2230871   2.739  -0.015   1.310  0.0490  0.9418  0.3220
   35BDD    C2330872   2.704   0.130   1.324 -0.2049 -0.3340  0.0706
   35BDD    C2430873   2.570   0.174   1.260  0.2179  0.3633 -0.1293
   35BDD    C2530874   2.833  -0.310   1.430  0.0543  0.1365  0.2606
   35BDD    C2630875   2.880  -0.270   1.565  0.0675 -0.7270 -0.6573
   36TPM     C130876   2.260  -0.652   1.598  0.2610  0.4208  0.0691
   36TPM     C230877   2.389  -0.695   1.598  0.2796  0.4737  0.4102
   36TPM     C330878   2.418  -0.791   1.702  0.0266  0.4308  0.4437
   36TPM     C430879   2.311  -0.821   1.781 -0.1849  0.3458  0.1281
   36TPM     S130880   2.164  -0.730   1.729 -0.0801  0.3126 -0.2387
   37BDTP    C130881   2.351  -1.258   2.235  0.2039  0.1109  0.0772
   37BDTP    C230882   2.210  -1.238   2.224  0.2137  0.1717  0.0593
   37BDTP    C330883   2.154  -1.148   2.134  0.2615  0.1588  0.0162
   37BDTP    C430884   2.240  -1.074   2.051  0.3013  0.0827 -0.0105
   37BDTP    C530885   2.381  -1.094   2.062  0.2915  0.0217  0.0075
   37BDTP    C630886   2.437  -1.184   2.152  0.2438  0.0349  0.0505
   37BDTP    C730887   2.205  -0.976   1.951  0.3538  0.0551 -0.0560
   37BDTP    C830888   2.311  -0.921   1.888  0.3835 -0.0219 -0.0728
   37BDTP    S130889   2.471  -0.987   1.945  0.3491 -0.0710 -0.0335
   37BDTP    C930890   2.386  -1.357   2.335  0.1515  0.1383  0.1228
   37BDTP   C1030891   2.280  -1.411   2.399  0.1218  0.2155  0.1397
   37BDTP    S230892   2.120  -1.345   2.341  0.1562  0.2645  0.1002
   38FTM     S130893   1.913  -1.247   2.035  0.0886 -0.2166  0.1315
   38FTM     C130894   1.761  -1.166   2.089  0.0966 -0.0136 -0.1445
   38FTM     C230895   1.791  -1.063   2.173  0.1026  0.2186 -0.4299
   38FTM     C330896   1.931  -1.041   2.199  0.1014  0.2522 -0.4508
   38FTM     C430897   2.010  -1.131   2.133  0.0942  0.0386 -0.1723
   38FTM     F130898   1.695  -0.982   2.231  0.1096  0.4146 -0.6891
   38FTM     C530899   1.628  -1.197   2.038  0.2044 -0.0734 -0.1749
   38FTM     C630900   1.609  -1.163   1.890 -0.1585 -0.2871 -0.6148
   38FTM     C730901   1.495  -1.244   1.823 -0.1405 -0.4054  0.2281
   38FTM     C830902   1.493  -1.401   1.821  0.5611 -0.5385  0.3275
   38FTM     C930903   1.614  -1.486   1.786 -0.1645 -0.3896 -0.2866
   38FTM    C1030904   1.605  -1.633   1.821  0.1953 -0.3031 -0.5009
   38FTM    C1130905   1.590  -1.008   1.864  0.1344  0.9013  0.0317
   38FTM    C1230906   1.487  -0.921   1.942 -0.3651  0.1264 -0.0986
   39FTM     S130907   2.659  -1.177   2.328 -0.3444 -0.0094  0.0230
   39FTM     C130908   2.813  -1.242   2.260 -0.1200  0.0432  0.4790
   39FTM     C230909   2.799  -1.267   2.128  0.2477 -0.0703  0.4584
   39FTM     C330910   2.670  -1.238   2.071  0.3742 -0.2019  0.0956
   39FTM     C430911   2.583  -1.189   2.164  0.0943 -0.1887 -0.1703
   39FTM     F130912   2.901  -1.318   2.049  0.4914 -0.0615  0.7669
   39FTM     C530913   2.928  -1.276   2.347 -0.4834 -1.3459  0.1746
   39FTM     C630914   2.938  -1.419   2.387  0.2904  0.4320  0.1494
   39FTM     C730915   3.077  -1.483   2.420 -0.3824  0.8648  0.3070
   39FTM     C830916   3.212  -1.476   2.340  0.0965  0.3512 -0.0578
   39FTM     C930917   3.224  -1.554   2.216 -0.2936 -0.3113 -0.0869
   39FTM    C1030918   3.216  -1.706   2.225 -0.1576  0.4768  0.1660
   39FTM    C1130919   2.815  -1.485   2.457 -0.6735 -0.5239 -0.2153
   39FTM    C1230920   2.771  -1.427   2.598 -0.1693 -1.1416  0.0428
   40TPM     C130921   2.273  -1.521   2.488 -0.2146 -0.0551  0.2416
   40TPM     C230922   2.351  -1.555   2.595  0.0575  0.0339  0.0746
   40TPM     C330923   2.308  -1.676   2.660  0.3774 -0.0502  0.1287
   40TPM     C430924   2.199  -1.734   2.604  0.3491 -0.2030  0.3370
   40TPM     S130925   2.140  -1.639   2.462 -0.0869 -0.2533  0.4819
   41BDD     C130926   1.898  -1.947   2.737  0.0073 -0.2550  0.0586
   41BDD     C230927   2.010  -2.021   2.764  0.0173 -0.2464  0.0409
   41BDD     C330928   2.133  -1.956   2.725  0.0111 -0.2034  0.0930
   41BDD     C430929   2.114  -1.833   2.669 -0.0035 -0.1800  0.1494
   41BDD     S130930   1.940  -1.790   2.662 -0.0106 -0.2100  0.1414
   41BDD     C530931   2.007  -2.155   2.827  0.0330 -0.2772 -0.0242
   41BDD     C630932   2.266  -2.018   2.745  0.0200 -0.1870  0.0848
   41BDD     O130933   2.373  -1.962   2.711  0.0147 -0.1500  0.1295
   41BDD     O230934   1.900  -2.211   2.860  0.0383 -0.3142 -0.0690
   41BDD     C730935   2.263  -2.152   2.807  0.0357 -0.2179  0.0196
   41BDD     C830936   2.139  -2.217   2.846  0.0418 -0.2608 -0.0324
   41BDD     C930937   2.158  -2.341   2.902  0.0566 -0.2843 -0.0888
   41BDD     S230938   2.332  -2.384   2.910  0.0636 -0.2542 -0.0807
   41BDD    C1030939   2.374  -2.227   2.834  0.0457 -0.2092  0.0020
   41BDD    C1130940   2.520  -2.203   2.815 -0.5789  0.4016 -0.2910
   41BDD    C1230941   2.590  -2.137   2.936 -0.1358  1.0038  0.1183
   41BDD    C1330942   2.731  -2.082   2.900  0.1382 -0.5087  0.1031
   41BDD    C1430943   2.759  -1.983   2.781  0.2119  0.5304 -0.8202
   41BDD    C1530944   2.671  -1.855   2.771  0.0108  0.2225  0.2725
   41BDD    C1630945   2.676  -1.748   2.879 -0.0879 -0.2842 -0.2746
   41BDD    C1730946   2.584  -2.221   3.068  0.1134 -0.2263 -1.0422
   41BDD    C1830947   2.616  -2.145   3.196 -0.2038  0.3247  0.4519
   41BDD    C1930948   2.061  -2.442   2.974  0.1377  0.3414  0.3614
   41BDD    C2030949   1.974  -2.528   2.875 -0.0948 -0.1121 -0.0588
   41BDD    C2130950   1.848  -2.587   2.953  0.6286  0.1648 -0.3877
   41BDD    C2230951   1.881  -2.687   3.065  0.1941  0.5020 -0.6674
   41BDD    C2330952   1.760  -2.715   3.146 -0.2605  0.1731 -0.4547
   41BDD    C2430953   1.789  -2.822   3.252 -0.2815 -0.4778 -1.1150
   41BDD    C2530954   2.041  -2.618   2.764 -0.1840  0.5957 -0.4770
   41BDD    C2630955   1.957  -2.668   2.646 -0.2683  0.5984 -0.4462
   42TPM     C130956   1.752  -1.962   2.759  0.1055 -0.3523  0.6874
   42TPM     C230957   1.680  -2.072   2.721 -0.1731 -0.2502  0.9117
   42TPM     C330958   1.538  -2.054   2.730 -0.1374  0.2637  0.5162
   42TPM     C430959   1.501  -1.930   2.775  0.1683  0.5535 -0.0095
   42TPM     S130960   1.644  -1.827   2.809  0.4371  0.1969 -0.0464
   43BDTP    C130961   0.888  -1.862   2.864  0.2265 -0.2947  0.0457
   43BDTP    C230962   0.940  -1.844   2.995  0.2668 -0.0401 -0.0055
   43BDTP    C330963   1.076  -1.845   3.023  0.2767  0.0459 -0.0497
   43BDTP    C430964   1.165  -1.865   2.916  0.2453 -0.1274 -0.0432
   43BDTP    C530965   1.114  -1.884   2.785  0.2050 -0.3822  0.0081
   43BDTP    C630966   0.978  -1.883   2.757  0.1951 -0.4679  0.0524
   43BDTP    C730967   1.310  -1.870   2.920  0.2481 -0.0825 -0.0830
   43BDTP    C830968   1.369  -1.892   2.800  0.2123 -0.2886 -0.0644
   43BDTP    S130969   1.249  -1.909   2.665  0.1701 -0.5684  0.0063
   43BDTP    C930970   0.744  -1.857   2.859  0.2236 -0.3395  0.0855
   43BDTP   C1030971   0.685  -1.836   2.980  0.2594 -0.1335  0.0669
   43BDTP    S230972   0.805  -1.819   3.115  0.3017  0.1465 -0.0037
   44FTM     S130973   1.262  -1.936   3.229  0.1203  0.1756  0.0706
   44FTM     C130974   1.265  -1.839   3.381  0.3440  0.0374  0.1548
   44FTM     C230975   1.174  -1.739   3.374  0.4117  0.1128  0.3357
   44FTM     C330976   1.097  -1.732   3.253  0.2965  0.2786  0.4179
   44FTM     C430977   1.131  -1.830   3.165  0.1354  0.3317  0.2960
   44FTM     F130978   1.154  -1.648   3.477  0.5819  0.0364  0.4376
   44FTM     C530979   1.376  -1.866   3.486  0.0000  0.4207  0.7373
   44FTM     C630980   1.379  -1.995   3.577 -0.6485 -0.4523  0.0425
   44FTM     C730981   1.501  -1.989   3.673 -0.2172  0.3099 -0.0005
   44FTM     C830982   1.639  -1.978   3.604 -0.5486  0.3023  0.2459
   44FTM     C930983   1.680  -2.091   3.509 -0.3728 -0.0768 -0.3927
   44FTM    C1030984   1.818  -2.065   3.444 -0.1991  0.2064 -0.5403
   44FTM    C1130985   1.245  -2.024   3.642  0.2554  0.3119  0.2560
   44FTM    C1230986   1.255  -2.162   3.718  0.8592  0.3336 -0.1867
   45FTM     S130987   0.814  -2.037   2.582 -0.0467  0.1382  0.0141
   45FTM     C130988   0.794  -1.971   2.416 -0.0512  0.4065  0.1205
   45FTM     C230989   0.871  -1.860   2.400  0.1502  0.2811  0.2133
   45FTM     C330990   0.948  -1.820   2.514  0.3163 -0.0242  0.2074
   45FTM     C430991   0.930  -1.904   2.620  0.2395 -0.1359  0.1068
   45FTM     F130992   0.875  -1.787   2.282  0.1961  0.4351  0.3091
   45FTM     C530993   0.705  -2.028   2.307 -0.1088 -0.1147  0.9008
   45FTM     C630994   0.628  -2.160   2.335 -0.0045 -0.6946  0.5056
   45FTM     C730995   0.708  -2.280   2.382  0.2757  0.2343  0.1732
   45FTM     C830996   0.819  -2.341   2.295  0.3440 -0.1713 -0.0714
   45FTM     C930997   0.866  -2.488   2.315  0.3119 -0.4308  0.1116
   45FTM    C1030998   0.895  -2.513   2.462  0.2913  0.5892  0.0908
   45FTM    C1130999   0.513  -2.183   2.234  0.1474  0.0052 -0.1008
   45FTM    C1231000   0.542  -2.220   2.094  0.0321  0.3385 -0.3712
   46TPM     C131001   0.550  -1.803   3.001 -0.3538  0.0441  0.4117
   46TPM     C231002   0.504  -1.725   3.102 -0.3790  0.4599  0.0868
   46TPM     C331003   0.361  -1.704   3.098 -0.3185  0.8093 -0.2806
   46TPM     C431004   0.300  -1.765   2.993 -0.2471  0.6599 -0.2359
   46TPM     S131005   0.417  -1.856   2.891 -0.2508  0.0614  0.2777
   47BDD     C131006  -0.087  -1.707   3.012 -0.0357 -0.1299 -0.0081
   47BDD     C231007  -0.051  -1.673   2.885 -0.0696 -0.1180 -0.0144
   47BDD     C331008   0.091  -1.685   2.860 -0.0463  0.0938  0.0129
   47BDD     C431009   0.162  -1.729   2.968  0.0051  0.2405  0.0396
   47BDD     S131010   0.055  -1.758   3.109  0.0274  0.1236  0.0324
   47BDD     C531011  -0.147  -1.627   2.781 -0.1242 -0.3012 -0.0459
   47BDD     C631012   0.152  -1.652   2.729 -0.0753  0.1431  0.0114
   47BDD     O131013   0.275  -1.663   2.708 -0.0551  0.3258  0.0350
   47BDD     O231014  -0.269  -1.616   2.803 -0.1442 -0.4840 -0.0695
   47BDD     C731015   0.057  -1.606   2.626 -0.1304 -0.0401 -0.0200
   47BDD     C831016  -0.085  -1.594   2.651 -0.1538 -0.2518 -0.0473
   47BDD     C931017  -0.156  -1.550   2.542 -0.2048 -0.3986 -0.0741
   47BDD     S231018  -0.049  -1.521   2.401 -0.2274 -0.2815 -0.0668
   47BDD    C1031019   0.093  -1.571   2.499 -0.1640 -0.0284 -0.0263
   47BDD    C1131020   0.221  -1.550   2.421 -0.8110 -0.1133 -0.5268
   47BDD    C1231021   0.258  -1.641   2.304  0.5080 -0.0443 -0.3803
   47BDD    C1331022   0.374  -1.595   2.212 -0.0302 -0.3403  0.2454
   47BDD    C1431023   0.339  -1.461   2.136 -0.2396 -0.0895 -0.0523
   47BDD    C1531024   0.465  -1.417   2.062 -0.4092 -0.2972  0.1937
   47BDD    C1631025   0.432  -1.288   1.976 -0.0655  0.5093  0.0720
   47BDD    C1731026   0.254  -1.793   2.329  0.0058 -0.2373  0.0412
   47BDD    C1831027   0.363  -1.876   2.407  0.0856 -0.5191 -0.0718
   47BDD    C1931028  -0.302  -1.520   2.516  0.9604  0.6715  0.0774
   47BDD    C2031029  -0.358  -1.381   2.499 -0.5248  0.5411  0.1855
   47BDD    C2131030  -0.509  -1.372   2.503  0.7596 -1.1237  0.7922
   47BDD    C2231031  -0.585  -1.424   2.625  0.2049  0.0690 -0.6807
   47BDD    C2331032  -0.732  -1.379   2.623 -0.1720 -0.3405 -0.3320
   47BDD    C2431033  -0.802  -1.408   2.754  0.2908  0.3887  0.2238
   47BDD    C2531034  -0.295  -1.293   2.389 -0.9130  0.3451 -0.0177
   47BDD    C2631035  -0.332  -1.148   2.377 -0.0353 -0.2588 -0.3620
   48TPM     C131036  -0.214  -1.712   3.088 -0.0359 -0.0306 -0.3939
   48TPM     C231037  -0.268  -1.831   3.127 -0.1616 -0.0247 -0.5467
   48TPM     C331038  -0.398  -1.818   3.188 -0.0286  0.0662 -0.2782
   48TPM     C431039  -0.443  -1.690   3.195  0.1988  0.1295  0.0794
   48TPM     S131040  -0.324  -1.574   3.125  0.2633  0.0789  0.1049
   49BDTP    C131041  -0.976  -1.426   3.405 -0.0515 -0.0122  0.1075
   49BDTP    C231042  -0.968  -1.545   3.483 -0.0119  0.0117  0.1405
   49BDTP    C331043  -0.865  -1.637   3.469 -0.0312 -0.0043  0.0994
   49BDTP    C431044  -0.764  -1.609   3.374 -0.0925 -0.0451  0.0222
   49BDTP    C531045  -0.772  -1.490   3.297 -0.1318 -0.0689 -0.0108
   49BDTP    C631046  -0.875  -1.398   3.311 -0.1128 -0.0536  0.0303
   49BDTP    C731047  -0.648  -1.689   3.342 -0.1226 -0.0682 -0.0318
   49BDTP    C831048  -0.569  -1.636   3.246 -0.1824 -0.1075 -0.1027
   49BDTP    S131049  -0.631  -1.478   3.182 -0.2084 -0.1209 -0.1112
   49BDTP    C931050  -1.092  -1.346   3.438 -0.0210  0.0107  0.1614
   49BDTP   C1031051  -1.172  -1.399   3.534  0.0389  0.0498  0.2323
   49BDTP    S231052  -1.110  -1.557   3.598  0.0649  0.0634  0.2409
   50FTM     S131053  -0.949  -1.911   3.499 -0.3547  0.3213  0.0464
   50FTM     C131054  -0.887  -1.994   3.647 -0.2169 -0.1406 -0.2678
   50FTM     C231055  -0.811  -1.909   3.720  0.3293 -0.5378 -0.3596
   50FTM     C331056  -0.796  -1.776   3.667  0.6657 -0.5078 -0.1953
   50FTM     C431057  -0.863  -1.760   3.549  0.3672 -0.0735  0.0297
   50FTM     F131058  -0.750  -1.945   3.839  0.5572 -0.9520 -0.5979
   50FTM     C531059  -0.924  -2.136   3.682 -0.2371  0.1171 -0.5340
   50FTM     C631060  -0.889  -2.259   3.595  0.7297 -0.3126  0.0743
   50FTM     C731061  -0.918  -2.398   3.664 -0.4031 -0.3663 -0.6011
   50FTM     C831062  -1.044  -2.409   3.758 -0.1467  0.0210 -0.3923
   50FTM     C931063  -1.072  -2.541   3.816  0.6604  0.1005 -0.6099
   50FTM    C1031064  -0.973  -2.602   3.910 -0.0423 -0.5093 -0.3183
   50FTM    C1131065  -0.750  -2.256   3.537 -0.0089  0.6256 -0.1815
   50FTM    C1231066  -0.723  -2.359   3.427 -0.1456 -0.2455 -0.3372
   51FTM     S131067  -0.914  -1.114   3.301  0.1282  0.3059  0.2677
   51FTM     C131068  -0.933  -1.043   3.137 -0.1400  0.1440  0.2275
   51FTM     C231069  -0.913  -1.139   3.042 -0.1960  0.0722  0.2884
   51FTM     C331070  -0.883  -1.270   3.091 -0.0381  0.1376  0.3680
   51FTM     C431071  -0.880  -1.275   3.227  0.1453  0.2632  0.3682
   51FTM     F131072  -0.922  -1.114   2.906 -0.3943 -0.0563  0.2755
   51FTM     C531073  -0.974  -0.898   3.118 -0.1759  0.8341  0.2313
   51FTM     C631074  -0.903  -0.788   3.191 -0.2272  0.0839 -0.3807
   51FTM     C731075  -0.955  -0.769   3.340  0.0914 -0.4294  0.1578
   51FTM     C831076  -1.101  -0.769   3.384  0.1897 -0.3709  0.5472
   51FTM     C931077  -1.192  -0.659   3.322  0.5196 -0.0571  0.5317
   51FTM    C1031078  -1.334  -0.661   3.379  0.2155 -0.5932 -0.4089
   51FTM    C1131079  -0.748  -0.785   3.198  0.3365 -0.2070 -0.3171
   51FTM    C1231080  -0.675  -0.770   3.065  0.2222 -0.5598 -0.0801
   52TPM     C131081  -1.303  -1.354   3.575 -0.1907  0.1514 -0.4232
   52TPM     C231082  -1.379  -1.412   3.672 -0.2005 -0.0396 -0.5436
   52TPM     C331083  -1.501  -1.340   3.701 -0.2003 -0.0923 -0.4093
   52TPM     C431084  -1.516  -1.227   3.626 -0.1903  0.0583 -0.1862
   52TPM     S131085  -1.379  -1.203   3.512 -0.1803  0.2805 -0.1283
   53BDD     C131086  -1.698  -0.887   3.682  0.0783  0.0824  0.3225
   53BDD     C231087  -1.788  -0.982   3.722  0.0300  0.0908  0.2323
   53BDD     C331088  -1.740  -1.118   3.707 -0.0796  0.0765  0.0032
   53BDD     C431089  -1.613  -1.125   3.655 -0.1131  0.0578 -0.0780
   53BDD     S131090  -1.546  -0.962   3.623 -0.0103  0.0565  0.1268
   53BDD     C531091  -1.923  -0.951   3.775  0.0827  0.1116  0.3533
   53BDD     C631092  -1.821  -1.236   3.743 -0.1469  0.0818 -0.1271
   53BDD     O131093  -1.779  -1.353   3.730 -0.2413  0.0696 -0.3246
   53BDD     O231094  -1.964  -0.833   3.789  0.1773  0.1237  0.5509
   53BDD     C731095  -1.955  -1.205   3.797 -0.0939  0.1025 -0.0060
   53BDD     C831096  -2.004  -1.069   3.812  0.0156  0.1168  0.2232
   53BDD     C931097  -2.130  -1.061   3.863  0.0492  0.1354  0.3043
   53BDD     S231098  -2.198  -1.224   3.896 -0.0538  0.1368  0.0995
   53BDD    C1031099  -2.046  -1.299   3.837 -0.1422  0.1106 -0.0963
   53BDD    C1131100  -2.051  -1.451   3.843 -0.6288 -0.3025 -0.0823
   53BDD    C1231101  -2.013  -1.514   3.978 -0.2129  0.0719 -0.0669
   53BDD    C1331102  -1.989  -1.670   3.976 -0.7070  0.3538 -0.1638
   53BDD    C1431103  -1.900  -1.720   3.863 -0.3498  0.2265 -0.6320
   53BDD    C1531104  -1.755  -1.659   3.850  0.2077  0.4569  0.5192
   53BDD    C1631105  -1.690  -1.691   3.715 -0.3061 -0.1572 -0.4954
   53BDD    C1731106  -2.092  -1.467   4.097 -0.3555 -0.2460 -0.4107
   53BDD    C1831107  -2.240  -1.488   4.113  0.1837  0.4022  0.0099
   53BDD    C1931108  -2.217  -0.942   3.908  0.7733 -0.0451  0.1024
   53BDD    C2031109  -2.295  -0.873   3.793 -0.1852 -0.3310  0.3794
   53BDD    C2131110  -2.360  -0.736   3.829 -0.7891 -0.2090 -0.2081
   53BDD    C2231111  -2.272  -0.631   3.901  0.1322  0.3415  0.0732
   53BDD    C2331112  -2.350  -0.528   3.980 -0.3684 -0.4474  0.8883
   53BDD    C2431113  -2.251  -0.422   4.026 -0.1222 -0.2169  0.1380
   53BDD    C2531114  -2.392  -0.960   3.709  0.7273  0.0996  0.3348
   53BDD    C2631115  -2.527  -0.997   3.771  0.1327  0.5079  0.1522
   54TPM     C131116  -1.698  -0.743   3.671  0.1253 -0.2819 -0.4384
   54TPM     C231117  -1.725  -0.669   3.783  0.0445 -0.6640 -0.2030
   54TPM     C331118  -1.695  -0.529   3.769 -0.1186 -0.5820  0.2375
   54TPM     C431119  -1.645  -0.496   3.647 -0.1618 -0.1370  0.3379
   54TPM     S131120  -1.632  -0.640   3.539  0.0012  0.2154 -0.1195
   55BDTP    C131121  -1.444   0.044   3.389  0.1233 -0.1411  0.0526
   55BDTP    C231122  -1.467   0.082   3.525  0.0570 -0.1206  0.0355
   55BDTP    C331123  -1.514  -0.006   3.621 -0.0341 -0.0944  0.0151
   55BDTP    C431124  -1.540  -0.138   3.583 -0.0606 -0.0882  0.0114
   55BDTP    C531125  -1.517  -0.177   3.447  0.0057 -0.1090  0.0285
   55BDTP    C631126  -1.470  -0.089   3.351  0.0964 -0.1349  0.0489
   55BDTP    C731127  -1.589  -0.247   3.665 -0.1506 -0.0627 -0.0083
   55BDTP    C831128  -1.604  -0.364   3.598 -0.1550 -0.0627 -0.0069
   55BDTP    S131129  -1.558  -0.353   3.423 -0.0458 -0.0956  0.0197
   55BDTP    C931130  -1.395   0.152   3.307  0.2131 -0.1669  0.0723
   55BDTP   C1031131  -1.380   0.270   3.374  0.2177 -0.1667  0.0709
   55BDTP    S231132  -1.426   0.259   3.549  0.1083 -0.1339  0.0444
   56FTM     S131133  -1.654   0.004   3.865  0.0533 -0.2169 -0.3581
   56FTM     C131134  -1.560   0.066   4.006 -0.3482  0.0683 -0.2133
   56FTM     C231135  -1.437   0.105   3.966 -0.5164  0.7588 -0.0826
   56FTM     C331136  -1.408   0.090   3.826 -0.3474  1.0999 -0.0869
   56FTM     C431137  -1.513   0.037   3.757 -0.0400  0.6561 -0.2255
   56FTM     F131138  -1.342   0.157   4.053 -0.8333  1.1229  0.0490
   56FTM     C531139  -1.621   0.077   4.143 -0.1017  0.8302 -0.2755
   56FTM     C631140  -1.659   0.209   4.199  0.7827  0.5655 -0.1733
   56FTM     C731141  -1.669   0.220   4.350 -0.1431  0.4132 -0.2157
   56FTM     C831142  -1.775   0.130   4.407 -0.1918  0.4615 -0.1657
   56FTM     C931143  -1.811   0.151   4.552 -0.2541 -0.0833 -0.0240
   56FTM    C1031144  -1.922   0.067   4.584  0.2038 -0.1279  0.7757
   56FTM    C1131145  -1.756   0.296   4.109  0.1319  0.9026 -0.2519
   56FTM    C1231146  -1.705   0.437   4.078  0.0319 -0.0575  0.2885
   57FTM     S131147  -1.285  -0.213   3.170  0.0126  0.0964 -0.0644
   57FTM     C131148  -1.338  -0.237   3.000  0.1803 -0.5628 -0.0291
   57FTM     C231149  -1.463  -0.186   2.982  0.0203 -1.0233 -0.2420
   57FTM     C331150  -1.524  -0.127   3.098 -0.2365 -0.8948 -0.4408
   57FTM     C431151  -1.443  -0.133   3.207 -0.2740 -0.3168 -0.3780
   57FTM     F131152  -1.530  -0.191   2.861  0.0966 -1.5886 -0.2696
   57FTM     C531153  -1.256  -0.309   2.895 -0.3457 -0.3117 -0.0831
   57FTM     C631154  -1.116  -0.252   2.852 -0.2106 -0.2060  0.4243
   57FTM     C731155  -1.008  -0.254   2.964  0.3268  0.3018 -0.1013
   57FTM     C831156  -0.952  -0.397   2.979  0.0208  0.1797  0.7903
   57FTM     C931157  -0.858  -0.405   3.098 -0.0064 -0.3407  0.0377
   57FTM    C1031158  -0.744  -0.307   3.108  0.0752 -0.5856 -0.3448
   57FTM    C1131159  -1.126  -0.128   2.756 -0.5756  0.5301 -0.8143
   57FTM    C1231160  -0.989  -0.095   2.690  0.7382  0.2965 -0.6367
   58TPM     C131161  -1.344   0.399   3.319  0.2816  0.1172  0.0631
   58TPM     C231162  -1.298   0.507   3.388  0.6416  0.0367 -0.0418
   58TPM     C331163  -1.248   0.613   3.304  0.7071 -0.0858 -0.1572
   58TPM     C431164  -1.255   0.585   3.171  0.3964 -0.0986 -0.1401
   58TPM     S131165  -1.326   0.422   3.141 -0.0058  0.0441  0.0241
   59BDD     C131166  -1.104   0.844   2.921 -0.1625 -0.0052  0.0722
   59BDD     C231167  -1.233   0.825   2.880 -0.1419 -0.0144  0.0121
   59BDD     C331168  -1.309   0.737   2.967 -0.1869  0.0087 -0.0039
   59BDD     C431169  -1.237   0.691   3.074 -0.2411  0.0352  0.0444
   59BDD     S131170  -1.069   0.754   3.072 -0.2398  0.0331  0.1131
   59BDD     C531171  -1.291   0.886   2.759 -0.0803 -0.0448 -0.0328
   59BDD     C631172  -1.451   0.703   2.942 -0.1745  0.0037 -0.0663
   59BDD     O131173  -1.516   0.627   3.018 -0.2134  0.0236 -0.0801
   59BDD     O231174  -1.226   0.961   2.683 -0.0415 -0.0648 -0.0190
   59BDD     C731175  -1.509   0.764   2.821 -0.1125 -0.0267 -0.1113
   59BDD     C831176  -1.433   0.851   2.733 -0.0677 -0.0498 -0.0954
   59BDD     C931177  -1.505   0.897   2.627 -0.0136 -0.0763 -0.1436
   59BDD     S231178  -1.673   0.834   2.628 -0.0150 -0.0742 -0.2123
   59BDD    C1031179  -1.638   0.744   2.779 -0.0924 -0.0359 -0.1715
   59BDD    C1131180  -1.752   0.659   2.827 -0.0825 -0.2593 -0.7175
   59BDD    C1231181  -1.796   0.537   2.737 -0.0070 -0.0735  0.1414
   59BDD    C1331182  -1.684   0.453   2.667 -0.3179  0.2624  0.2322
   59BDD    C1431183  -1.581   0.374   2.746 -0.2634 -0.3757 -0.3971
   59BDD    C1531184  -1.468   0.321   2.652  0.6438  0.3588 -0.2887
   59BDD    C1631185  -1.353   0.254   2.724  0.0222 -0.1564  0.3707
   59BDD    C1731186  -1.917   0.460   2.799 -0.3697  0.2332 -0.7215
   59BDD    C1831187  -2.001   0.369   2.718  0.3212 -0.6341  0.4402
   59BDD    C1931188  -1.458   0.963   2.497  0.2745 -0.2251 -0.2704
   59BDD    C2031189  -1.478   0.880   2.363 -0.4213 -0.8408  0.1498
   59BDD    C2131190  -1.405   0.738   2.356 -0.1319 -0.2285 -0.2111
   59BDD    C2231191  -1.253   0.730   2.398  0.0183  0.7393  0.0438
   59BDD    C2331192  -1.151   0.816   2.320  0.2796  0.5907 -0.0975
   59BDD    C2431193  -1.007   0.795   2.380  0.3687 -0.1805 -0.4264
   59BDD    C2531194  -1.470   0.978   2.242 -0.4209  0.1314  0.2107
   59BDD    C2631195  -1.513   0.928   2.113  0.1720  0.4318  1.0865
   60TPM     C131196  -0.991   0.925   2.881 -0.0105  0.1284  0.3398
   60TPM     C231197  -0.950   0.932   2.751 -0.4137  0.7756  0.2372
   60TPM     C331198  -0.817   0.984   2.734 -0.5002  0.9463  0.0752
   60TPM     C431199  -0.756   1.018   2.851 -0.1632  0.4293  0.0542
   60TPM     S131200  -0.863   0.985   2.993  0.2934 -0.3191  0.2390
    1BDTP    C131201   3.397   3.013   0.232 -0.0858 -0.0882  0.2168
    1BDTP    C231202   3.390   2.871   0.250  0.1178 -0.1154  0.0833
    1BDTP    C331203   3.439   2.808   0.363  0.1890 -0.1499  0.0333
    1BDTP    C431204   3.497   2.887   0.464  0.0533 -0.1580  0.1188
    1BDTP    C531205   3.504   3.028   0.446 -0.1503 -0.1308  0.2523
    1BDTP    C631206   3.455   3.092   0.333 -0.2215 -0.0964  0.3023
    1BDTP    C731207   3.555   2.843   0.590  0.0923 -0.1917  0.0894
    1BDTP    C831208   3.603   2.944   0.666 -0.0702 -0.1912  0.1931
    1BDTP    S131209   3.583   3.108   0.590 -0.2953 -0.1480  0.3425
    1BDTP    C931210   3.339   3.056   0.106 -0.1248 -0.0546  0.2462
    1BDTP   C1031211   3.290   2.956   0.030  0.0377 -0.0550  0.1425
    1BDTP    S231212   3.310   2.792   0.106  0.2628 -0.0983 -0.0069
    2FTM     S131213   3.244   2.595   0.367  0.0111 -0.1385 -0.0027
    2FTM     C131214   3.311   2.429   0.384 -0.0095 -0.1452  0.0133
    2FTM     C231215   3.447   2.435   0.396  0.0126 -0.1755 -0.2142
    2FTM     C331216   3.505   2.566   0.392  0.0461 -0.1948 -0.4101
    2FTM     C431217   3.411   2.663   0.377  0.0497 -0.1789 -0.3299
    2FTM     F131218   3.526   2.322   0.410  0.0039 -0.1873 -0.2586
    2FTM     C531219   3.224   2.313   0.370  0.5506  0.5706 -0.5491
    2FTM     C631220   3.172   2.238   0.494 -0.3680 -0.1632 -0.4414
    2FTM     C731221   3.116   2.322   0.617  0.3660  0.1366  0.3525
    2FTM     C831222   3.205   2.399   0.708  0.0593  0.1842  0.1058
    2FTM     C931223   3.146   2.440   0.844 -1.0620  0.0294  0.5661
    2FTM    C1031224   3.253   2.526   0.920 -0.0074  0.1285  0.3382
    2FTM    C1131225   3.128   2.092   0.469 -0.1240 -0.4113 -0.0812
    2FTM    C1231226   3.172   1.986   0.571 -0.7051  0.7171  0.3743
    3FTM     S131227   3.331   3.346   0.268  0.0064  0.2698  0.0839
    3FTM     C131228   3.445   3.483   0.245  0.1788  0.0477 -0.3880
    3FTM     C231229   3.573   3.442   0.269  0.1078  0.0159 -0.0599
    3FTM     C331230   3.589   3.304   0.307 -0.0806  0.1588  0.5635
    3FTM     C431231   3.470   3.238   0.311 -0.1562  0.3049  0.7177
    3FTM     F131232   3.682   3.526   0.258  0.2090 -0.1446 -0.3045
    3FTM     C531233   3.396   3.619   0.200 -0.0976  0.5855  0.3497
    3FTM     C631234   3.332   3.643   0.063 -0.6713  1.2752 -0.2479
    3FTM     C731235   3.385   3.579  -0.071  0.6221  0.1857 -0.1868
    3FTM     C831236   3.381   3.431  -0.087 -0.2574 -0.0195 -0.1131
    3FTM     C931237   3.449   3.395  -0.219  0.2770 -0.1052 -0.9262
    3FTM    C1031238   3.491   3.252  -0.246  0.3075  0.5325 -0.0951
    3FTM    C1131239   3.237   3.762   0.058 -0.2049  0.3394 -0.5885
    3FTM    C1231240   3.136   3.782  -0.054  0.2607  0.2426  0.3077
    4TPM     C131241   3.232   2.961  -0.102  0.1130  0.2811 -0.0934
    4TPM     C231242   3.251   2.863  -0.196  0.0722  0.3039 -0.1256
    4TPM     C331243   3.209   2.900  -0.328 -0.0738  0.3022 -0.0806
    4TPM     C431244   3.158   3.027  -0.336 -0.1445  0.2780 -0.0139
    4TPM     S131245   3.159   3.109  -0.175 -0.0311  0.2554 -0.0029
    5BDD     C131246   3.042   3.301  -0.596  0.1612  0.0699 -0.0634
    5BDD     C231247   3.017   3.181  -0.656  0.1069  0.0777 -0.0565
    5BDD     C331248   3.055   3.066  -0.574  0.0415  0.0648 -0.0439
    5BDD     C431249   3.109   3.101  -0.454  0.0469  0.0474 -0.0413
    5BDD     S131250   3.115   3.279  -0.433  0.1341  0.0458 -0.0544
    5BDD     C531251   2.957   3.166  -0.790  0.1131  0.0973 -0.0618
    5BDD     C631252   3.037   2.927  -0.620 -0.0239  0.0703 -0.0350
    5BDD     O131253   3.070   2.829  -0.550 -0.0803  0.0592 -0.0241
    5BDD     O231254   2.925   3.265  -0.860  0.1696  0.1085 -0.0727
    5BDD     C731255   2.978   2.913  -0.754 -0.0176  0.0899 -0.0401
    5BDD     C831256   2.940   3.027  -0.835  0.0478  0.1028 -0.0527
    5BDD     C931257   2.886   2.992  -0.956  0.0424  0.1202 -0.0553
    5BDD     S231258   2.880   2.814  -0.977 -0.0449  0.1217 -0.0423
    5BDD    C1031259   2.953   2.792  -0.814 -0.0719  0.0976 -0.0331
    5BDD    C1131260   2.980   2.653  -0.767  0.6688 -0.2832 -0.1267
    5BDD    C1231261   2.863   2.560  -0.762 -0.5986  0.2338 -0.2058
    5BDD    C1331262   2.908   2.409  -0.745  0.1659 -0.4787  0.0544
    5BDD    C1431263   2.798   2.303  -0.727  0.3216  0.0955  0.7967
    5BDD    C1531264   2.829   2.185  -0.652  0.5875  0.2981  0.2483
    5BDD    C1631265   2.852   2.220  -0.505 -0.2075  0.2482  0.7850
    5BDD    C1731266   2.756   2.612  -0.666 -0.4440  0.2362 -0.3218
    5BDD    C1831267   2.794   2.633  -0.514  0.1687  0.0363  0.3666
    5BDD    C1931268   2.850   3.067  -1.076 -0.0844 -0.1787  1.6166
    5BDD    C2031269   2.966   3.150  -1.144 -0.1802 -0.9807 -0.2443
    5BDD    C2131270   3.095   3.075  -1.185  0.4729 -0.0569  0.4573
    5BDD    C2231271   3.092   2.970  -1.301 -0.0593  0.3463 -0.7712
    5BDD    C2331272   3.217   2.876  -1.284  0.3111 -0.0384  0.0709
    5BDD    C2431273   3.230   2.774  -1.400 -0.0552  0.1858  0.2481
    5BDD    C2531274   2.920   3.254  -1.254 -0.0646  0.1864 -0.1304
    5BDD    C2631275   2.815   3.358  -1.210 -0.6283 -0.0495  0.3945
    6TPM     C131276   3.015   3.445  -0.625 -0.0739 -0.1343  0.0907
    6TPM     C231277   3.004   3.530  -0.519 -0.0153  0.0237 -0.0281
    6TPM     C331278   2.977   3.666  -0.556  0.0740 -0.0097 -0.2203
    6TPM     C431279   2.967   3.686  -0.690  0.0835 -0.1934 -0.2482
    6TPM     S131280   2.991   3.532  -0.782 -0.0204 -0.3393 -0.0321
    7BDTP    C131281   2.852   4.270  -0.885  0.1465 -0.2106  0.0753
    7BDTP    C231282   2.865   4.201  -1.009  0.0826 -0.0918  0.0021
    7BDTP    C331283   2.892   4.065  -1.016  0.1389 -0.0728 -0.1423
    7BDTP    C431284   2.907   3.993  -0.896  0.2642 -0.1758 -0.2186
    7BDTP    C531285   2.894   4.062  -0.772  0.3279 -0.2948 -0.1454
    7BDTP    C631286   2.867   4.198  -0.764  0.2715 -0.3138 -0.0008
    7BDTP    C731287   2.935   3.852  -0.879  0.3418 -0.1791 -0.3685
    7BDTP    C831288   2.944   3.812  -0.750  0.4594 -0.2931 -0.4113
    7BDTP    S131289   2.918   3.948  -0.632  0.4882 -0.4126 -0.2670
    7BDTP    C931290   2.824   4.411  -0.902  0.0687 -0.2075  0.2258
    7BDTP   C1031291   2.816   4.450  -1.031 -0.0489 -0.0935  0.2682
    7BDTP    S231292   2.842   4.315  -1.149 -0.0777  0.0260  0.1239
    8FTM     S131293   2.850   3.845  -1.214  0.1252 -0.0451  0.1348
    8FTM     C131294   2.949   3.868  -1.362 -0.0813 -0.3977 -0.0611
    8FTM     C231295   3.021   3.984  -1.353 -0.2637 -0.2397 -0.5472
    8FTM     C331296   3.003   4.060  -1.232 -0.2541  0.1557 -0.7911
    8FTM     C431297   2.915   4.000  -1.147 -0.0581  0.3053 -0.4817
    8FTM     F131298   3.106   4.028  -1.452 -0.4501 -0.4438 -0.8004
    8FTM     C531299   2.941   3.771  -1.477  0.0285 -0.3492 -0.1666
    8FTM     C631300   2.833   3.770  -1.589 -0.0501 -0.3152  0.0391
    8FTM     C731301   2.807   3.641  -1.673 -0.3251  0.0082 -0.0151
    8FTM     C831302   2.796   3.511  -1.597  0.1340 -0.3097 -0.0991
    8FTM     C931303   2.766   3.389  -1.684 -0.3739 -0.0452 -0.2641
    8FTM    C1031304   2.704   3.275  -1.616  0.1104 -0.1280 -0.5187
    8FTM    C1131305   2.837   3.901  -1.677  0.6082 -0.6560 -0.8161
    8FTM    C1231306   2.725   3.937  -1.770 -0.8629 -0.2057  0.4609
    9FTM     S131307   2.977   4.386  -0.584  0.2916  0.1143 -0.1568
    9FTM     C131308   2.883   4.417  -0.433  0.0863  0.1821 -0.2978
    9FTM     C231309   2.772   4.338  -0.431 -0.0612  0.3811 -0.5419
    9FTM     C331310   2.754   4.252  -0.544 -0.0245  0.4905 -0.6318
    9FTM     C431311   2.855   4.264  -0.635  0.1570  0.3714 -0.4511
    9FTM     F131312   2.681   4.340  -0.327 -0.2382  0.4762 -0.6983
    9FTM     C531313   2.920   4.523  -0.334  0.1276  0.2064 -0.3265
    9FTM     C631314   2.904   4.671  -0.384 -0.6479  0.5583  0.4665
    9FTM     C731315   2.954   4.772  -0.272  0.9898 -0.0434 -0.1148
    9FTM     C831316   2.884   4.770  -0.139  0.5952  0.1742  0.0313
    9FTM     C931317   2.906   4.889  -0.044 -0.2271  0.6180  0.0433
    9FTM    C1031318   2.876   4.845   0.094 -0.0951  0.0267 -0.3033
    9FTM    C1131319   2.778   4.709  -0.465 -0.0948  0.4875 -0.3127
    9FTM    C1231320   2.771   4.847  -0.536 -0.2620  0.1506  0.1273
   10TPM     C131321   2.812   4.588  -1.078  0.0219 -0.0896 -0.1782
   10TPM     C231322   2.890   4.642  -1.175 -0.0524 -0.0316 -0.2062
   10TPM     C331323   2.883   4.786  -1.182  0.0120 -0.0206 -0.0539
   10TPM     C431324   2.799   4.841  -1.090  0.1354 -0.0704  0.0903
   10TPM     S131325   2.722   4.715  -0.987  0.1801 -0.1355  0.0443
   11BDD     C131326   2.742   5.191  -0.925 -0.2057 -0.0043 -0.1283
   11BDD     C231327   2.746   5.214  -1.060 -0.1625 -0.0201 -0.1302
   11BDD     C331328   2.769   5.095  -1.139 -0.0893 -0.0219 -0.1059
   11BDD     C431329   2.783   4.982  -1.063 -0.0780 -0.0071 -0.0859
   11BDD     S131330   2.768   5.017  -0.888 -0.1580  0.0095 -0.0961
   11BDD     C531331   2.727   5.348  -1.121 -0.1868 -0.0342 -0.1540
   11BDD     C631332   2.777   5.097  -1.286 -0.0336 -0.0378 -0.1032
   11BDD     O131333   2.798   4.994  -1.354  0.0295 -0.0393 -0.0823
   11BDD     O231334   2.707   5.451  -1.053 -0.2499 -0.0328 -0.1750
   11BDD     C731335   2.759   5.231  -1.347 -0.0579 -0.0521 -0.1273
   11BDD     C831336   2.735   5.350  -1.268 -0.1310 -0.0504 -0.1516
   11BDD     C931337   2.721   5.463  -1.344 -0.1425 -0.0650 -0.1712
   11BDD     S231338   2.737   5.428  -1.519 -0.0625 -0.0818 -0.1607
   11BDD    C1031339   2.763   5.254  -1.482 -0.0147 -0.0679 -0.1287
   11BDD    C1131340   2.796   5.166  -1.606  0.2167  0.0788 -0.3783
   11BDD    C1231341   2.700   5.156  -1.729  0.7817  0.2386  0.2730
   11BDD    C1331342   2.751   5.064  -1.846  0.2584 -0.0468 -0.6377
   11BDD    C1431343   2.892   5.082  -1.905 -0.4876 -0.1156  0.2155
   11BDD    C1531344   2.922   5.212  -1.977  0.6483 -0.1745 -0.5209
   11BDD    C1631345   3.063   5.210  -2.005 -0.4942 -0.1276  0.7770
   11BDD    C1731346   2.548   5.134  -1.698 -0.3845  0.8333 -0.1416
   11BDD    C1831347   2.453   5.137  -1.823  0.0918  0.0616 -0.3582
   11BDD    C1931348   2.712   5.609  -1.318 -0.1002  0.3188 -0.2664
   11BDD    C2031349   2.841   5.690  -1.319 -0.3425 -0.2971 -0.2494
   11BDD    C2131350   2.959   5.651  -1.230 -0.9111  0.0188  0.5964
   11BDD    C2231351   2.958   5.681  -1.084 -0.1876 -0.0299 -0.4413
   11BDD    C2331352   3.073   5.618  -1.007  0.1486  0.0884  0.0230
   11BDD    C2431353   3.213   5.667  -1.050 -0.0144  0.4232  0.4747
   11BDD    C2531354   2.813   5.843  -1.340 -0.8809 -0.0300 -0.6526
   11BDD    C2631355   2.925   5.915  -1.412  0.0092  0.0483 -0.2824
   12TPM     C131356   2.734   5.272  -0.803  0.2277 -0.3673 -0.1231
   12TPM     C231357   2.655   5.235  -0.698  0.0003 -0.2238 -0.2441
   12TPM     C331358   2.651   5.331  -0.591 -0.3412 -0.0131 -0.4399
   12TPM     C431359   2.728   5.442  -0.614 -0.3743  0.0040 -0.4681
   12TPM     S131360   2.812   5.432  -0.774  0.0265 -0.2465 -0.2481
   13BDTP    C131361   2.829   5.989  -0.321  0.0185 -0.0123 -0.0100
   13BDTP    C231362   2.780   5.909  -0.214  0.0552  0.0420  0.0479
   13BDTP    C331363   2.742   5.776  -0.231  0.0139  0.0441  0.1202
   13BDTP    C431364   2.754   5.720  -0.360 -0.0674 -0.0097  0.1361
   13BDTP    C531365   2.803   5.801  -0.467 -0.1040 -0.0638  0.0782
   13BDTP    C631366   2.841   5.934  -0.449 -0.0627 -0.0661  0.0058
   13BDTP    C731367   2.722   5.586  -0.402 -0.1221 -0.0186  0.2069
   13BDTP    C831368   2.744   5.562  -0.534 -0.1972 -0.0759  0.2046
   13BDTP    S131369   2.809   5.706  -0.622 -0.2090 -0.1270  0.1128
   13BDTP    C931370   2.862   6.124  -0.278  0.0734 -0.0033 -0.0806
   13BDTP   C1031371   2.839   6.148  -0.147  0.1484  0.0541 -0.0784
   13BDTP    S231372   2.774   6.003  -0.058  0.1603  0.1051  0.0135
   14FTM     S131373   2.784   5.660   0.024  0.0900  0.2258  0.2435
   14FTM     C131374   2.633   5.621   0.116 -0.0223 -0.3283 -0.1671
   14FTM     C231375   2.525   5.640   0.036  0.1176 -0.7027 -0.4559
   14FTM     C331376   2.551   5.686  -0.097  0.3157 -0.5844 -0.3774
   14FTM     C431377   2.684   5.701  -0.121  0.3280 -0.1037 -0.0170
   14FTM     F131378   2.395   5.618   0.080  0.0745 -1.1748 -0.8085
   14FTM     C531379   2.635   5.592   0.259 -0.0303  0.2906 -0.4409
   14FTM     C631380   2.673   5.698   0.375  0.0109 -0.2538  0.2332
   14FTM     C731381   2.655   5.648   0.526 -0.1172  0.3483 -0.5532
   14FTM     C831382   2.516   5.600   0.572  0.3749 -0.2648 -0.2892
   14FTM     C931383   2.515   5.550   0.717  0.1024 -0.1620  0.8202
   14FTM    C1031384   2.534   5.658   0.820 -0.1278  0.2287 -0.5226
   14FTM    C1131385   2.635   5.840   0.349  0.2142 -0.2709  0.0619
   14FTM    C1231386   2.692   5.948   0.443 -0.4590  0.3437  0.5567
   15FTM     S131387   2.844   6.177  -0.597  0.4556  0.1843  0.1185
   15FTM     C131388   2.972   6.195  -0.723  0.1510  0.2779 -0.1798
   15FTM     C231389   3.044   6.080  -0.732 -0.2056  0.0963 -0.8154
   15FTM     C331390   3.006   5.974  -0.645 -0.2624 -0.1214 -1.1017
   15FTM     C431391   2.900   6.008  -0.565  0.0612 -0.1061 -0.6718
   15FTM     F131392   3.150   6.065  -0.821 -0.5018  0.1165 -1.1749
   15FTM     C531393   2.993   6.316  -0.806  0.6147 -0.5641 -0.3183
   15FTM     C631394   2.941   6.458  -0.755 -0.5938  0.0169 -0.0748
   15FTM     C731395   2.981   6.499  -0.609  0.0096  0.7513 -0.5859
   15FTM     C831396   3.132   6.498  -0.576  0.3974 -0.7822  0.8400
   15FTM     C931397   3.174   6.568  -0.449 -0.1969  0.2414  0.2921
   15FTM    C1031398   3.204   6.719  -0.442  0.2411  0.4594 -0.9244
   15FTM    C1131399   2.967   6.572  -0.853 -0.3738  0.0140  0.0999
   15FTM    C1231400   2.874   6.567  -0.976  0.1861  0.1700 -0.6316
   16TPM     C131401   2.850   6.274  -0.080  0.1464 -0.1290  0.3066
   16TPM     C231402   2.775   6.318   0.025  0.4181 -0.4199  0.6254
   16TPM     C331403   2.797   6.456   0.058  0.2511 -0.4187  0.7327
   16TPM     C431404   2.888   6.518  -0.022 -0.1481 -0.1267  0.4958
   16TPM     S131405   2.954   6.405  -0.147 -0.3454  0.1716  0.1161
   17BDD     C131406   3.013   6.884   0.065 -0.2196  0.0469 -0.0452
   17BDD     C231407   2.972   6.887  -0.065 -0.1871  0.0092 -0.0565
   17BDD     C331408   2.920   6.760  -0.113 -0.2652  0.0210 -0.0033
   17BDD     C431409   2.923   6.662  -0.018 -0.3561  0.0676  0.0481
   17BDD     S131410   2.990   6.721   0.137 -0.3504  0.0998  0.0333
   17BDD     C531411   2.978   7.007  -0.151 -0.0830 -0.0392 -0.1171
   17BDD     C631412   2.869   6.741  -0.250 -0.2466 -0.0143 -0.0050
   17BDD     O131413   2.825   6.631  -0.291 -0.3139 -0.0041  0.0412
   17BDD     O231414   3.023   7.117  -0.110 -0.0157 -0.0495 -0.1633
   17BDD     C731415   2.876   6.861  -0.336 -0.1425 -0.0627 -0.0656
   17BDD     C831416   2.928   6.988  -0.289 -0.0645 -0.0746 -0.1187
   17BDD     C931417   2.925   7.087  -0.383  0.0265 -0.1215 -0.1702
   17BDD     S231418   2.857   7.027  -0.538  0.0207 -0.1537 -0.1554
   17BDD    C1031419   2.834   6.865  -0.466 -0.1100 -0.1007 -0.0768
   17BDD    C1131420   2.766   6.763  -0.551 -0.5100 -1.1490 -0.0679
   17BDD    C1231421   2.621   6.755  -0.498 -0.3558 -0.5490 -0.0197
   17BDD    C1331422   2.530   6.871  -0.545  0.5892 -0.2261  0.0955
   17BDD    C1431423   2.394   6.890  -0.471 -0.5502  0.5201  0.0392
   17BDD    C1531424   2.412   6.902  -0.316  1.0383  0.3990 -0.2256
   17BDD    C1631425   2.489   7.030  -0.269 -0.1921  0.0830  0.3784
   17BDD    C1731426   2.559   6.639  -0.568  0.0905  0.2012  0.4254
   17BDD    C1831427   2.595   6.493  -0.539 -0.1794  0.1212 -0.5214
   17BDD    C1931428   2.980   7.228  -0.375 -0.4435 -0.7523  0.2262
   17BDD    C2031429   2.886   7.347  -0.325 -0.7167  0.5109 -0.1502
   17BDD    C2131430   2.957   7.478  -0.289  0.2750 -0.0914 -0.6356
   17BDD    C2231431   3.055   7.472  -0.173 -0.1280  0.1434  0.8628
   17BDD    C2331432   3.127   7.601  -0.154  0.2489 -0.3029  0.0015
   17BDD    C2431433   3.238   7.599  -0.052  0.8666  0.9833 -0.6212
   17BDD    C2531434   2.757   7.354  -0.404 -0.2388  0.0105 -0.4295
   17BDD    C2631435   2.647   7.450  -0.351 -0.0585  0.0348  0.4671
   18TPM     C131436   3.079   6.978   0.160  0.5497  0.3442 -0.2131
   18TPM     C231437   3.076   7.114   0.160  0.6174  0.3471  0.0622
   18TPM     C331438   3.134   7.174   0.277  0.1891  0.0720  0.4221
   18TPM     C431439   3.182   7.083   0.367 -0.2052 -0.1409  0.4213
   18TPM     S131440   3.157   6.914   0.309 -0.0651 -0.0092 -0.0377
   19BDTP    C131441   3.520   7.175   0.900  0.0708  0.1897 -0.0374
   19BDTP    C231442   3.490   7.036   0.904  0.0591  0.1987  0.1925
   19BDTP    C331443   3.416   6.972   0.805 -0.0579  0.0675  0.3641
   19BDTP    C431444   3.369   7.049   0.698 -0.1687 -0.0794  0.3067
   19BDTP    C531445   3.399   7.188   0.693 -0.1571 -0.0883  0.0769
   19BDTP    C631446   3.473   7.252   0.792 -0.0402  0.0428 -0.0947
   19BDTP    C731447   3.290   7.005   0.584 -0.3001 -0.2313  0.4550
   19BDTP    C831448   3.260   7.103   0.496 -0.3865 -0.3521  0.3491
   19BDTP    S131449   3.327   7.265   0.544 -0.3137 -0.2909  0.0464
   19BDTP    C931450   3.598   7.219   1.013  0.2021  0.3415 -0.1857
   19BDTP   C1031451   3.628   7.120   1.102  0.2886  0.4624 -0.0797
   19BDTP    S231452   3.561   6.958   1.053  0.2157  0.4011  0.2229
   20FTM     S131453   3.252   6.725   0.782 -0.0046  0.0149 -0.2038
   20FTM     C131454   3.347   6.572   0.784 -0.2724 -0.1493  0.0795
   20FTM     C231455   3.478   6.599   0.806 -0.2822 -0.3712  0.4182
   20FTM     C331456   3.512   6.737   0.823 -0.0870 -0.4258  0.4767
   20FTM     C431457   3.403   6.819   0.813  0.0778 -0.2396  0.1728
   20FTM     F131458   3.575   6.501   0.813 -0.4687 -0.5381  0.6954
   20FTM     C531459   3.272   6.442   0.765 -0.5257  0.3611  0.3801
   20FTM     C631460   3.213   6.408   0.623 -0.0239  0.3666 -1.2032
   20FTM     C731461   3.304   6.370   0.504  0.2364 -0.8251  0.5299
   20FTM     C831462   3.389   6.247   0.517  0.0707  0.1448 -0.5263
   20FTM     C931463   3.316   6.110   0.560 -0.2711 -0.6575 -0.1495
   20FTM    C1031464   3.422   6.002   0.585 -0.4058 -0.4512  0.0418
   20FTM    C1131465   3.090   6.497   0.585  0.0255  0.1922 -0.0421
   20FTM    C1231466   3.003   6.436   0.469 -1.0074 -0.3799  0.0421
   21FTM     S131467   3.415   7.525   0.852  0.2330  0.2672  0.1086
   21FTM     C131468   3.527   7.645   0.777  0.1187  0.2115 -0.1496
   21FTM     C231469   3.622   7.581   0.704 -0.2391  0.1731 -0.5913
   21FTM     C331470   3.614   7.438   0.702 -0.4413  0.1844 -0.7520
   21FTM     C431471   3.510   7.391   0.777 -0.2314  0.2329 -0.4226
   21FTM     F131472   3.721   7.648   0.634 -0.4048  0.1255 -0.8763
   21FTM     C531473   3.506   7.791   0.781 -0.3166  0.1644  0.1591
   21FTM     C631474   3.397   7.874   0.705 -0.2656 -0.5265 -0.3835
   21FTM     C731475   3.379   7.859   0.554  0.0417 -0.0654 -0.1610
   21FTM     C831476   3.315   7.721   0.527  0.0613  0.5476  0.5542
   21FTM     C931477   3.284   7.691   0.380 -0.0860  0.1400 -0.0137
   21FTM    C1031478   3.216   7.564   0.355 -0.2815 -0.3261  0.1542
   21FTM    C1131479   3.399   8.026   0.746 -0.4130  0.4377  0.0106
   21FTM    C1231480   3.392   8.054   0.901  0.6986  0.2942 -0.4923
   22TPM     C131481   3.726   7.127   1.205  0.3992  0.3702  0.2279
   22TPM     C231482   3.761   7.230   1.286  0.4438  0.1518  0.4912
   22TPM     C331483   3.865   7.198   1.381  0.2293 -0.2116  0.6035
   22TPM     C431484   3.908   7.069   1.372  0.0212 -0.2706  0.4258
   22TPM     S131485   3.821   6.978   1.242  0.0803  0.1315  0.1004
   23BDD     C131486   4.177   7.025   1.663  0.2663 -0.1797 -0.1123
   23BDD     C231487   4.142   6.898   1.631  0.1692 -0.1656 -0.0628
   23BDD     C331488   4.044   6.890   1.524 -0.0131 -0.1253  0.1001
   23BDD     C431489   4.006   7.013   1.476 -0.0522 -0.1092  0.1724
   23BDD     S131490   4.091   7.146   1.563  0.1364 -0.1434  0.0415
   23BDD     C531491   4.196   6.777   1.697  0.2403 -0.1886 -0.1633
   23BDD     C631492   3.991   6.762   1.472 -0.1417 -0.1041  0.1781
   23BDD     O131493   3.907   6.756   1.380 -0.2989 -0.0693  0.3185
   23BDD     O231494   4.281   6.783   1.789  0.3974 -0.2233 -0.3038
   23BDD     C731495   4.046   6.642   1.538 -0.0706 -0.1271  0.0775
   23BDD     C831496   4.144   6.649   1.645  0.1117 -0.1675 -0.0854
   23BDD     C931497   4.182   6.526   1.693  0.1508 -0.1833 -0.1577
   23BDD     S231498   4.097   6.394   1.607 -0.0378 -0.1490 -0.0268
   23BDD    C1031499   4.011   6.514   1.506 -0.1677 -0.1129  0.1270
   23BDD    C1131500   3.929   6.458   1.387  0.2278  0.0717  0.2113
   23BDD    C1231501   3.816   6.369   1.423 -0.8056  0.5423  0.4701
   23BDD    C1331502   3.691   6.445   1.459  0.8758 -0.5311  0.3657
   23BDD    C1431503   3.600   6.509   1.354 -0.5056  0.4592 -0.4147
   23BDD    C1531504   3.489   6.581   1.423 -0.1109  0.0069 -0.8421
   23BDD    C1631505   3.382   6.632   1.327 -0.0076  0.4736 -0.1184
   23BDD    C1731506   3.800   6.254   1.320 -0.0383  0.0975  0.1080
   23BDD    C1831507   3.695   6.145   1.341 -0.0745 -0.4293  0.0600
   23BDD    C1931508   4.295   6.489   1.787  0.0050  0.0660 -0.4333
   23BDD    C2031509   4.261   6.411   1.918  0.7289 -0.1879 -0.2156
   23BDD    C2131510   4.148   6.475   2.008 -0.0426  0.1817  0.1596
   23BDD    C2231511   4.153   6.618   2.050 -0.0683 -0.3338 -0.0781
   23BDD    C2331512   4.232   6.655   2.178 -0.3985  0.1260  0.9648
   23BDD    C2431513   4.239   6.807   2.199 -0.0527 -0.3188  0.0964
   23BDD    C2531514   4.383   6.370   1.995  0.2450  0.2254 -0.1792
   23BDD    C2631515   4.491   6.283   1.929 -0.4151  0.0638  0.1572
   24TPM     C131516   4.269   7.095   1.750 -0.3193  0.1134 -0.2378
   24TPM     C231517   4.301   7.057   1.877 -0.1757  0.0250 -0.3010
   24TPM     C331518   4.375   7.156   1.951  0.0796 -0.1036 -0.3816
   24TPM     C431519   4.399   7.270   1.881  0.1307 -0.1131 -0.3799
   24TPM     S131520   4.329   7.261   1.714 -0.1418  0.0406 -0.2755
   25BDTP    C131521   4.493   7.858   2.089  0.1788  0.1760 -0.1275
   25BDTP    C231522   4.578   7.783   2.175  0.1516  0.1016 -0.1649
   25BDTP    C331523   4.592   7.646   2.166  0.0032  0.0858 -0.1492
   25BDTP    C431524   4.517   7.578   2.068 -0.1247  0.1462 -0.0939
   25BDTP    C531525   4.431   7.653   1.982 -0.0976  0.2207 -0.0564
   25BDTP    C631526   4.418   7.791   1.991  0.0509  0.2364 -0.0722
   25BDTP    C731527   4.514   7.436   2.040 -0.2890  0.1438 -0.0680
   25BDTP    C831528   4.432   7.401   1.938 -0.3850  0.2121 -0.0138
   25BDTP    S131529   4.346   7.543   1.864 -0.2812  0.2887  0.0124
   25BDTP    C931530   4.495   8.000   2.117  0.3431  0.1783 -0.1534
   25BDTP   C1031531   4.578   8.035   2.219  0.4392  0.1101 -0.2077
   25BDTP    S231532   4.664   7.893   2.293  0.3352  0.0333 -0.2338
   26FTM     S131533   4.737   7.407   2.265  0.4566  0.0074  0.1139
   26FTM     C131534   4.760   7.401   2.444 -0.6242 -0.0823  0.2655
   26FTM     C231535   4.710   7.514   2.501 -1.0713 -0.1601  0.0389
   26FTM     C331536   4.652   7.610   2.411 -0.6115 -0.1549 -0.2592
   26FTM     C431537   4.658   7.569   2.281  0.2142 -0.0702 -0.2609
   26FTM     F131538   4.714   7.537   2.637 -1.9232 -0.2406  0.0879
   26FTM     C531539   4.808   7.268   2.514 -0.0344  0.1542 -0.3639
   26FTM     C631540   4.939   7.264   2.598 -0.1409  0.2561  0.6576
   26FTM     C731541   4.952   7.350   2.722 -0.5865 -0.0670  0.1467
   26FTM     C831542   4.854   7.322   2.835  0.1133  0.4313  0.4513
   26FTM     C931543   4.892   7.205   2.919  0.1813 -0.5343  0.4912
   26FTM    C1031544   4.833   7.216   3.054  0.2095  0.2089 -0.3406
   26FTM    C1131545   5.067   7.294   2.521  0.5589  0.4551  0.7242
   26FTM    C1231546   5.108   7.211   2.396 -0.0323  0.1112 -0.4437
   27FTM     S131547   4.388   7.867   1.715 -0.0783  0.1704  0.0713
   27FTM     C131548   4.248   7.976   1.682 -0.1742  0.0484  0.0770
   27FTM     C231549   4.180   7.999   1.798 -0.1260  0.0772  0.0998
   27FTM     C331550   4.231   7.935   1.915 -0.0145  0.1930  0.1140
   27FTM     C431551   4.342   7.861   1.890  0.0242  0.2552  0.1015
   27FTM     F131552   4.066   8.079   1.803 -0.1801  0.0002  0.1093
   27FTM     C531553   4.206   8.027   1.545 -0.1009  0.2055 -0.0076
   27FTM     C631554   4.248   7.960   1.413  0.0129  0.2881  0.0484
   27FTM     C731555   4.222   7.807   1.405  0.1768  0.2654  0.0752
   27FTM     C831556   4.073   7.780   1.385  0.4248  0.1570  0.0340
   27FTM     C931557   4.039   7.632   1.415  0.1358  0.0394  0.1044
   27FTM    C1031558   3.908   7.565   1.366 -0.3775  0.3283 -0.0892
   27FTM    C1131559   4.386   7.992   1.356  0.3032  0.2993  0.6557
   27FTM    C1231560   4.425   8.142   1.347 -0.4721  0.3203 -0.1385
   28TPM     C131561   4.578   8.168   2.283  0.1799 -0.3789 -0.1161
   28TPM     C231562   4.662   8.202   2.385  0.1956 -0.4983 -0.0888
   28TPM     C331563   4.656   8.342   2.421  0.1782 -0.5457  0.0969
   28TPM     C431564   4.568   8.414   2.346  0.1492 -0.4627  0.2113
   28TPM     S131565   4.484   8.310   2.224  0.1416 -0.3169  0.0923
   29BDD     C131566   4.582   8.782   2.482  0.0039  0.0711  0.0967
   29BDD     C231567   4.519   8.792   2.361  0.0206  0.0610  0.0872
   29BDD     C331568   4.504   8.665   2.293 -0.0753  0.0396  0.1496
   29BDD     C431569   4.555   8.559   2.363 -0.1641  0.0331  0.2059
   29BDD     S131570   4.627   8.613   2.519 -0.1334  0.0544  0.1847
   29BDD     C531571   4.471   8.919   2.303  0.1258  0.0710  0.0201
   29BDD     C631572   4.438   8.652   2.161 -0.0757  0.0255  0.1511
   29BDD     O131573   4.425   8.542   2.103 -0.1585  0.0069  0.2049
   29BDD     O231574   4.484   9.029   2.362  0.2086  0.0896 -0.0337
   29BDD     C731575   4.390   8.779   2.104  0.0293  0.0353  0.0842
   29BDD     C831576   4.405   8.907   2.171  0.1255  0.0567  0.0217
   29BDD     C931577   4.354   9.012   2.101  0.2141  0.0632 -0.0346
   29BDD     S231578   4.282   8.959   1.945  0.1833  0.0420 -0.0134
   29BDD    C1031579   4.327   8.789   1.983  0.0461  0.0255  0.0745
   29BDD    C1131580   4.286   8.684   1.877 -0.0183 -0.7997 -0.1813
   29BDD    C1231581   4.392   8.629   1.788 -0.0086  0.5616  0.8198
   29BDD    C1331582   4.444   8.739   1.690 -0.0341  0.3419  0.1175
   29BDD    C1431583   4.349   8.803   1.590  0.2869 -0.1733  0.3387
   29BDD    C1531584   4.417   8.902   1.499  0.1668  0.2112 -0.3570
   29BDD    C1631585   4.323   8.966   1.398 -0.0215  0.5639  0.3511
   29BDD    C1731586   4.345   8.498   1.703  0.2560 -0.1531 -0.1300
   29BDD    C1831587   4.305   8.382   1.785  0.8920  0.8361  0.2806
   29BDD    C1931588   4.359   9.160   2.125 -0.0550  1.0667 -0.6517
   29BDD    C2031589   4.238   9.215   2.207 -0.6110 -0.2381 -0.4870
   29BDD    C2131590   4.267   9.356   2.269 -0.5827  0.7196  0.2478
   29BDD    C2231591   4.381   9.375   2.368 -0.3471  0.4349  0.1944
   29BDD    C2331592   4.363   9.320   2.511 -0.0175 -0.4871  0.6288
   29BDD    C2431593   4.481   9.348   2.598  0.0363 -0.2755 -0.0610
   29BDD    C2531594   4.099   9.207   2.142  0.5622  0.4242  0.6149
   29BDD    C2631595   4.075   9.271   2.001  0.0700 -0.5511 -0.3470
   30TPM     C131596   4.638   8.875   2.580  0.3474  0.0364 -0.3559
   30TPM     C231597   4.564   8.977   2.632  0.3713  0.1085 -0.4609
   30TPM     C331598   4.629   9.048   2.739  0.2152 -0.0718 -0.2449
   30TPM     C431599   4.753   9.000   2.769  0.0721 -0.2817  0.0245
   30TPM     S131600   4.798   8.861   2.663  0.1238 -0.2669  0.0266
   31BDTP    C131601   5.176   9.230   3.171 -0.0744  0.0007  0.1534
   31BDTP    C231602   5.215   9.093   3.162  0.0608  0.0420  0.1025
   31BDTP    C331603   5.145   9.000   3.086  0.1549  0.0026  0.0648
   31BDTP    C431604   5.032   9.044   3.015  0.1140 -0.0815  0.0779
   31BDTP    C531605   4.994   9.181   3.023 -0.0212 -0.1230  0.1287
   31BDTP    C631606   5.063   9.274   3.100 -0.1156 -0.0834  0.1664
   31BDTP    C731607   4.945   8.966   2.929  0.1936 -0.1355  0.0454
   31BDTP    C831608   4.844   9.037   2.874  0.1252 -0.2141  0.0692
   31BDTP    S131609   4.845   9.213   2.922 -0.0495 -0.2310  0.1360
   31BDTP    C931610   5.263   9.308   3.256 -0.1541  0.0546  0.1859
   31BDTP   C1031611   5.365   9.237   3.312 -0.0858  0.1330  0.1621
   31BDTP    S231612   5.364   9.062   3.263  0.0888  0.1504  0.0953
   32FTM     S131613   5.062   8.728   3.096  0.1911  0.1137  0.3683
   32FTM     C131614   5.191   8.605   3.074  0.1956  0.2560 -0.4618
   32FTM     C231615   5.312   8.666   3.063  0.0701  0.3855 -1.1729
   32FTM     C331616   5.311   8.809   3.070 -0.0347  0.3824 -1.1169
   32FTM     C431617   5.186   8.859   3.088  0.0121  0.2460 -0.3376
   32FTM     F131618   5.430   8.596   3.045  0.0426  0.5143 -1.9166
   32FTM     C531619   5.159   8.458   3.090 -0.4444  0.3279 -0.2706
   32FTM     C631620   5.020   8.399   3.112 -0.7623  0.3117  0.0654
   32FTM     C731621   4.958   8.440   3.248  0.8359  0.7113 -0.2342
   32FTM     C831622   5.036   8.433   3.385  0.5366  0.0459  0.7830
   32FTM     C931623   4.956   8.503   3.496  0.5153 -0.6367 -0.0105
   32FTM    C1031624   5.011   8.480   3.640 -0.0166 -0.9260  0.3849
   32FTM    C1131625   4.909   8.410   3.004 -0.2508 -0.2029  0.4866
   32FTM    C1231626   4.956   8.360   2.871  0.2114  0.2501 -0.7432
   33FTM     S131627   5.127   9.549   3.037 -0.1227  0.0793  0.3782
   33FTM     C131628   5.002   9.670   3.083 -0.2200  0.1709 -0.1209
   33FTM     C231629   4.894   9.607   3.137 -0.4252  0.2606 -0.4193
   33FTM     C331630   4.903   9.464   3.146 -0.5170  0.2635 -0.2812
   33FTM     C431631   5.021   9.416   3.097 -0.3776  0.1731  0.1365
   33FTM     F131632   4.782   9.674   3.182 -0.5420  0.3455 -0.8349
   33FTM     C531633   5.026   9.815   3.065 -0.2657  0.3062  0.2643
   33FTM     C631634   5.037   9.872   2.922 -0.8308  0.6548  0.5560
   33FTM     C731635   4.919   9.834   2.821  0.4513  0.2488 -0.1288
   33FTM     C831636   4.785   9.904   2.827 -0.4845 -0.3165  0.1642
   33FTM     C931637   4.698   9.887   2.948  0.3758  0.2145 -0.2930
   33FTM    C1031638   4.563   9.943   2.941  0.3725 -0.5339  0.2115
   33FTM    C1131639   5.106  10.007   2.895  0.3693  0.3550  0.1521
   33FTM    C1231640   5.241  10.028   2.960 -0.4742  0.0592 -0.5907
   34TPM     C131641   5.472   9.284   3.395  0.2003  0.4022 -0.4422
   34TPM     C231642   5.592   9.224   3.418  0.5355  0.8576 -0.9525
   34TPM     C331643   5.675   9.293   3.514  0.3904  0.8070 -0.7907
   34TPM     C431644   5.617   9.406   3.564 -0.0556  0.3132 -0.1570
   34TPM     S131645   5.454   9.434   3.494 -0.3288 -0.1303  0.2879
   35BDD     C131646   5.786   9.721   3.732 -0.1929 -0.1126  0.1539
   35BDD     C231647   5.821   9.615   3.811 -0.1155 -0.1106  0.1222
   35BDD     C331648   5.768   9.488   3.764 -0.0494 -0.1311  0.1023
   35BDD     C431649   5.692   9.500   3.650 -0.0773 -0.1487  0.1191
   35BDD     S131650   5.684   9.670   3.594 -0.1884 -0.1404  0.1608
   35BDD     C531651   5.905   9.626   3.932 -0.0995 -0.0897  0.1093
   35BDD     C631652   5.793   9.361   3.834  0.0390 -0.1328  0.0675
   35BDD     O131653   5.747   9.251   3.794  0.0960 -0.1504  0.0503
   35BDD     O231654   5.951   9.735   3.972 -0.1565 -0.0719  0.1265
   35BDD     C731655   5.877   9.372   3.955  0.0551 -0.1121  0.0545
   35BDD     C831656   5.930   9.498   4.002 -0.0111 -0.0916  0.0744
   35BDD     C931657   6.006   9.487   4.115  0.0169 -0.0739  0.0577
   35BDD     S231658   6.014   9.317   4.172  0.1279 -0.0822  0.0159
   35BDD    C1031659   5.912   9.265   4.034  0.1324 -0.1099  0.0229
   35BDD    C1131660   5.895   9.117   4.025  0.3255  0.5832 -0.2692
   35BDD    C1231661   5.808   9.039   4.125 -0.5579  0.6058 -0.0303
   35BDD    C1331662   5.669   9.104   4.145 -0.6212 -0.0233  0.0120
   35BDD    C1431663   5.582   9.041   4.257 -0.1704 -0.6311  0.1018
   35BDD    C1531664   5.448   9.109   4.282  0.2642 -0.2106 -0.6450
   35BDD    C1631665   5.384   9.052   4.414  0.0968  0.1363  0.4257
   35BDD    C1731666   5.838   8.890   4.092  0.0382 -0.0849  0.5356
   35BDD    C1831667   5.764   8.829   3.961 -0.0765  0.3587 -0.1192
   35BDD    C1931668   6.067   9.587   4.212 -0.1393 -0.7638  0.2018
   35BDD    C2031669   6.223   9.581   4.222  0.1035  0.9867 -0.3579
   35BDD    C2131670   6.302   9.602   4.094 -0.3616  0.6276  0.2587
   35BDD    C2231671   6.293   9.718   3.991  0.5271  0.4313 -0.5720
   35BDD    C2331672   6.282   9.858   4.051  0.5904 -0.1693 -0.6581
   35BDD    C2431673   6.318   9.974   3.961 -0.6725  0.3421  0.3046
   35BDD    C2531674   6.292   9.477   4.314  0.6417  0.3002  0.9083
   35BDD    C2631675   6.235   9.454   4.451 -0.0524  0.1477 -0.3653
   36TPM     C131676   5.821   9.865   3.724  0.4232 -0.3176 -0.1109
   36TPM     C231677   5.755   9.942   3.633 -0.0057 -0.5840 -0.0312
   36TPM     C331678   5.791  10.081   3.638 -0.4332 -0.4643 -0.1979
   36TPM     C431679   5.885  10.110   3.733 -0.3306 -0.1067 -0.4048
   36TPM     S131680   5.935   9.963   3.824  0.3191  0.1084 -0.4049
   37BDTP    C131681   6.183  10.664   3.806  0.0589  0.2607 -0.0016
   37BDTP    C231682   6.076  10.696   3.717  0.1140  0.2242 -0.0812
   37BDTP    C331683   5.984  10.601   3.673  0.0962  0.2216 -0.0389
   37BDTP    C431684   5.999  10.469   3.719  0.0206  0.2567  0.0879
   37BDTP    C531685   6.106  10.437   3.807 -0.0343  0.2933  0.1675
   37BDTP    C631686   6.197  10.532   3.851 -0.0166  0.2958  0.1252
   37BDTP    C731687   5.916  10.354   3.687 -0.0113  0.2614  0.1528
   37BDTP    C831688   5.956  10.239   3.747 -0.0865  0.2992  0.2758
   37BDTP    S131689   6.103  10.260   3.852 -0.1277  0.3342  0.3266
   37BDTP    C931690   6.265  10.779   3.838  0.0907  0.2560 -0.0665
   37BDTP   C1031691   6.226  10.894   3.778  0.1659  0.2182 -0.1895
   37BDTP    S231692   6.079  10.873   3.673  0.2072  0.1832 -0.2403
   38FTM     S131693   5.814  10.601   3.433  0.0204  0.0331 -0.1044
   38FTM     C131694   5.660  10.693   3.453  0.0301  0.0815 -0.2507
   38FTM     C231695   5.658  10.753   3.575  0.0808  0.3600 -0.3868
   38FTM     C331696   5.773  10.733   3.658  0.1144  0.5482 -0.3858
   38FTM     C431697   5.866  10.654   3.598  0.0887  0.4093 -0.2443
   38FTM     F131698   5.552  10.831   3.618  0.0999  0.4611 -0.5205
   38FTM     C531699   5.560  10.713   3.342  0.0287  0.2732  0.3183
   38FTM     C631700   5.422  10.644   3.337 -0.3603 -0.3135 -0.2575
   38FTM     C731701   5.326  10.718   3.239 -0.5370 -0.5060  0.6683
   38FTM     C831702   5.281  10.864   3.266  0.9231  0.3540 -0.3249
   38FTM     C931703   5.207  10.909   3.390 -0.5606  0.8286 -0.1963
   38FTM    C1031704   5.071  10.833   3.403 -0.0509 -0.6622 -0.0926
   38FTM    C1131705   5.411  10.492   3.351  0.6949  0.6473 -0.0977
   38FTM    C1231706   5.283  10.413   3.373  0.3879  0.2962 -0.5333
   39FTM     S131707   6.465  10.509   3.941  0.2037  0.3259  0.2273
   39FTM     C131708   6.489  10.462   4.113 -0.1101 -0.0843  0.1620
   39FTM     C231709   6.368  10.439   4.172 -0.2065 -0.4401 -0.1688
   39FTM     C331710   6.253  10.456   4.088 -0.0465 -0.4161 -0.3862
   39FTM     C431711   6.287  10.493   3.962  0.1801 -0.0292 -0.2168
   39FTM     F131712   6.355  10.401   4.305 -0.4457 -0.8088 -0.2940
   39FTM     C531713   6.629  10.458   4.167 -0.0518  0.0211 -0.1739
   39FTM     C631714   6.685  10.578   4.245  0.3435 -0.3119  0.3996
   39FTM     C731715   6.827  10.556   4.308 -0.5562  0.0791  0.1651
   39FTM     C831716   6.830  10.462   4.436  0.0311 -0.2025  0.5490
   39FTM     C931717   6.757  10.496   4.570  0.3837  0.5720  0.2510
   39FTM    C1031718   6.807  10.635   4.617 -0.2584 -0.6485  0.5440
   39FTM    C1131719   6.682  10.713   4.168  0.1196  0.2370 -0.2149
   39FTM    C1231720   6.696  10.839   4.245  0.2745 -0.2598 -0.7883
   40TPM     C131721   6.290  11.025   3.783 -0.1306  0.2730 -0.0943
   40TPM     C231722   6.287  11.121   3.686  0.0393  0.3211 -0.0518
   40TPM     C331723   6.374  11.233   3.713  0.2375  0.1562 -0.0018
   40TPM     C431724   6.443  11.222   3.830  0.2191 -0.0175 -0.0060
   40TPM     S131725   6.403  11.069   3.917 -0.0524  0.0138 -0.0741
   41BDD     C131726   6.767  11.399   3.952 -0.1602 -0.0451  0.2135
   41BDD     C231727   6.701  11.496   3.881 -0.0969 -0.0717  0.1181
   41BDD     C331728   6.576  11.450   3.824  0.0224 -0.1339 -0.0980
   41BDD     C431729   6.548  11.320   3.853  0.0482 -0.1539 -0.1642
   41BDD     S131730   6.676  11.245   3.952 -0.0750 -0.0962  0.0394
   41BDD     C531731   6.752  11.634   3.863 -0.1436 -0.0408  0.2220
   41BDD     C631732   6.488  11.538   3.744  0.1063 -0.1713 -0.2310
   41BDD     O131733   6.380  11.499   3.695  0.2092 -0.2250 -0.4174
   41BDD     O231734   6.860  11.673   3.912 -0.2465  0.0129  0.4082
   41BDD     C731735   6.538  11.676   3.726  0.0595 -0.1404 -0.1272
   41BDD     C831736   6.664  11.722   3.783 -0.0598 -0.0782  0.0889
   41BDD     C931737   6.692  11.852   3.754 -0.0857 -0.0582  0.1550
   41BDD     S231738   6.563  11.927   3.654  0.0376 -0.1159 -0.0486
   41BDD    C1031739   6.473  11.773   3.655  0.1228 -0.1670 -0.2227
   41BDD    C1131740   6.339  11.787   3.579 -1.1484 -0.2180  0.6788
   41BDD    C1231741   6.209  11.735   3.641  0.5320 -0.8870  0.2154
   41BDD    C1331742   6.178  11.801   3.776  0.0833  0.4696 -0.9099
   41BDD    C1431743   6.061  11.733   3.847  0.0539 -0.3097  0.6095
   41BDD    C1531744   6.024  11.812   3.970 -0.1714  0.0068  0.6710
   41BDD    C1631745   5.907  11.754   4.060  0.0970  0.2009  0.2636
   41BDD    C1731746   6.086  11.741   3.544 -0.1006  0.2205  0.2418
   41BDD    C1831747   6.040  11.868   3.491 -0.0013 -0.3387  0.3157
   41BDD    C1931748   6.817  11.935   3.784  0.3635 -0.0203  0.3143
   41BDD    C2031749   6.914  11.950   3.668 -0.0433  0.5433  0.1018
   41BDD    C2131750   6.950  11.815   3.599  0.2607 -0.3684  0.3044
   41BDD    C2231751   7.024  11.819   3.463  0.1326 -0.2406 -0.1436
   41BDD    C2331752   6.958  11.915   3.366  0.2369 -0.8268 -0.0190
   41BDD    C2431753   7.006  11.919   3.225  0.0825  0.1773 -0.2260
   41BDD    C2531754   7.044  12.022   3.701 -0.2340 -0.6964 -0.0609
   41BDD    C2631755   7.039  12.168   3.752 -0.0006  0.4913  0.0548
   42TPM     C131756   6.892  11.391   4.031 -0.0679  0.0831 -0.3881
   42TPM     C231757   6.892  11.320   4.147 -0.4772 -0.0418 -0.4585
   42TPM     C331758   7.014  11.334   4.223 -0.6406 -0.3240 -0.1378
   42TPM     C431759   7.107  11.415   4.163 -0.3558 -0.4143  0.1772
   42TPM     S131760   7.046  11.481   4.007  0.1448 -0.1478  0.0925
   43BDTP    C131761   7.671  11.635   4.337 -0.0055  0.0737 -0.2131
   43BDTP    C231762   7.652  11.528   4.429  0.0688  0.0757 -0.1956
   43BDTP    C331763   7.538  11.448   4.428  0.0542  0.0958 -0.0807
   43BDTP    C431764   7.438  11.476   4.334 -0.0378  0.1150  0.0215
   43BDTP    C531765   7.457  11.583   4.242 -0.1118  0.1131  0.0038
   43BDTP    C631766   7.571  11.663   4.242 -0.0973  0.0928 -0.1110
   43BDTP    C731767   7.312  11.407   4.314 -0.0698  0.1377  0.1489
   43BDTP    C831768   7.236  11.457   4.214 -0.1632  0.1526  0.2267
   43BDTP    S131769   7.314  11.599   4.130 -0.2238  0.1401  0.1497
   43BDTP    C931770   7.797  11.704   4.356  0.0266  0.0510 -0.3406
   43BDTP   C1031771   7.873  11.654   4.457  0.1200  0.0362 -0.4185
   43BDTP    S231772   7.795  11.512   4.541  0.1807  0.0486 -0.3414
   44FTM     S131773   7.572  11.167   4.469  0.3901  0.2404  0.1548
   44FTM     C131774   7.559  11.113   4.640  0.1407  0.6021  0.2532
   44FTM     C231775   7.531  11.219   4.720 -0.4956  0.6896 -0.0727
   44FTM     C331776   7.518  11.346   4.655 -0.8203  0.4857 -0.4104
   44FTM     C431777   7.537  11.337   4.520 -0.4196  0.2338 -0.3411
   44FTM     F131778   7.516  11.208   4.858 -0.8218  0.9597 -0.0842
   44FTM     C531779   7.583  10.966   4.657  0.0674  0.3979 -0.4278
   44FTM     C631780   7.575  10.891   4.795  0.3778 -0.1285 -0.1272
   44FTM     C731781   7.433  10.891   4.856  0.5099  0.1800 -0.8078
   44FTM     C831782   7.311  10.834   4.786  0.1303  0.1430  0.6951
   44FTM     C931783   7.346  10.686   4.764  0.3106 -0.0776  0.2246
   44FTM    C1031784   7.239  10.622   4.682 -0.2646 -0.5728  0.0318
   44FTM    C1131785   7.670  10.917   4.908 -0.1504 -0.6952 -0.3988
   44FTM    C1231786   7.823  10.945   4.905  0.7932 -0.4026 -0.2559
   45FTM     S131787   7.723  11.806   4.048 -0.0321  0.1306 -0.1146
   45FTM     C131788   7.650  11.957   3.984 -0.2025 -0.0061 -0.2425
   45FTM     C231789   7.527  11.977   4.039 -0.2053 -0.0739 -0.2253
   45FTM     C331790   7.484  11.877   4.133 -0.0786 -0.0250 -0.1143
   45FTM     C431791   7.577  11.779   4.150  0.0253  0.0839 -0.0441
   45FTM     F131792   7.447  12.085   4.008 -0.3233 -0.1842 -0.3091
   45FTM     C531793   7.723  12.050   3.891 -0.3534 -0.8015 -1.1312
   45FTM     C631794   7.875  12.045   3.874 -0.0649 -0.5478 -0.0584
   45FTM     C731795   7.926  11.914   3.811  0.2787  0.3581 -0.1933
   45FTM     C831796   7.879  11.875   3.669  0.2783  0.5363 -0.2279
   45FTM     C931797   7.929  11.745   3.605  0.6539 -0.4516  0.0855
   45FTM    C1031798   7.901  11.616   3.686  0.1166 -0.2420  0.1104
   45FTM    C1131799   7.976  12.103   3.977  0.1010 -0.3852  0.1897
   45FTM    C1231800   7.930  12.240   4.035  0.3421  0.5042  0.5471
   46TPM     C131801   7.999  11.704   4.503  0.2296  0.2517  0.5311
   46TPM     C231802   8.062  11.674   4.620  0.5515  0.6012  0.4531
   46TPM     C331803   8.187  11.742   4.638  0.5467  0.7467 -0.0389
   46TPM     C431804   8.221  11.823   4.534  0.2218  0.5080 -0.3361
   46TPM     S131805   8.095  11.821   4.405 -0.1069  0.0778 -0.0150
   47BDD     C131806   8.587  11.949   4.551 -0.1598  0.1059 -0.1256
   47BDD     C231807   8.516  12.055   4.503 -0.1190  0.1508 -0.0865
   47BDD     C331808   8.374  12.030   4.494 -0.1571  0.2876  0.1215
   47BDD     C431809   8.338  11.905   4.535 -0.2263  0.3451  0.2380
   47BDD     S131810   8.481  11.809   4.588 -0.2487  0.2318  0.0954
   47BDD     C531811   8.577  12.184   4.464 -0.0434  0.0696 -0.2389
   47BDD     C631812   8.278  12.131   4.445 -0.1235  0.3563  0.1971
   47BDD     O131813   8.155  12.109   4.438 -0.1564  0.4743  0.3763
   47BDD     O231814   8.700  12.206   4.471 -0.0105 -0.0484 -0.4182
   47BDD     C731815   8.338  12.260   4.406 -0.0482  0.2751  0.0447
   47BDD     C831816   8.481  12.285   4.415 -0.0100  0.1383 -0.1632
   47BDD     C931817   8.517  12.411   4.374  0.0596  0.0808 -0.2797
   47BDD     S231818   8.374  12.506   4.321  0.0818  0.1940 -0.1372
   47BDD    C1031819   8.267  12.367   4.358 -0.0072  0.3200  0.0838
   47BDD    C1131820   8.121  12.393   4.326 -0.7364  0.1253  0.7453
   47BDD    C1231821   8.027  12.457   4.423 -0.0689  0.0533 -0.0660
   47BDD    C1331822   8.022  12.389   4.563  0.6055  0.9602  0.5549
   47BDD    C1431823   7.936  12.466   4.668  0.2147  0.7756  0.4266
   47BDD    C1531824   7.996  12.600   4.714 -0.2555 -0.3224 -0.4193
   47BDD    C1631825   7.897  12.677   4.799 -0.6169  0.2979  0.2607
   47BDD    C1731826   7.889  12.492   4.372 -0.4909 -0.5561 -0.0150
   47BDD    C1831827   7.873  12.588   4.255  0.1552 -0.4063  0.0991
   47BDD    C1931828   8.653  12.481   4.375  0.2889  0.2529  0.3971
   47BDD    C2031829   8.745  12.457   4.253  0.5674  0.6530  0.2181
   47BDD    C2131830   8.880  12.526   4.281 -0.3045  0.4938  0.0458
   47BDD    C2231831   8.990  12.523   4.171 -0.2166 -0.2118 -0.0196
   47BDD    C2331832   9.101  12.623   4.186 -0.1770  0.3718  0.3787
   47BDD    C2431833   9.188  12.618   4.059  0.1668  0.0831 -0.3968
   47BDD    C2531834   8.680  12.456   4.115 -0.0527  0.1815 -0.7265
   47BDD    C2631835   8.612  12.589   4.075  0.7329  0.3873  0.0991
   48TPM     C131836   8.734  11.926   4.579  0.2757  0.3433  0.1867
   48TPM     C231837   8.832  11.948   4.488  0.4501  0.4616  0.4009
   48TPM     C331838   8.964  11.912   4.534  0.3247  0.1203  0.5008
   48TPM     C431839   8.965  11.863   4.662  0.0549 -0.2582  0.3628
   48TPM     S131840   8.800  11.858   4.733 -0.0635 -0.2127  0.0940
   49BDTP    C131841   9.491  11.756   4.985  0.1512 -0.2200 -0.2182
   49BDTP    C231842   9.419  11.634   4.999  0.0505 -0.1518 -0.1354
   49BDTP    C331843   9.295  11.612   4.942 -0.0093 -0.0550 -0.0430
   49BDTP    C431844   9.237  11.716   4.867  0.0319 -0.0239 -0.0314
   49BDTP    C531845   9.309  11.839   4.852  0.1328 -0.0920 -0.1140
   49BDTP    C631846   9.433  11.860   4.909  0.1924 -0.1888 -0.2064
   49BDTP    C731847   9.110  11.717   4.798 -0.0151  0.0725  0.0571
   49BDTP    C831848   9.082  11.833   4.733  0.0441  0.0801  0.0451
   49BDTP    S131849   9.214  11.957   4.750  0.1683 -0.0340 -0.0801
   49BDTP    C931850   9.618  11.755   5.053  0.1984 -0.3164 -0.3066
   49BDTP   C1031851   9.646  11.640   5.118  0.1392 -0.3240 -0.2944
   49BDTP    S231852   9.514  11.516   5.101  0.0145 -0.2098 -0.1694
   50FTM     S131853   9.067  11.499   5.066 -0.0423 -0.0270 -0.0267
   50FTM     C131854   9.051  11.320   5.069 -0.2659 -0.0051  0.2275
   50FTM     C231855   9.156  11.263   5.003 -0.4611 -0.2213  0.1004
   50FTM     C331856   9.252  11.354   4.947 -0.4492 -0.4126 -0.1951
   50FTM     C431857   9.220  11.484   4.972 -0.2376 -0.3404 -0.2978
   50FTM     F131858   9.171  11.126   4.989 -0.6626 -0.2589  0.2443
   50FTM     C531859   8.952  11.256   5.154  0.0056  0.6230 -0.4899
   50FTM     C631860   8.802  11.235   5.111  0.5948 -0.0526  0.4515
   50FTM     C731861   8.785  11.144   4.990  0.2167 -0.1885 -0.1709
   50FTM     C831862   8.787  10.992   5.019  0.1820  0.4267  0.5649
   50FTM     C931863   8.685  10.925   5.111  0.6258 -1.0519  0.4829
   50FTM    C1031864   8.721  10.787   5.161  0.3671  0.3378  0.2119
   50FTM    C1131865   8.716  11.356   5.076 -0.3833  0.2322  0.2709
   50FTM    C1231866   8.701  11.449   5.191  0.0153  0.1228  0.2330
   51FTM     S131867   9.506  12.123   4.996 -0.0795 -0.1131  0.1522
   51FTM     C131868   9.603  12.222   4.881 -0.3583  0.2854  0.2573
   51FTM     C231869   9.629  12.150   4.769 -0.3989  0.5789  0.0575
   51FTM     C331870   9.577  12.017   4.766 -0.2201  0.5134 -0.1838
   51FTM     C431871   9.508  11.986   4.879 -0.0365  0.1582 -0.1681
   51FTM     F131872   9.702  12.201   4.662 -0.6003  0.9243  0.0811
   51FTM     C531873   9.634  12.366   4.918  0.4049 -0.3971  0.8605
   51FTM     C631874   9.578  12.483   4.831 -0.1476  0.4714 -0.2310
   51FTM     C731875   9.592  12.628   4.893 -0.7902 -0.1234  0.1875
   51FTM     C831876   9.724  12.666   4.967  0.1483 -0.2073 -0.1952
   51FTM     C931877   9.847  12.672   4.884 -0.1526 -0.7464  0.2369
   51FTM    C1031878   9.966  12.727   4.971  0.4604  0.8275 -0.2572
   51FTM    C1131879   9.438  12.457   4.770  0.7382  0.5335 -0.7298
   51FTM    C1231880   9.384  12.558   4.668 -0.0390  0.1325  0.2179
   52TPM     C131881   9.755  11.621   5.210  0.0414  0.2237 -0.0935
   52TPM     C231882   9.761  11.548   5.325 -0.0719  0.0835 -0.1761
   52TPM     C331883   9.885  11.563   5.397 -0.0409 -0.2016 -0.1651
   52TPM     C431884   9.973  11.648   5.338  0.0960 -0.2787 -0.0742
   52TPM     S131885   9.906  11.716   5.184  0.1972  0.0049  0.0052
   53BDD     C131886  10.273  11.663   5.597  0.0133  0.0455  0.2775
   53BDD     C231887  10.287  11.774   5.518  0.0268  0.0170  0.2403
   53BDD     C331888  10.190  11.781   5.410  0.1280 -0.0904  0.1400
   53BDD     C431889  10.102  11.676   5.410  0.1903 -0.1423  0.1022
   53BDD     S131890  10.136  11.561   5.543  0.1265 -0.0603  0.1895
   53BDD     C531891  10.392  11.876   5.538 -0.0530  0.0876  0.2956
   53BDD     C631892  10.187  11.892   5.313  0.1593 -0.1377  0.0852
   53BDD     O131893  10.103  11.898   5.220  0.2467 -0.2303 -0.0011
   53BDD     O231894  10.476  11.870   5.630 -0.1403  0.1802  0.3822
   53BDD     C731895  10.291  11.995   5.333  0.0796 -0.0671  0.1408
   53BDD     C831896  10.389  11.987   5.440 -0.0217  0.0404  0.2409
   53BDD     C931897  10.477  12.092   5.441 -0.0840  0.0923  0.2788
   53BDD     S231898  10.443  12.207   5.308 -0.0201  0.0102  0.1914
   53BDD    C1031899  10.306  12.105   5.253  0.0931 -0.0955  0.1035
   53BDD    C1131900  10.249  12.143   5.115  0.5604 -0.4394  0.0249
   53BDD    C1231901  10.102  12.202   5.098 -0.4513 -0.0112  0.7122
   53BDD    C1331902  10.058  12.225   4.950 -0.2360 -0.3966  0.1553
   53BDD    C1431903  10.048  12.101   4.856 -0.4592  0.5163 -0.4942
   53BDD    C1531904   9.969  11.980   4.914 -0.2433 -0.7861  0.1396
   53BDD    C1631905   9.989  11.863   4.821  0.5480  0.4216  0.3119
   53BDD    C1731906  10.065  12.331   5.180  0.6748  0.1056 -0.1865
   53BDD    C1831907  10.153  12.447   5.173 -0.3551 -0.1397 -0.0083
   53BDD    C1931908  10.585  12.129   5.535 -0.5984 -0.0662 -0.3269
   53BDD    C2031909  10.565  12.255   5.616  0.3928 -0.1738 -0.2867
   53BDD    C2131910  10.432  12.252   5.695  0.2975  0.1276  0.4815
   53BDD    C2231911  10.366  12.381   5.740  0.2626 -0.2556 -0.2236
   53BDD    C2331912  10.254  12.352   5.835 -0.4347  0.1506 -0.0945
   53BDD    C2431913  10.179  12.481   5.887  0.0799  0.4847  0.3270
   53BDD    C2531914  10.683  12.298   5.703  0.0333  0.4400 -0.4639
   53BDD    C2631915  10.730  12.196   5.809 -0.4704 -0.1775  0.2012
   54TPM     C131916  10.331  11.599   5.714 -0.3236 -0.0436 -0.2601
   54TPM     C231917  10.456  11.616   5.765 -0.3378  0.0392 -0.2524
   54TPM     C331918  10.486  11.528   5.875 -0.2200 -0.0708 -0.3719
   54TPM     C431919  10.384  11.444   5.908 -0.1161 -0.2376 -0.4708
   54TPM     S131920  10.240  11.470   5.802 -0.1592 -0.2688 -0.4202
   55BDTP    C131921  10.379  11.060   6.403 -0.1049  0.2321  0.0092
   55BDTP    C231922  10.248  11.042   6.349 -0.0464  0.1025 -0.0913
   55BDTP    C331923  10.205  11.107   6.233 -0.0441  0.1114 -0.0871
   55BDTP    C431924  10.295  11.193   6.169 -0.1021  0.2545  0.0211
   55BDTP    C531925  10.426  11.211   6.223 -0.1606  0.3840  0.1216
   55BDTP    C631926  10.469  11.146   6.338 -0.1629  0.3752  0.1175
   55BDTP    C731927  10.274  11.271   6.048 -0.1117  0.2916  0.0467
   55BDTP    C831928  10.381  11.345   6.010 -0.1737  0.4407  0.1602
   55BDTP    S131929  10.524  11.327   6.121 -0.2288  0.5553  0.2507
   55BDTP    C931930  10.400  10.982   6.523 -0.0953  0.1950 -0.0163
   55BDTP   C1031931  10.293  10.908   6.561 -0.0333  0.0458 -0.1299
   55BDTP    S231932  10.150  10.926   6.450  0.0217 -0.0687 -0.2202
   56FTM     S131933  10.036  11.000   6.036 -0.0860  0.0928 -0.0931
   56FTM     C131934   9.859  11.017   6.063 -0.0798  0.1934 -0.1137
   56FTM     C231935   9.836  11.086   6.178 -0.0539 -0.1050  0.0709
   56FTM     C331936   9.952  11.128   6.251 -0.0377 -0.4225  0.2357
   56FTM     C431937  10.068  11.091   6.189 -0.0517 -0.3653  0.1753
   56FTM     F131938   9.709  11.114   6.225 -0.0433 -0.1085  0.1017
   56FTM     C531939   9.766  10.974   5.954 -0.0969  0.3144  0.5452
   56FTM     C631940   9.810  10.997   5.804 -0.3992  0.3531 -0.5492
   56FTM     C731941   9.739  10.916   5.692 -0.0784  0.0844  0.4807
   56FTM     C831942   9.726  10.771   5.710 -0.4009  0.5687  0.2197
   56FTM     C931943   9.652  10.698   5.598 -0.7833  0.1221 -0.3740
   56FTM    C1031944   9.639  10.552   5.639 -0.3747  0.3204 -0.1250
   56FTM    C1131945   9.837  11.143   5.776 -0.2508  0.1202  0.1199
   56FTM    C1231946   9.946  11.164   5.669 -0.3892 -0.0233  0.5272
   57FTM     S131947  10.730  11.041   6.412 -0.0380 -0.1830  0.2392
   57FTM     C131948  10.838  11.160   6.492 -0.3604  0.0684  0.3027
   57FTM     C231949  10.775  11.281   6.500 -0.6286 -0.0643  0.2288
   57FTM     C331950  10.643  11.287   6.446 -0.6004 -0.3622  0.1210
   57FTM     C431951  10.602  11.168   6.395 -0.3008 -0.4610  0.1118
   57FTM     F131952  10.834  11.393   6.557 -0.9155  0.0763  0.2543
   57FTM     C531953  10.981  11.124   6.531 -0.3261  0.3125  0.4745
   57FTM     C631954  11.017  11.022   6.638  0.1891 -1.3102 -0.7553
   57FTM     C731955  11.167  11.009   6.641  0.1505 -0.0920 -0.2336
   57FTM     C831956  11.225  10.921   6.529  0.1341 -0.5505  0.1381
   57FTM     C931957  11.370  10.885   6.550 -0.4354 -0.0030 -0.7749
   57FTM    C1031958  11.458  11.001   6.515  0.2186 -0.0019  0.5112
   57FTM    C1131959  10.940  11.049   6.770  0.0977 -0.7547 -0.2686
   57FTM    C1231960  10.984  10.966   6.890 -0.5554  0.2166  0.1044
   58TPM     C131961  10.280  10.806   6.669 -0.0590  0.1187 -0.0365
   58TPM     C231962  10.163  10.738   6.689 -0.0644  0.1742  0.1193
   58TPM     C331963  10.177  10.622   6.772 -0.0300  0.2326  0.1955
   58TPM     C431964  10.304  10.600   6.816  0.0017  0.2216  0.0976
   58TPM     S131965  10.417  10.726   6.754 -0.0095  0.1360 -0.0998
   59BDD     C131966  10.267  10.254   6.996  0.0284  0.3053  0.2287
   59BDD     C231967  10.398  10.258   6.956  0.0228  0.2106  0.2009
   59BDD     C331968  10.435  10.383   6.892  0.0821  0.1582  0.1336
   59BDD     C431969  10.332  10.472   6.882  0.1321  0.2137  0.1116
   59BDD     S131970  10.182  10.407   6.954  0.1083  0.3353  0.1731
   59BDD     C531971  10.494  10.147   6.977 -0.0372  0.1649  0.2350
   59BDD     C631972  10.572  10.408   6.841  0.0871  0.0550  0.0941
   59BDD     O131973  10.604  10.516   6.785  0.1382  0.0098  0.0361
   59BDD     O231974  10.462  10.040   7.033 -0.0883  0.2101  0.2928
   59BDD     C731975  10.667  10.298   6.861  0.0271  0.0093  0.1279
   59BDD     C831976  10.630  10.173   6.926 -0.0322  0.0617  0.1951
   59BDD     C931977  10.733  10.084   6.935 -0.0822  0.0062  0.2173
   59BDD     S231978  10.884  10.149   6.863 -0.0584 -0.1155  0.1558
   59BDD    C1031979  10.798  10.301   6.822  0.0215 -0.0854  0.0999
   59BDD    C1131980  10.866  10.416   6.748 -0.3935  0.4622 -0.3730
   59BDD    C1231981  11.011  10.442   6.785  0.1744 -0.6836  0.0457
   59BDD    C1331982  11.034  10.464   6.936 -1.0126 -0.1576 -0.2459
   59BDD    C1431983  11.012  10.594   7.011 -1.0066 -0.2857  0.4276
   59BDD    C1531984  11.039  10.575   7.161 -0.1983 -0.1443  0.3871
   59BDD    C1631985  11.076  10.700   7.236 -0.0681  0.0944  0.5222
   59BDD    C1731986  11.079  10.544   6.693 -0.2347 -0.1719  0.3998
   59BDD    C1831987  11.231  10.568   6.717  0.7442  0.6247  0.2412
   59BDD    C1931988  10.739   9.942   6.981 -0.4229 -0.3603  0.1088
   59BDD    C2031989  10.851   9.908   7.084  0.1348 -0.5302 -0.2918
   59BDD    C2131990  10.859   9.758   7.112 -0.3498 -0.0060  0.4524
   59BDD    C2231991  10.988   9.699   7.171 -0.0230  0.3322  1.0453
   59BDD    C2331992  10.967   9.553   7.227  0.1029  0.0088  0.4217
   59BDD    C2431993  11.097   9.520   7.305  0.0716  0.2482 -0.3487
   59BDD    C2531994  10.846   9.999   7.205 -0.0638  0.5382  0.1192
   59BDD    C2631995  10.729   9.973   7.297  0.1241 -0.1669 -0.0294
   60TPM     C131996  10.174  10.147   7.036  0.0443  0.0770 -0.3217
   60TPM     C231997  10.193  10.071   7.148  0.1196  0.7147  0.1063
   60TPM     C331998  10.085   9.981   7.176  0.1655  0.8275  0.6639
   60TPM     C431999   9.983   9.988   7.086  0.1252  0.2758  0.6612
   60TPM     S132000  10.017  10.110   6.957  0.0254 -0.4346 -0.0515
    1BDTP    C132001   0.685   7.052   3.937  0.0988 -0.0050  0.0067
    1BDTP    C232002   0.624   6.989   3.825  0.0492  0.0726 -0.0099
    1BDTP    C332003   0.604   7.054   3.704  0.0160  0.1494  0.0368
    1BDTP    C432004   0.646   7.188   3.693  0.0326  0.1496  0.1031
    1BDTP    C532005   0.708   7.251   3.806  0.0822  0.0720  0.1197
    1BDTP    C632006   0.728   7.186   3.926  0.1154 -0.0046  0.0729
    1BDTP    C732007   0.636   7.276   3.579  0.0051  0.2212  0.1601
    1BDTP    C832008   0.686   7.400   3.599  0.0313  0.2012  0.2179
    1BDTP    S132009   0.753   7.423   3.766  0.0946  0.0892  0.2083
    1BDTP    C932010   0.696   6.964   4.052  0.1263 -0.0765 -0.0504
    1BDTP   C1032011   0.646   6.840   4.032  0.1001 -0.0566 -0.1081
    1BDTP    S232012   0.578   6.817   3.865  0.0368  0.0556 -0.0986
    2FTM     S132013   0.383   7.054   3.515  0.1327  0.0722  0.1738
    2FTM     C132014   0.402   6.937   3.379  0.1489  0.2779 -0.0020
    2FTM     C232015   0.512   6.860   3.400  0.1265  0.2226 -0.0885
    2FTM     C332016   0.587   6.886   3.520  0.0960  0.0218 -0.0248
    2FTM     C432017   0.532   6.987   3.593  0.0951 -0.0799  0.1149
    2FTM     F132018   0.552   6.761   3.312  0.1321  0.3504 -0.2304
    2FTM     C532019   0.303   6.946   3.269 -0.2547  0.7904  0.0798
    2FTM     C632020   0.149   6.917   3.297 -0.5280 -0.2165 -0.3615
    2FTM     C732021   0.100   6.796   3.388  0.0322 -0.5631  0.1808
    2FTM     C832022   0.156   6.660   3.371 -0.0684  0.4564  0.3654
    2FTM     C932023   0.109   6.561   3.477  0.5403  0.0070  0.1354
    2FTM    C1032024   0.180   6.575   3.615 -0.4214 -0.0295  0.0280
    2FTM    C1132025   0.046   6.955   3.188 -0.0734  0.3981  0.2892
    2FTM    C1232026   0.039   7.095   3.136 -0.4538  0.2921  0.4660
    3FTM     S132027   0.977   7.290   4.013  0.1733 -0.0329  0.0652
    3FTM     C132028   0.980   7.369   4.175 -0.0913 -0.1607  0.1336
    3FTM     C232029   0.856   7.365   4.231 -0.1793 -0.2208 -0.0647
    3FTM     C332030   0.753   7.302   4.153 -0.0494 -0.1723 -0.2764
    3FTM     C432031   0.801   7.256   4.034  0.1443 -0.0718 -0.2393
    3FTM     F132032   0.828   7.419   4.356 -0.3827 -0.3232 -0.0660
    3FTM     C532033   1.114   7.417   4.225 -0.1002 -0.5789  0.1319
    3FTM     C632034   1.139   7.565   4.269  0.2201  0.2903 -0.1672
    3FTM     C732035   1.286   7.595   4.253 -0.3401  0.0285 -0.0874
    3FTM     C832036   1.330   7.610   4.103  0.6504 -0.7858 -0.3728
    3FTM     C932037   1.273   7.733   4.035 -0.4969  0.0479  0.1026
    3FTM    C1032038   1.323   7.868   4.095 -0.2930 -0.3186 -0.0727
    3FTM    C1132039   1.069   7.602   4.403  0.1859  0.0936  0.3177
    3FTM    C1232040   1.059   7.751   4.439 -0.4350  0.4594  0.5777
    4TPM     C132041   0.628   6.730   4.124  0.3076  0.1882 -0.0454
    4TPM     C232042   0.621   6.599   4.084  0.4418  0.2720 -0.3502
    4TPM     C332043   0.612   6.506   4.193 -0.0426  0.0439 -0.5796
    4TPM     C432044   0.612   6.565   4.316 -0.5462 -0.2140 -0.4498
    4TPM     S132045   0.624   6.744   4.303 -0.4469 -0.1886 -0.0243
    5BDD     C132046   0.528   6.326   4.613  0.0658 -0.1563  0.3298
    5BDD     C232047   0.660   6.360   4.627  0.0701 -0.1428  0.2587
    5BDD     C332048   0.707   6.451   4.524 -0.0193 -0.0638  0.2869
    5BDD     C432049   0.611   6.485   4.433 -0.0904 -0.0181  0.3790
    5BDD     S132050   0.454   6.406   4.470 -0.0504 -0.0707  0.4370
    5BDD     C532051   0.747   6.309   4.735  0.1565 -0.2024  0.1622
    5BDD     C632052   0.847   6.500   4.520 -0.0308 -0.0365  0.2214
    5BDD     O132053   0.888   6.578   4.432 -0.1079  0.0318  0.2457
    5BDD     O232054   0.706   6.231   4.824  0.2335 -0.2707  0.1378
    5BDD     C732055   0.934   6.450   4.629  0.0556 -0.0961  0.1249
    5BDD     C832056   0.886   6.359   4.731  0.1449 -0.1752  0.0967
    5BDD     C932057   0.982   6.324   4.822  0.2160 -0.2211  0.0045
    5BDD     S232058   1.139   6.403   4.785  0.1761 -0.1683 -0.0535
    5BDD    C1032059   1.065   6.483   4.643  0.0599 -0.0827  0.0539
    5BDD    C1132060   1.166   6.568   4.566 -0.0643  0.1576 -0.1772
    5BDD    C1232061   1.206   6.709   4.626 -0.1585 -0.6263  0.0583
    5BDD    C1332062   1.088   6.801   4.659 -0.5734 -0.0523  0.0436
    5BDD    C1432063   1.013   6.858   4.547  0.1902 -0.3353 -0.1372
    5BDD    C1532064   0.898   6.954   4.580 -0.2783  0.4689  0.2837
    5BDD    C1632065   0.830   6.991   4.446  0.1381  0.4179 -0.0358
    5BDD    C1732066   1.311   6.796   4.547 -0.5243  0.3477 -0.4137
    5BDD    C1832067   1.444   6.731   4.527 -0.4244 -0.1726  0.1083
    5BDD    C1932068   0.981   6.237   4.947  0.1517 -0.2057  0.4037
    5BDD    C2032069   0.987   6.312   5.081  0.0075 -0.2119 -0.2387
    5BDD    C2132070   1.017   6.212   5.196 -0.3114 -0.8618 -0.4350
    5BDD    C2232071   1.093   6.272   5.313  0.2090 -0.1176 -0.3011
    5BDD    C2332072   1.242   6.307   5.284  0.4819  0.1542  0.1915
    5BDD    C2432073   1.305   6.383   5.403  0.0004  0.6773 -0.5916
    5BDD    C2532074   0.872   6.411   5.114 -0.3075  0.2933 -0.2682
    5BDD    C2632075   0.732   6.347   5.146  0.4149 -0.4236 -0.3634
    6TPM     C132076   0.422   6.258   4.692  0.0800 -0.0130 -0.6327
    6TPM     C232077   0.429   6.262   4.828  0.2722  0.4816 -0.6515
    6TPM     C332078   0.306   6.225   4.893  0.3407  0.7901 -0.3421
    6TPM     C432079   0.205   6.193   4.807  0.2006  0.5310 -0.0875
    6TPM     S132080   0.258   6.208   4.635 -0.0304 -0.1283 -0.2194
    7BDTP    C132081  -0.372   5.998   4.976  0.0870  0.0253 -0.1183
    7BDTP    C232082  -0.375   5.983   4.834  0.0746  0.0399 -0.1196
    7BDTP    C332083  -0.268   6.016   4.753  0.1185 -0.0818 -0.1128
    7BDTP    C432084  -0.152   6.067   4.814  0.1767 -0.2251 -0.1042
    7BDTP    C532085  -0.148   6.082   4.956  0.1888 -0.2398 -0.1029
    7BDTP    C632086  -0.256   6.048   5.037  0.1448 -0.1182 -0.1098
    7BDTP    C732087  -0.028   6.108   4.750  0.2294 -0.3675 -0.0960
    7BDTP    C832088   0.066   6.153   4.836  0.2792 -0.4870 -0.0888
    7BDTP    S132089   0.012   6.149   5.010  0.2670 -0.4358 -0.0913
    7BDTP    C932090  -0.495   5.956   5.040  0.0343  0.1677 -0.1264
    7BDTP   C1032091  -0.590   5.911   4.953 -0.0157  0.2872 -0.1335
    7BDTP    S232092  -0.536   5.916   4.780 -0.0037  0.2360 -0.1311
    8FTM     S132093  -0.176   5.888   4.519  0.0897 -0.2907  0.2057
    8FTM     C132094  -0.276   5.905   4.370  0.1995 -0.2767  0.1333
    8FTM     C232095  -0.380   5.989   4.394  0.3395 -0.0607 -0.0163
    8FTM     C332096  -0.388   6.045   4.526  0.3691  0.1030 -0.0825
    8FTM     C432097  -0.287   6.001   4.606  0.2480  0.0094  0.0201
    8FTM     F132098  -0.474   6.022   4.297  0.4492  0.0015 -0.1026
    8FTM     C532099  -0.237   5.816   4.252  0.3022  0.2414  0.5794
    8FTM     C632100  -0.336   5.705   4.204  0.3542  0.1666 -0.5531
    8FTM     C732101  -0.471   5.753   4.154 -0.3964  0.1273  0.3158
    8FTM     C832102  -0.469   5.852   4.029  0.1624 -0.4196  0.1097
    8FTM     C932103  -0.423   5.770   3.913  0.1768 -0.9106  0.6759
    8FTM    C1032104  -0.393   5.873   3.804  0.7709 -0.0376  0.3153
    8FTM    C1132105  -0.361   5.587   4.295  0.1022 -0.1585 -0.5328
    8FTM    C1232106  -0.251   5.495   4.338  0.0053 -0.5905  0.2396
    9FTM     S132107  -0.113   5.958   5.267  0.1497  0.1699  0.1212
    9FTM     C132108  -0.178   6.013   5.425 -0.2987 -0.1971  0.0672
    9FTM     C232109  -0.287   6.092   5.406 -0.6540 -0.6958 -0.0281
    9FTM     C332110  -0.325   6.115   5.270 -0.6003 -0.8203 -0.0644
    9FTM     C432111  -0.243   6.051   5.182 -0.1907 -0.4031  0.0057
    9FTM     F132112  -0.358   6.149   5.510 -1.0488 -1.0698 -0.0886
    9FTM     C532113  -0.121   5.936   5.548  0.1619  0.4021  0.0907
    9FTM     C632114  -0.038   6.004   5.658 -0.1273 -0.1081 -0.0099
    9FTM     C732115   0.100   6.072   5.627 -0.4150 -0.4992 -0.2505
    9FTM     C832116   0.204   5.992   5.548  0.0995  0.2131 -0.2392
    9FTM     C932117   0.318   6.087   5.496  0.5148 -0.0696 -0.3988
    9FTM    C1032118   0.378   6.034   5.373 -0.4895  0.0440 -0.1469
    9FTM    C1132119  -0.108   6.071   5.779  0.2239  0.1568  0.1922
    9FTM    C1232120  -0.181   5.983   5.882 -0.4159 -0.5579 -0.2290
   10TPM     C132121  -0.720   5.852   4.981 -0.2421  0.2566  0.1775
   10TPM     C232122  -0.759   5.793   5.098 -0.5782  0.3691  0.1249
   10TPM     C332123  -0.877   5.712   5.085 -0.4187  0.1835 -0.1873
   10TPM     C432124  -0.928   5.709   4.959  0.0383 -0.0708 -0.3730
   10TPM     S132125  -0.830   5.810   4.845  0.3053 -0.0954 -0.1661
   11BDD     C132126  -1.202   5.429   4.967  0.1302 -0.0418 -0.0680
   11BDD     C232127  -1.210   5.480   4.841  0.0370 -0.0393 -0.0613
   11BDD     C332128  -1.117   5.589   4.817 -0.1512  0.1259 -0.0504
   11BDD     C432129  -1.039   5.619   4.926 -0.1985  0.2471 -0.0491
   11BDD     S132130  -1.077   5.513   5.065 -0.0107  0.1627 -0.0614
   11BDD     C532131  -1.304   5.432   4.738  0.1175 -0.1889 -0.0645
   11BDD     C632132  -1.108   5.660   4.688 -0.2773  0.1576 -0.0418
   11BDD     O132133  -1.028   5.753   4.667 -0.4396  0.3002 -0.0325
   11BDD     O232134  -1.384   5.338   4.758  0.2797 -0.3314 -0.0739
   11BDD     C732135  -1.202   5.611   4.584 -0.1967  0.0081 -0.0449
   11BDD     C832136  -1.295   5.502   4.608 -0.0086 -0.1571 -0.0558
   11BDD     C932137  -1.373   5.473   4.500  0.0391 -0.2785 -0.0572
   11BDD     S232138  -1.335   5.579   4.360 -0.1490 -0.1939 -0.0450
   11BDD    C1032139  -1.210   5.663   4.458 -0.2899  0.0105 -0.0383
   11BDD    C1132140  -1.128   5.766   4.382  0.7492 -0.1733  0.6274
   11BDD    C1232141  -1.189   5.903   4.361  0.3265 -0.1394 -0.2409
   11BDD    C1332142  -1.099   5.982   4.273 -0.5623  1.0775  0.3301
   11BDD    C1432143  -0.970   6.064   4.318  0.2385  0.5909 -0.0838
   11BDD    C1532144  -0.856   6.015   4.414 -0.4175 -0.2652  0.2611
   11BDD    C1632145  -0.773   5.900   4.355  0.3784  0.1829 -0.4480
   11BDD    C1732146  -1.246   5.976   4.492  0.4230  0.7645  0.2573
   11BDD    C1832147  -1.300   6.122   4.471 -0.9221  0.2748  0.7667
   11BDD    C1932148  -1.457   5.348   4.485 -0.1525  0.4410 -0.4960
   11BDD    C2032149  -1.616   5.362   4.490 -0.6792 -0.6304 -0.0738
   11BDD    C2132150  -1.666   5.419   4.354  0.4562 -0.2258 -0.0908
   11BDD    C2232151  -1.651   5.339   4.228  0.2095 -0.5139  0.1022
   11BDD    C2332152  -1.698   5.404   4.095 -0.3000 -0.4141 -0.5081
   11BDD    C2432153  -1.638   5.330   3.979 -0.1378  0.2872  0.2821
   11BDD    C2532154  -1.698   5.236   4.526 -0.4244 -0.6013  0.1713
   11BDD    C2632155  -1.672   5.172   4.661 -0.0819  0.2994 -0.2661
   12TPM     C132156  -1.277   5.324   5.046  0.0730  0.3081  0.1230
   12TPM     C232157  -1.249   5.301   5.177  0.3157  0.1096  0.0390
   12TPM     C332158  -1.327   5.195   5.236  0.4628 -0.0165  0.0094
   12TPM     C432159  -1.415   5.137   5.149  0.3331  0.0861  0.0708
   12TPM     S132160  -1.405   5.213   4.985  0.0122  0.3516  0.1717
   13BDTP    C132161  -1.783   4.680   5.380  0.4479  0.0683  0.0200
   13BDTP    C232162  -1.866   4.740   5.282  0.3531  0.1538  0.1533
   13BDTP    C332163  -1.824   4.846   5.203  0.2662  0.2426  0.2257
   13BDTP    C432164  -1.693   4.895   5.221  0.2729  0.2478  0.1642
   13BDTP    C532165  -1.610   4.834   5.319  0.3676  0.1625  0.0310
   13BDTP    C632166  -1.652   4.728   5.398  0.4547  0.0733 -0.0415
   13BDTP    C732167  -1.628   5.003   5.151  0.1933  0.3318  0.2193
   13BDTP    C832168  -1.500   5.027   5.191  0.2234  0.3136  0.1347
   13BDTP    S132169  -1.446   4.914   5.323  0.3567  0.1879 -0.0263
   13BDTP    C932170  -1.848   4.571   5.450  0.5275 -0.0157 -0.0349
   13BDTP   C1032171  -1.976   4.548   5.410  0.4975  0.0024  0.0495
   13BDTP    S232172  -2.030   4.660   5.278  0.3640  0.1281  0.2104
   14FTM     S132173  -2.035   5.036   5.132  0.0865  0.2678 -0.0525
   14FTM     C132174  -2.057   5.059   4.954 -0.4099  0.3540  0.0160
   14FTM     C232175  -1.981   4.968   4.886 -0.7159  0.2873 -0.2398
   14FTM     C332176  -1.904   4.878   4.966 -0.5860  0.1681 -0.4985
   14FTM     C432177  -1.921   4.900   5.099 -0.1672  0.1425 -0.4387
   14FTM     F132178  -1.978   4.962   4.748 -1.1318  0.3304 -0.2552
   14FTM     C532179  -2.125   5.178   4.894 -0.1713 -0.1490 -0.3412
   14FTM     C632180  -2.275   5.210   4.922 -0.2954 -0.0826  0.1537
   14FTM     C732181  -2.368   5.123   4.836 -0.2434 -0.1107 -0.6216
   14FTM     C832182  -2.367   5.120   4.683  0.0033 -0.0709 -0.0941
   14FTM     C932183  -2.489   5.054   4.627 -0.3630  0.1719 -0.1286
   14FTM    C1032184  -2.505   5.081   4.478  0.2673 -0.1437  0.0914
   14FTM    C1132185  -2.310   5.222   5.068  0.2753  0.8029 -0.0672
   14FTM    C1232186  -2.444   5.284   5.095  0.2563  0.1260 -0.1163
   15FTM     S132187  -1.619   4.645   5.675  0.1129  0.0611 -0.0726
   15FTM     C132188  -1.454   4.585   5.716  0.0978 -0.1137 -0.2638
   15FTM     C232189  -1.372   4.598   5.609  0.0229 -0.0706 -0.3160
   15FTM     C332190  -1.431   4.654   5.490 -0.0262  0.0970 -0.2130
   15FTM     C432191  -1.562   4.684   5.508  0.0117  0.1848 -0.0776
   15FTM     F132192  -1.238   4.560   5.611 -0.0055 -0.1801 -0.4601
   15FTM     C532193  -1.415   4.545   5.855  0.1757 -0.4013  0.2849
   15FTM     C632194  -1.473   4.419   5.929  0.5066  0.1441  0.0765
   15FTM     C732195  -1.446   4.419   6.079 -0.3845 -0.3387  0.5793
   15FTM     C832196  -1.498   4.532   6.174  0.0013 -0.0608 -0.3858
   15FTM     C932197  -1.653   4.569   6.171 -0.2420  0.0025  0.1125
   15FTM    C1032198  -1.681   4.656   6.294  0.5443  0.0591  0.1569
   15FTM    C1132199  -1.444   4.291   5.846  0.5447 -0.0793  0.0471
   15FTM    C1232200  -1.294   4.250   5.826  0.3316  0.1111 -0.2444
   16TPM     C132201  -2.064   4.450   5.464  0.6885  0.0273  0.2899
   16TPM     C232202  -2.196   4.451   5.430  0.7713  0.3994 -0.0316
   16TPM     C332203  -2.277   4.362   5.508  0.3201  0.6515 -0.2040
   16TPM     C432204  -2.207   4.293   5.603 -0.1069  0.4715 -0.0142
   16TPM     S132205  -2.032   4.336   5.600  0.0288 -0.0343  0.4004
   17BDD     C132206  -2.241   3.944   5.777 -0.0719  0.0475  0.1138
   17BDD     C232207  -2.367   3.998   5.782 -0.0819  0.0231  0.1247
   17BDD     C332208  -2.377   4.129   5.720 -0.0931  0.0594  0.2025
   17BDD     C432209  -2.259   4.173   5.668 -0.0916  0.1109  0.2498
   17BDD     S132210  -2.127   4.054   5.693 -0.0759  0.1177  0.2002
   17BDD     C532211  -2.483   3.931   5.845 -0.0812 -0.0345  0.0639
   17BDD     C632212  -2.503   4.205   5.715 -0.1049  0.0415  0.2272
   17BDD     O132213  -2.512   4.318   5.661 -0.1146  0.0727  0.2944
   17BDD     O232214  -2.474   3.818   5.899 -0.0716 -0.0657 -0.0032
   17BDD     C732215  -2.619   4.137   5.777 -0.1043 -0.0161  0.1664
   17BDD     C832216  -2.609   4.007   5.839 -0.0931 -0.0523  0.0886
   17BDD     C932217  -2.728   3.962   5.892 -0.0945 -0.1040  0.0412
   17BDD     S232218  -2.860   4.081   5.866 -0.1101 -0.1106  0.0909
   17BDD    C1032219  -2.745   4.191   5.783 -0.1142 -0.0404  0.1774
   17BDD    C1132220  -2.794   4.332   5.763 -0.0358  0.0890  0.3537
   17BDD    C1232221  -2.895   4.351   5.644 -0.3657  0.3516 -0.3076
   17BDD    C1332222  -2.852   4.297   5.509  0.0251  0.0642  0.6855
   17BDD    C1432223  -2.739   4.375   5.436 -0.0338 -1.2276 -0.1882
   17BDD    C1532224  -2.710   4.343   5.289  0.1656  0.0305  0.6157
   17BDD    C1632225  -2.822   4.381   5.185 -0.3194 -0.2140 -0.2942
   17BDD    C1732226  -2.948   4.494   5.653 -0.2823  0.2666  0.2492
   17BDD    C1832227  -3.062   4.532   5.565  0.5388  0.2218  0.6559
   17BDD    C1932228  -2.774   3.848   5.976  1.0289 -0.1982 -0.0182
   17BDD    C2032229  -2.889   3.759   5.909 -0.2693 -0.5707 -0.7901
   17BDD    C2132230  -2.974   3.703   6.026 -0.3779  0.3970 -0.1225
   17BDD    C2232231  -3.114   3.654   5.991 -0.0852  0.3636  0.8114
   17BDD    C2332232  -3.190   3.575   6.103  0.3063 -0.2362 -0.6859
   17BDD    C2432233  -3.326   3.530   6.040 -0.2413 -0.7022 -0.1056
   17BDD    C2532234  -2.856   3.664   5.796 -0.3777 -0.2467  0.1559
   17BDD    C2632235  -2.743   3.560   5.820  0.8099  0.0759  0.4118
   18TPM     C132236  -2.172   3.824   5.828 -0.2552 -0.0362 -0.4299
   18TPM     C232237  -2.224   3.698   5.820 -0.1926 -0.0432 -0.7474
   18TPM     C332238  -2.128   3.594   5.849 -0.1832 -0.0611 -0.8426
   18TPM     C432239  -2.004   3.640   5.879 -0.2389 -0.0678 -0.5975
   18TPM     S132240  -1.997   3.821   5.873 -0.3078 -0.0519 -0.2248
   19BDTP    C132241  -1.515   3.291   6.075  0.0672  0.0209 -0.2482
   19BDTP    C232242  -1.455   3.419   6.059  0.0706  0.0312 -0.1545
   19BDTP    C332243  -1.526   3.530   6.016  0.0782  0.0599 -0.0938
   19BDTP    C432244  -1.663   3.514   5.987  0.0830  0.0793 -0.1266
   19BDTP    C532245  -1.723   3.386   6.003  0.0796  0.0688 -0.2204
   19BDTP    C632246  -1.651   3.275   6.047  0.0720  0.0401 -0.2810
   19BDTP    C732247  -1.757   3.614   5.941  0.0912  0.1099 -0.0766
   19BDTP    C832248  -1.883   3.568   5.922  0.0941  0.1228 -0.1277
   19BDTP    S132249  -1.900   3.391   5.960  0.0868  0.0980 -0.2462
   19BDTP    C932250  -1.421   3.191   6.121  0.0594 -0.0098 -0.2981
   19BDTP   C1032251  -1.295   3.237   6.140  0.0567 -0.0228 -0.2471
   19BDTP    S232252  -1.277   3.414   6.102  0.0639  0.0021 -0.1287
   20FTM     S132253  -1.392   3.737   6.166  0.1178 -0.0781  0.0174
   20FTM     C132254  -1.333   3.875   6.066 -0.0290  0.2759  0.4091
   20FTM     C232255  -1.366   3.855   5.935  0.0012  0.6094  0.3482
   20FTM     C332256  -1.438   3.734   5.906  0.1371  0.6099  0.0014
   20FTM     C432257  -1.461   3.659   6.018  0.2133  0.2656 -0.2100
   20FTM     F132258  -1.334   3.944   5.834 -0.0927  0.9340  0.6027
   20FTM     C532259  -1.257   3.986   6.140  0.3555 -0.4869  0.1475
   20FTM     C632260  -1.120   3.949   6.196 -0.4715 -0.8210 -0.4682
   20FTM     C732261  -1.018   3.901   6.086  0.5820  0.4067 -0.2343
   20FTM     C832262  -0.894   3.820   6.133 -0.2326 -0.2471 -0.4566
   20FTM     C932263  -0.927   3.683   6.202 -0.7336 -0.3181 -0.3304
   20FTM    C1032264  -0.798   3.611   6.252  0.2478 -0.1559  0.2343
   20FTM    C1132265  -1.053   4.065   6.280 -0.2065 -0.0372 -0.0619
   20FTM    C1232266  -1.118   4.105   6.413 -0.1660 -0.1007  0.6959
   21FTM     S132267  -1.876   3.122   6.144  0.1678  0.0731 -0.1047
   21FTM     C132268  -1.873   2.945   6.108  0.0208  0.1294 -0.4002
   21FTM     C232269  -1.757   2.912   6.046  0.1696  0.0686 -0.0925
   21FTM     C332270  -1.665   3.019   6.023  0.4015 -0.0233  0.3799
   21FTM     C432271  -1.712   3.138   6.069  0.4311 -0.0330  0.4364
   21FTM     F132272  -1.727   2.782   6.007  0.1047  0.0924 -0.2209
   21FTM     C532273  -1.991   2.859   6.142  0.3954 -0.6344  0.2747
   21FTM     C632274  -2.099   2.814   6.034 -0.0187 -0.5548 -0.3770
   21FTM     C732275  -2.205   2.713   6.083 -0.4149  0.2475  0.1272
   21FTM     C832276  -2.154   2.571   6.091 -0.2150  0.3915  0.7095
   21FTM     C932277  -2.254   2.464   6.116  0.8593  0.0417  0.5582
   21FTM    C1032278  -2.197   2.369   6.216 -0.0409  0.1086 -0.2703
   21FTM    C1132279  -2.134   2.924   5.929 -0.5769  0.6520 -0.0104
   21FTM    C1232280  -2.228   3.028   5.974  0.1015  0.5119 -0.3042
   22TPM     C132281  -1.170   3.170   6.168 -0.4070  0.9750 -0.3683
   22TPM     C232282  -1.156   3.035   6.152 -0.9973  0.8808 -0.1626
   22TPM     C332283  -1.021   2.989   6.169 -1.2553  0.2573  0.2670
   22TPM     C432284  -0.932   3.088   6.198 -0.8612 -0.1239  0.3888
   22TPM     S132285  -1.013   3.249   6.207 -0.1283  0.2782 -0.0327
   23BDD     C132286  -0.555   3.147   6.101  0.1296  0.0802 -0.1407
   23BDD     C232287  -0.561   3.013   6.129  0.1252  0.0808 -0.1383
   23BDD     C332288  -0.693   2.969   6.169  0.1674  0.1220  0.0451
   23BDD     C432289  -0.785   3.069   6.172  0.2037  0.1521  0.1802
   23BDD     S132290  -0.714   3.226   6.124  0.1874  0.1310  0.0869
   23BDD     C532291  -0.445   2.921   6.118  0.0813  0.0436 -0.3047
   23BDD     C632292  -0.722   2.828   6.204  0.1700  0.1300  0.0798
   23BDD     O132293  -0.836   2.790   6.240  0.2065  0.1655  0.2379
   23BDD     O232294  -0.332   2.959   6.083  0.0448  0.0080 -0.4629
   23BDD     C732295  -0.607   2.736   6.194  0.1264  0.0928 -0.0868
   23BDD     C832296  -0.475   2.780   6.153  0.0839  0.0516 -0.2702
   23BDD     C932297  -0.382   2.680   6.150  0.0477  0.0215 -0.4053
   23BDD     S232298  -0.454   2.523   6.199  0.0640  0.0426 -0.3120
   23BDD    C1032299  -0.613   2.602   6.222  0.1216  0.0935 -0.0846
   23BDD    C1132300  -0.730   2.506   6.245 -0.9122 -0.1534 -0.1145
   23BDD    C1232301  -0.809   2.477   6.116 -0.9446 -0.1943 -0.0549
   23BDD    C1332302  -0.935   2.393   6.144  0.6735 -0.1426 -0.0473
   23BDD    C1432303  -1.041   2.458   6.226  1.0502 -0.9619 -0.2125
   23BDD    C1532304  -1.104   2.588   6.169 -0.3084 -0.5903 -0.2486
   23BDD    C1632305  -1.216   2.648   6.259  0.2420 -0.0447  0.4229
   23BDD    C1732306  -0.724   2.417   6.003 -0.3594 -0.6529  0.0142
   23BDD    C1832307  -0.647   2.289   6.021 -0.5896  0.5016  0.0080
   23BDD    C1932308  -0.233   2.676   6.122 -0.0023 -0.6366  0.0385
   23BDD    C2032309  -0.192   2.607   5.993 -0.2988  0.3306  0.2661
   23BDD    C2132310  -0.209   2.669   5.848  0.5462  0.9581  0.1162
   23BDD    C2232311  -0.175   2.814   5.809 -0.5308  0.1483  0.0171
   23BDD    C2332312  -0.028   2.864   5.817 -0.6642  0.2900 -0.4751
   23BDD    C2432313  -0.018   3.007   5.784  0.2471 -0.6697  0.2748
   23BDD    C2532314  -0.218   2.456   5.985 -0.4267  0.3370 -0.5260
   23BDD    C2632315  -0.100   2.360   5.948 -0.2948  0.3315 -0.3332
   24TPM     C132316  -0.447   3.237   6.059  0.2345 -0.1217  0.1703
   24TPM     C232317  -0.421   3.353   6.127  0.3066 -0.2621  0.3822
   24TPM     C332318  -0.303   3.422   6.080  0.2494 -0.1588  0.3903
   24TPM     C432319  -0.240   3.359   5.977  0.1338  0.0603  0.1847
   24TPM     S132320  -0.324   3.207   5.930  0.0876  0.1539 -0.0371
   25BDTP    C132321   0.228   3.467   5.570 -0.0616  0.2086  0.0437
   25BDTP    C232322   0.291   3.485   5.697 -0.1274  0.1332  0.0876
   25BDTP    C332323   0.223   3.474   5.817 -0.1714 -0.0233  0.0486
   25BDTP    C432324   0.085   3.443   5.813 -0.1496 -0.1100 -0.0378
   25BDTP    C532325   0.022   3.425   5.686 -0.0839 -0.0347 -0.0817
   25BDTP    C632326   0.091   3.436   5.566 -0.0399  0.1218 -0.0424
   25BDTP    C732327  -0.006   3.427   5.924 -0.1860 -0.2734 -0.0917
   25BDTP    C832328  -0.133   3.397   5.887 -0.1516 -0.3237 -0.1727
   25BDTP    S132329  -0.155   3.387   5.707 -0.0677 -0.1713 -0.1924
   25BDTP    C932330   0.319   3.483   5.459 -0.0251  0.3719  0.0978
   25BDTP   C1032331   0.447   3.513   5.496 -0.0597  0.4222  0.1788
   25BDTP    S232332   0.468   3.523   5.676 -0.1436  0.2698  0.1984
   26FTM     S132333   0.426   3.368   6.004 -0.2344  0.1187  0.0226
   26FTM     C132334   0.480   3.486   6.129  0.0643  0.0117 -0.0044
   26FTM     C232335   0.404   3.598   6.123  0.1558  0.0846  0.1657
   26FTM     C332336   0.300   3.599   6.023  0.0030  0.2247  0.3238
   26FTM     C432337   0.298   3.484   5.951 -0.2126  0.2603  0.2729
   26FTM     F132338   0.422   3.707   6.207  0.3835  0.0288  0.1886
   26FTM     C532339   0.601   3.446   6.215  0.5737  0.1465  0.5213
   26FTM     C632340   0.600   3.476   6.363  0.2973 -0.1024  0.0714
   26FTM     C732341   0.633   3.622   6.415 -0.4964  0.0600 -0.3478
   26FTM     C832342   0.740   3.719   6.362  0.2008 -0.0179  0.0048
   26FTM     C932343   0.890   3.684   6.365  0.0885 -0.0398 -0.3044
   26FTM    C1032344   0.986   3.780   6.298  0.6254  0.1671 -0.0292
   26FTM    C1132345   0.485   3.410   6.453 -0.5463  0.0442  0.7083
   26FTM    C1232346   0.446   3.262   6.423  0.0628 -0.5584  0.4419
   27FTM     S132347   0.056   3.524   5.294 -0.1195  0.1393 -0.0482
   27FTM     C132348  -0.064   3.439   5.191 -0.2442  0.3998 -0.1177
   27FTM     C232349  -0.122   3.338   5.260 -0.1278  0.1950 -0.3164
   27FTM     C332350  -0.077   3.320   5.395  0.0606 -0.1679 -0.4240
   27FTM     C432351   0.018   3.411   5.430  0.0895 -0.2438 -0.3039
   27FTM     F132352  -0.219   3.255   5.206 -0.1850  0.3244 -0.4123
   27FTM     C532353  -0.084   3.485   5.045  0.4604  0.4646 -0.1470
   27FTM     C632354   0.005   3.581   4.970 -0.6074 -0.9569  0.1615
   27FTM     C732355  -0.001   3.729   5.002 -0.3053  0.1546 -0.2497
   27FTM     C832356  -0.138   3.800   4.999 -0.0061  0.3845 -0.3417
   27FTM     C932357  -0.231   3.777   4.880 -0.0082  0.4056  0.2300
   27FTM    C1032358  -0.168   3.817   4.745  0.2482 -0.2365  0.2599
   27FTM    C1132359   0.144   3.542   4.928  0.0043 -0.7603  0.4903
   27FTM    C1232360   0.153   3.407   4.854  0.5402  0.5535 -0.6337
   28TPM     C132361   0.550   3.536   5.404 -0.2647 -0.3106  0.0768
   28TPM     C232362   0.679   3.490   5.405 -0.3615 -0.5865  0.0825
   28TPM     C332363   0.750   3.514   5.282 -0.2219 -0.5005  0.1791
   28TPM     C432364   0.675   3.578   5.188 -0.0187 -0.1589  0.2471
   28TPM     S132365   0.509   3.613   5.247  0.0124  0.0824  0.1939
   29BDD     C132366   0.680   3.544   4.797  0.2179 -0.1919 -0.0759
   29BDD     C232367   0.803   3.595   4.832  0.1899 -0.1397 -0.0528
   29BDD     C332368   0.820   3.609   4.975  0.1572 -0.1336 -0.0495
   29BDD     C432369   0.711   3.570   5.048  0.1608 -0.1811 -0.0700
   29BDD     S132370   0.579   3.512   4.941  0.2052 -0.2369 -0.0949
   29BDD     C532371   0.908   3.631   4.734  0.1922 -0.0936 -0.0330
   29BDD     C632372   0.945   3.662   5.035  0.1237 -0.0808 -0.0259
   29BDD     O132373   0.960   3.674   5.159  0.0955 -0.0755 -0.0230
   29BDD     O232374   0.892   3.619   4.611  0.2203 -0.0989 -0.0360
   29BDD     C732375   1.050   3.698   4.938  0.1259 -0.0347 -0.0062
   29BDD     C832376   1.032   3.684   4.794  0.1586 -0.0408 -0.0095
   29BDD     C932377   1.141   3.723   4.722  0.1551  0.0067  0.0110
   29BDD     S232378   1.273   3.782   4.828  0.1106  0.0624  0.0360
   29BDD    C1032379   1.172   3.749   4.972  0.0980  0.0174  0.0170
   29BDD    C1132380   1.231   3.789   5.104 -0.2472  0.4124  0.3824
   29BDD    C1232381   1.359   3.728   5.156 -0.3326  0.1186  0.8182
   29BDD    C1332382   1.428   3.810   5.266 -0.5351  0.3106 -0.2566
   29BDD    C1432383   1.579   3.789   5.302  0.4363 -1.5575  0.2483
   29BDD    C1532384   1.662   3.851   5.192 -0.1442 -0.2720  0.6802
   29BDD    C1632385   1.696   3.999   5.212 -0.1411 -0.2468 -0.1564
   29BDD    C1732386   1.398   3.576   5.163  0.3924 -0.8349  0.6098
   29BDD    C1832387   1.314   3.490   5.254 -0.5849 -0.4558  0.4578
   29BDD    C1932388   1.168   3.741   4.574 -0.5968 -0.6358 -0.8632
   29BDD    C2032389   1.162   3.892   4.540 -0.7085 -0.5852  0.0640
   29BDD    C2132390   1.221   3.907   4.396  0.2642 -0.3822  0.0408
   29BDD    C2232391   1.272   4.048   4.359  0.5669  0.0373 -0.4164
   29BDD    C2332392   1.304   4.075   4.213 -0.6590 -0.2798  0.4769
   29BDD    C2432393   1.328   4.227   4.189 -1.1259 -0.0908 -0.9217
   29BDD    C2532394   1.030   3.981   4.564 -0.3501  0.7365  0.0241
   29BDD    C2632395   0.906   3.936   4.484  0.2987  0.7321  0.8486
   30TPM     C132396   0.608   3.509   4.669  0.1554 -0.0095 -0.1293
   30TPM     C232397   0.515   3.409   4.668  0.0171  0.1170 -0.0033
   30TPM     C332398   0.473   3.370   4.535 -0.3360  0.2843  0.0565
   30TPM     C432399   0.535   3.440   4.436 -0.4669  0.2853 -0.0238
   30TPM     S132400   0.651   3.562   4.502 -0.1519  0.0733 -0.1824
   31BDTP    C132401   0.498   3.390   3.807 -0.2571 -0.0157  0.0079
   31BDTP    C232402   0.392   3.306   3.850 -0.3100  0.0533  0.0134
   31BDTP    C332403   0.361   3.287   3.984 -0.3583  0.1255  0.0128
   31BDTP    C432404   0.439   3.354   4.080 -0.3543  0.1301  0.0063
   31BDTP    C532405   0.545   3.439   4.037 -0.3015  0.0611  0.0008
   31BDTP    C632406   0.576   3.458   3.903 -0.2531 -0.0112  0.0015
   31BDTP    C732407   0.426   3.350   4.224 -0.3986  0.1983  0.0045
   31BDTP    C832408   0.516   3.426   4.291 -0.3816  0.1840 -0.0020
   31BDTP    S132409   0.630   3.514   4.179 -0.3073  0.0822 -0.0067
   31BDTP    C932410   0.511   3.394   3.662 -0.2129 -0.0839  0.0097
   31BDTP   C1032411   0.421   3.318   3.596 -0.2298 -0.0696  0.0163
   31BDTP    S232412   0.307   3.230   3.707 -0.3041  0.0321  0.0210
   32FTM     S132413   0.241   3.077   4.151 -0.1442 -0.0356  0.0284
   32FTM     C132414   0.063   3.058   4.128 -0.1219  0.0537 -0.2277
   32FTM     C232415   0.020   3.141   4.030  0.0883 -0.0442 -0.4042
   32FTM     C332416   0.120   3.223   3.968  0.2411 -0.1910 -0.3527
   32FTM     C432417   0.244   3.201   4.020  0.1448 -0.2061 -0.1290
   32FTM     F132418  -0.113   3.148   3.990  0.1547 -0.0066 -0.6233
   32FTM     C532419  -0.011   2.952   4.209 -0.2605  0.0879 -0.0050
   32FTM     C632420   0.017   2.800   4.206 -0.1120  0.1624  0.9950
   32FTM     C732421   0.160   2.754   4.253  0.1875 -0.0820 -0.2214
   32FTM     C832422   0.188   2.778   4.407 -0.7809  0.0986  0.9798
   32FTM     C932423   0.329   2.750   4.457  0.0012  0.2841 -0.0463
   32FTM    C1032424   0.358   2.806   4.593 -0.1869  0.5402 -0.1039
   32FTM    C1132425  -0.012   2.743   4.064  0.4267 -0.2211 -0.0004
   32FTM    C1232426  -0.162   2.754   4.029  0.2227  0.7187  0.1120
   33FTM     S132427   0.834   3.508   3.786  0.0987  0.0106  0.0748
   33FTM     C132428   0.872   3.680   3.746  0.1122 -0.0920 -0.3730
   33FTM     C232429   0.772   3.760   3.789  0.1022  0.0259 -0.6146
   33FTM     C332430   0.662   3.695   3.854  0.0839  0.1988 -0.4698
   33FTM     C432431   0.678   3.560   3.860  0.0797  0.2139 -0.1054
   33FTM     F132432   0.774   3.898   3.773  0.1091 -0.0160 -0.9814
   33FTM     C532433   1.000   3.718   3.680  0.2557  0.0790  0.3551
   33FTM     C632434   1.143   3.729   3.741 -0.1028  0.6607  0.5466
   33FTM     C732435   1.190   3.589   3.777  0.0273  0.4577 -0.1429
   33FTM     C832436   1.217   3.468   3.680  0.0651  0.1958 -0.3153
   33FTM     C932437   1.334   3.487   3.588 -0.8083 -0.3099 -0.2370
   33FTM    C1032438   1.385   3.356   3.528  0.3351 -0.4507 -0.0319
   33FTM    C1132439   1.159   3.824   3.855  0.6009  0.0069  0.7144
   33FTM    C1232440   1.098   3.963   3.849 -0.3174 -0.2163  0.6850
   34TPM     C132441   0.394   3.305   3.453 -0.1848 -0.4234  0.0631
   34TPM     C232442   0.475   3.348   3.352  0.0916 -0.8411  0.1016
   34TPM     C332443   0.429   3.311   3.221  0.1277 -0.8643  0.0952
   34TPM     C432444   0.312   3.240   3.222 -0.1210 -0.4645  0.0518
   34TPM     S132445   0.252   3.214   3.390 -0.4226 -0.0240  0.0154
   35BDD     C132446   0.189   3.180   2.855  0.0899 -0.0252  0.1116
   35BDD     C232447   0.160   3.065   2.923  0.0573 -0.0021  0.1368
   35BDD     C332448   0.195   3.070   3.063 -0.0264  0.0521  0.1554
   35BDD     C432449   0.250   3.190   3.101 -0.0563  0.0695  0.1440
   35BDD     S132450   0.262   3.303   2.963  0.0183  0.0193  0.1092
   35BDD     C532451   0.099   2.945   2.860  0.1017 -0.0290  0.1448
   35BDD     C632452   0.172   2.957   3.156 -0.0736  0.0848  0.1838
   35BDD     O132453   0.202   2.962   3.277 -0.1458  0.1315  0.1998
   35BDD     O232454   0.069   2.941   2.739  0.1739 -0.0757  0.1288
   35BDD     C732455   0.111   2.838   3.093 -0.0292  0.0579  0.1917
   35BDD     C832456   0.076   2.832   2.952  0.0545  0.0036  0.1732
   35BDD     C932457   0.021   2.713   2.915  0.0844 -0.0138  0.1844
   35BDD     S232458   0.009   2.599   3.053  0.0098  0.0364  0.2192
   35BDD    C1032459   0.082   2.723   3.161 -0.0618  0.0810  0.2169
   35BDD    C1132460   0.103   2.673   3.305  0.3397 -0.1470  0.6778
   35BDD    C1232461   0.247   2.627   3.348 -0.4579  0.3707  0.0901
   35BDD    C1332462   0.235   2.567   3.489  0.6150 -0.0071 -0.0749
   35BDD    C1432463   0.186   2.658   3.603  0.0794 -0.2787 -0.4387
   35BDD    C1532464   0.262   2.785   3.621  0.2595  0.5234  0.6520
   35BDD    C1632465   0.193   2.892   3.698  0.4575 -0.1777 -0.0036
   35BDD    C1732466   0.315   2.540   3.243 -0.4769 -0.0777 -0.1195
   35BDD    C1832467   0.282   2.391   3.221 -0.2017 -0.1332 -0.2127
   35BDD    C1932468  -0.002   2.649   2.779  0.5671 -0.5277 -0.1398
   35BDD    C2032469   0.065   2.513   2.750 -0.2462 -0.0349 -0.2201
   35BDD    C2132470   0.218   2.502   2.740  0.3147  0.1791 -0.3714
   35BDD    C2232471   0.285   2.366   2.732  0.0605 -0.0535 -0.6606
   35BDD    C2332472   0.254   2.273   2.854  0.2362  0.6011  0.4821
   35BDD    C2432473   0.298   2.126   2.815  0.6450 -0.3047 -0.1149
   35BDD    C2532474   0.003   2.437   2.631 -0.8972  0.2396 -0.7901
   35BDD    C2632475  -0.147   2.408   2.623 -0.3315 -0.3966  0.5114
   36TPM     C132476   0.184   3.233   2.715  0.2765 -0.1512 -0.2020
   36TPM     C232477   0.294   3.292   2.661  0.2212 -0.0889 -0.2469
   36TPM     C332478   0.278   3.329   2.523  0.1184 -0.0294 -0.2196
   36TPM     C432479   0.156   3.298   2.471  0.0953 -0.0466 -0.1539
   36TPM     S132480   0.051   3.219   2.595  0.2023 -0.1398 -0.1213
   37BDTP    C132481  -0.091   3.454   1.914 -0.0637 -0.0073 -0.2108
   37BDTP    C232482  -0.202   3.399   1.986 -0.0181 -0.1224 -0.2287
   37BDTP    C332483  -0.190   3.347   2.114  0.0107 -0.0905 -0.2184
   37BDTP    C432484  -0.063   3.350   2.175 -0.0064  0.0622 -0.1890
   37BDTP    C532485   0.047   3.404   2.104 -0.0518  0.1773 -0.1712
   37BDTP    C632486   0.035   3.456   1.975 -0.0804  0.1452 -0.1814
   37BDTP    C732487  -0.027   3.302   2.307  0.0169  0.1228 -0.1736
   37BDTP    C832488   0.104   3.318   2.338 -0.0085  0.2759 -0.1453
   37BDTP    S132489   0.199   3.396   2.204 -0.0655  0.3648 -0.1342
   37BDTP    C932490  -0.128   3.501   1.782 -0.0865 -0.0680 -0.2263
   37BDTP   C1032491  -0.259   3.485   1.752 -0.0615 -0.2211 -0.2546
   37BDTP    S232492  -0.354   3.407   1.885 -0.0044 -0.3100 -0.2656
   38FTM     S132493  -0.385   3.139   2.118  0.1332  0.1531 -0.2448
   38FTM     C132494  -0.499   3.137   2.257  0.3309 -0.5237 -0.0863
   38FTM     C232495  -0.474   3.242   2.340  0.0868 -0.6032  0.0935
   38FTM     C332496  -0.366   3.329   2.300 -0.2608 -0.1535  0.1183
   38FTM     C432497  -0.308   3.289   2.184 -0.2834  0.2845 -0.0479
   38FTM     F132498  -0.546   3.266   2.456  0.1638 -1.0878  0.2462
   38FTM     C532499  -0.590   3.022   2.282  0.4228  0.0156  0.5990
   38FTM     C632500  -0.550   2.879   2.236 -0.5265 -0.2711 -1.1074
   38FTM     C732501  -0.417   2.819   2.289  0.4523 -0.3152  0.0183
   38FTM     C832502  -0.410   2.804   2.440  0.0471 -0.3929  0.2000
   38FTM     C932503  -0.274   2.771   2.503  0.4507 -0.0000  0.7312
   38FTM    C1032504  -0.168   2.868   2.469 -0.5324 -0.4020  0.3384
   38FTM    C1132505  -0.672   2.793   2.191 -0.0222 -0.0763  1.2674
   38FTM    C1232506  -0.649   2.670   2.105 -0.1018  0.6189  0.2808
   39FTM     S132507   0.225   3.680   1.963  0.4070  0.0184 -0.0561
   39FTM     C132508   0.348   3.667   1.833  0.0575 -0.0160 -0.3877
   39FTM     C232509   0.330   3.552   1.762 -0.1587 -0.0132 -0.3369
   39FTM     C332510   0.221   3.469   1.805 -0.0680  0.0150 -0.0442
   39FTM     C432511   0.154   3.522   1.911  0.2273  0.0345  0.1351
   39FTM     F132512   0.411   3.515   1.656 -0.4516 -0.0362 -0.5526
   39FTM     C532513   0.467   3.760   1.813  0.0802 -0.2662  0.2854
   39FTM     C632514   0.466   3.895   1.887  0.2984  0.2629  0.7026
   39FTM     C732515   0.525   3.894   2.030  0.2024 -0.5970 -0.3086
   39FTM     C832516   0.665   3.845   2.049  0.2588 -0.1609  1.1747
   39FTM     C932517   0.725   3.831   2.188  0.0181  0.0971 -0.5254
   39FTM    C1032518   0.875   3.840   2.201 -0.1950  0.1083 -0.4368
   39FTM    C1132519   0.352   3.996   1.873 -0.3419  0.6419 -0.2660
   39FTM    C1232520   0.321   4.049   1.726 -0.3280  0.2789 -0.5661
   40TPM     C132521  -0.321   3.506   1.619  0.1050  0.2471 -0.2671
   40TPM     C232522  -0.272   3.546   1.498 -0.1884  0.5720 -0.2821
   40TPM     C332523  -0.368   3.539   1.391 -0.3469  0.5180 -0.1367
   40TPM     C432524  -0.491   3.494   1.431 -0.1740  0.1519 -0.0109
   40TPM     S132525  -0.494   3.456   1.607  0.2045 -0.1554 -0.0667
   41BDD     C132526  -0.851   3.566   1.290 -0.0034  0.3465  0.0703
   41BDD     C232527  -0.775   3.542   1.178 -0.0484  0.2425  0.0617
   41BDD     C332528  -0.637   3.511   1.208 -0.0894  0.0440  0.0462
   41BDD     C432529  -0.609   3.511   1.342 -0.0749 -0.0006  0.0434
   41BDD     S132530  -0.754   3.550   1.440 -0.0093  0.2029  0.0597
   41BDD     C532531  -0.827   3.547   1.040 -0.0553  0.3220  0.0672
   41BDD     C632532  -0.537   3.481   1.103 -0.1414 -0.0944  0.0349
   41BDD     O132533  -0.417   3.454   1.129 -0.1769 -0.2655  0.0216
   41BDD     O232534  -0.947   3.574   1.014 -0.0198  0.4932  0.0806
   41BDD     C732535  -0.589   3.487   0.965 -0.1483 -0.0149  0.0405
   41BDD     C832536  -0.728   3.518   0.935 -0.1075  0.1836  0.0559
   41BDD     C932537  -0.756   3.518   0.801 -0.1216  0.2282  0.0588
   41BDD     S232538  -0.611   3.478   0.704 -0.1876  0.0248  0.0424
   41BDD    C1032539  -0.514   3.463   0.854 -0.1934 -0.1189  0.0318
   41BDD    C1132540  -0.381   3.391   0.837  0.2868 -0.3101  0.5553
   41BDD    C1232541  -0.259   3.462   0.785 -0.4824 -0.0301  0.5060
   41BDD    C1332542  -0.220   3.582   0.868 -0.1769 -0.0876 -0.0171
   41BDD    C1432543  -0.116   3.682   0.812 -0.2390  0.9454  0.3755
   41BDD    C1532544  -0.081   3.806   0.886  0.4226 -0.0093 -0.8853
   41BDD    C1632545   0.038   3.869   0.827  0.1126 -0.3693  0.0142
   41BDD    C1732546  -0.149   3.361   0.738 -0.0391  0.5874  0.2708
   41BDD    C1832547  -0.068   3.284   0.844 -0.1291 -0.2914 -0.2767
   41BDD    C1932548  -0.873   3.536   0.714 -0.5892  0.3947  0.4585
   41BDD    C2032549  -0.898   3.410   0.630  0.1884 -0.7926 -0.4454
   41BDD    C2132550  -0.970   3.446   0.491  0.2103  0.2151 -0.9206
   41BDD    C2232551  -0.908   3.556   0.404 -0.3899 -0.7597 -0.2055
   41BDD    C2332552  -0.777   3.528   0.330  0.2815  0.3854 -0.1147
   41BDD    C2432553  -0.733   3.646   0.248 -0.0663  0.2020 -0.0238
   41BDD    C2532554  -0.961   3.293   0.714  0.3729 -0.1315  0.0271
   41BDD    C2632555  -0.992   3.159   0.646 -0.1779  0.6728 -0.3030
   42TPM     C132556  -0.991   3.598   1.316  0.1528  0.1260 -0.1403
   42TPM     C232557  -1.089   3.511   1.279  0.1390  0.0317  0.1124
   42TPM     C332558  -1.214   3.533   1.346  0.2658 -0.0362  0.3743
   42TPM     C432559  -1.212   3.637   1.434  0.3764  0.0062  0.3214
   42TPM     S132560  -1.049   3.716   1.439  0.3279  0.1363 -0.0665
   43BDTP    C132561  -1.619   3.852   1.862 -0.1101  0.0193 -0.0459
   43BDTP    C232562  -1.703   3.770   1.781 -0.1371  0.0009  0.0001
   43BDTP    C332563  -1.655   3.702   1.669 -0.1633 -0.0648  0.0291
   43BDTP    C432564  -1.519   3.715   1.637 -0.1624 -0.1148  0.0120
   43BDTP    C532565  -1.435   3.797   1.718 -0.1352 -0.0965 -0.0341
   43BDTP    C632566  -1.483   3.865   1.830 -0.1095 -0.0308 -0.0630
   43BDTP    C732567  -1.447   3.654   1.526 -0.1864 -0.1862  0.0354
   43BDTP    C832568  -1.316   3.686   1.521 -0.1788 -0.2219  0.0097
   43BDTP    S132569  -1.264   3.797   1.656 -0.1402 -0.1701 -0.0481
   43BDTP    C932570  -1.691   3.913   1.973 -0.0861  0.0907 -0.0694
   43BDTP   C1032571  -1.822   3.881   1.978 -0.0935  0.1263 -0.0436
   43BDTP    S232572  -1.874   3.770   1.843 -0.1324  0.0746  0.0141
   44FTM     S132573  -1.718   3.460   1.522  0.1121  0.1325  0.2297
   44FTM     C132574  -1.883   3.454   1.449 -0.0805  0.1326  0.6557
   44FTM     C232575  -1.949   3.569   1.474 -0.1049  0.0378  1.0330
   44FTM     C332576  -1.878   3.668   1.551  0.0219 -0.0389  1.0140
   44FTM     C432577  -1.753   3.625   1.585  0.1474 -0.0017  0.6092
   44FTM     F132578  -2.078   3.593   1.430 -0.2432  0.0149  1.4177
   44FTM     C532579  -1.928   3.324   1.390 -0.2452  0.3032  0.0559
   44FTM     C632580  -1.845   3.245   1.279 -0.1308 -0.0988 -0.6825
   44FTM     C732581  -1.904   3.106   1.240 -0.5305 -0.0344  0.1580
   44FTM     C832582  -1.935   2.999   1.345  0.3329  0.2506 -0.6167
   44FTM     C932583  -1.824   2.964   1.442 -0.0169 -0.2709 -0.3729
   44FTM    C1032584  -1.701   2.896   1.376 -0.2849 -0.1635  0.0546
   44FTM    C1132585  -1.806   3.321   1.146  0.0327  0.0285 -0.1257
   44FTM    C1232586  -1.924   3.370   1.061  0.6495 -0.1432 -0.9360
   45FTM     S132587  -1.258   3.859   2.008  0.0284 -0.2889 -0.0764
   45FTM     C132588  -1.195   4.018   2.066  0.1071 -0.3284 -0.0527
   45FTM     C232589  -1.271   4.119   2.015  0.2320 -0.2766 -0.1372
   45FTM     C332590  -1.380   4.080   1.931  0.2725 -0.2046 -0.2234
   45FTM     C432591  -1.387   3.944   1.916  0.1760 -0.2012 -0.2043
   45FTM     F132592  -1.246   4.252   2.042  0.3164 -0.2911 -0.1413
   45FTM     C532593  -1.078   4.007   2.153 -0.4332 -0.5309  0.1826
   45FTM     C632594  -1.096   4.005   2.306 -0.2266 -0.7331  0.1319
   45FTM     C732595  -1.156   3.880   2.381 -0.4129 -0.7084  0.4763
   45FTM     C832596  -1.070   3.759   2.373  0.1076  0.2339 -0.1899
   45FTM     C932597  -1.147   3.635   2.400 -0.7795 -0.0890 -0.0219
   45FTM    C1032598  -1.111   3.531   2.300  0.7558  0.4979 -1.0206
   45FTM    C1132599  -1.131   4.148   2.364  0.7055 -0.4778 -0.2205
   45FTM    C1232600  -1.109   4.172   2.517  0.2052  0.3080  0.9816
   46TPM     C132601  -1.913   3.926   2.084  0.1648 -0.4389 -0.4384
   46TPM     C232602  -1.874   4.007   2.187  0.5592 -0.3829 -0.6267
   46TPM     C332603  -1.979   4.033   2.283  0.8180 -0.0319 -0.4345
   46TPM     C432604  -2.097   3.971   2.253  0.6207  0.1794 -0.0994
   46TPM     S132605  -2.085   3.876   2.100  0.0887 -0.0501 -0.0002
   47BDD     C132606  -2.390   3.826   2.467 -0.1032  0.0900 -0.1407
   47BDD     C232607  -2.372   3.953   2.514 -0.1022  0.0524 -0.0385
   47BDD     C332608  -2.266   4.025   2.447  0.0513  0.0269  0.1763
   47BDD     C432609  -2.203   3.952   2.349  0.1652  0.0458  0.2347
   47BDD     S132610  -2.274   3.787   2.335  0.0880  0.0963  0.0250
   47BDD     C532611  -2.453   4.013   2.622 -0.2421  0.0383 -0.1345
   47BDD     C632612  -2.229   4.164   2.481  0.0795 -0.0149  0.3157
   47BDD     O132613  -2.137   4.226   2.423  0.2120 -0.0367  0.5009
   47BDD     O232614  -2.545   3.951   2.680 -0.3744  0.0601 -0.3197
   47BDD     C732615  -2.310   4.224   2.589 -0.0606 -0.0291  0.2196
   47BDD     C832616  -2.417   4.152   2.657 -0.2139 -0.0037  0.0049
   47BDD     C932617  -2.479   4.225   2.754 -0.3277 -0.0224 -0.0535
   47BDD     S232618  -2.409   4.390   2.768 -0.2505 -0.0731  0.1562
   47BDD    C1032619  -2.293   4.351   2.636 -0.0595 -0.0666  0.3219
   47BDD    C1132620  -2.192   4.458   2.599  0.0920  0.3365 -0.0954
   47BDD    C1232621  -2.104   4.550   2.692 -0.2554  0.0011 -0.5461
   47BDD    C1332622  -2.014   4.481   2.796 -0.0479  0.7490  0.3584
   47BDD    C1432623  -1.918   4.361   2.751 -0.6952 -0.4013 -0.2112
   47BDD    C1532624  -1.819   4.331   2.864 -0.4913  0.4359  0.3674
   47BDD    C1632625  -1.702   4.241   2.816 -0.4175 -0.6676 -0.2056
   47BDD    C1732626  -2.169   4.672   2.758 -0.5521  0.0377  0.4557
   47BDD    C1832627  -2.223   4.786   2.667 -0.2505  0.3314  0.1106
   47BDD    C1932628  -2.578   4.193   2.864 -0.0226 -0.1303  0.1494
   47BDD    C2032629  -2.521   4.098   2.974 -0.1707  0.3954  0.0149
   47BDD    C2132630  -2.374   4.113   3.031  0.0177  0.6054 -0.4371
   47BDD    C2232631  -2.338   4.249   3.096 -0.4168 -0.0772 -0.0567
   47BDD    C2332632  -2.193   4.281   3.108  0.5066  0.0387 -0.3667
   47BDD    C2432633  -2.174   4.404   3.199  0.1906 -0.6865  0.4140
   47BDD    C2532634  -2.636   4.082   3.077  0.6341  0.7843 -0.2274
   47BDD    C2632635  -2.624   3.954   3.151  0.4375  1.1093  0.0679
   48TPM     C132636  -2.495   3.725   2.491  0.3467 -0.1502 -0.1087
   48TPM     C232637  -2.524   3.673   2.614  0.3221 -0.2798 -0.1693
   48TPM     C332638  -2.611   3.558   2.609  0.0576 -0.0767 -0.2863
   48TPM     C432639  -2.648   3.523   2.483 -0.1197  0.2080 -0.3149
   48TPM     S132640  -2.576   3.633   2.359  0.0351  0.2417 -0.1954
   49BDTP    C132641  -3.049   3.098   2.255  0.1584 -0.2029  0.0947
   49BDTP    C232642  -3.005   3.037   2.376  0.1190 -0.1419  0.1400
   49BDTP    C332643  -2.912   3.097   2.461  0.0569 -0.0785  0.1633
   49BDTP    C432644  -2.861   3.223   2.425  0.0324 -0.0749  0.1408
   49BDTP    C532645  -2.905   3.284   2.304  0.0718 -0.1359  0.0955
   49BDTP    C632646  -2.997   3.224   2.219  0.1340 -0.1993  0.0723
   49BDTP    C732647  -2.764   3.304   2.497 -0.0305 -0.0152  0.1579
   49BDTP    C832648  -2.734   3.421   2.436 -0.0398 -0.0281  0.1280
   49BDTP    S132649  -2.824   3.446   2.280  0.0294 -0.1178  0.0740
   49BDTP    C932650  -3.145   3.017   2.184  0.2213 -0.2627  0.0775
   49BDTP   C1032651  -3.175   2.900   2.244  0.2307 -0.2497  0.1075
   49BDTP    S232652  -3.085   2.875   2.400  0.1613 -0.1600  0.1615
   50FTM     S132653  -2.996   2.965   2.707  0.0089 -0.0810  0.0861
   50FTM     C132654  -2.864   2.896   2.807 -0.0139 -0.4916 -0.1615
   50FTM     C232655  -2.744   2.917   2.746 -0.0449 -0.6906 -0.2916
   50FTM     C332656  -2.748   2.986   2.621 -0.0526 -0.5395 -0.2086
   50FTM     C432657  -2.875   3.019   2.584 -0.0266 -0.2142 -0.0084
   50FTM     F132658  -2.623   2.874   2.800 -0.0683 -1.0214 -0.4935
   50FTM     C532659  -2.898   2.813   2.932 -0.1468  0.0761  0.0357
   50FTM     C632660  -2.943   2.665   2.913 -0.7328  0.5172 -0.0332
   50FTM     C732661  -3.071   2.631   2.842  0.7040  0.4609  0.3403
   50FTM     C832662  -3.202   2.691   2.891 -0.4210 -0.1696  0.2662
   50FTM     C932663  -3.318   2.633   2.805 -0.7351 -0.6445 -0.3460
   50FTM    C1032664  -3.451   2.698   2.834 -0.2042 -0.2852 -0.5562
   50FTM    C1132665  -2.841   2.580   2.845 -0.1271  0.2857  0.2606
   50FTM    C1232666  -2.707   2.557   2.925 -0.0607 -0.1438  0.1276
   51FTM     S132667  -3.199   3.411   2.172  0.5142 -0.1421  0.3688
   51FTM     C132668  -3.217   3.480   2.007  0.0833 -0.0888  0.4357
   51FTM     C232669  -3.126   3.424   1.923 -0.2903 -0.2362  0.1211
   51FTM     C332670  -3.038   3.326   1.980 -0.2648 -0.3957 -0.1839
   51FTM     C432671  -3.063   3.307   2.113  0.1418 -0.3696 -0.1001
   51FTM     F132672  -3.116   3.458   1.789 -0.6775 -0.2354  0.0907
   51FTM     C532673  -3.320   3.578   1.962 -0.0316 -0.7199 -0.2845
   51FTM     C632674  -3.334   3.717   2.026  0.6641 -0.1373 -0.2458
   51FTM     C732675  -3.215   3.812   2.004 -0.7465  0.1430 -0.6325
   51FTM     C832676  -3.168   3.843   1.861 -0.7860 -0.3377 -0.7331
   51FTM     C932677  -3.257   3.935   1.787 -0.1765 -0.0187 -0.0647
   51FTM    C1032678  -3.216   3.962   1.643 -0.1382  0.1386  0.5037
   51FTM    C1132679  -3.363   3.722   2.179 -0.2649  0.4059 -0.0263
   51FTM    C1232680  -3.472   3.634   2.235  0.1792  0.5384  1.2022
   52TPM     C132681  -3.254   2.792   2.187 -0.2259 -0.1229 -0.1421
   52TPM     C232682  -3.286   2.670   2.239 -0.0910 -0.2161 -0.2759
   52TPM     C332683  -3.354   2.583   2.145  0.1547 -0.2513 -0.4224
   52TPM     C432684  -3.373   2.640   2.022  0.2072 -0.1849 -0.4002
   52TPM     S132685  -3.306   2.807   2.015 -0.0518 -0.0719 -0.1910
   53BDD     C132686  -3.392   2.474   1.667  0.0151 -0.2040  0.1926
   53BDD     C232687  -3.506   2.432   1.731 -0.0495 -0.1400  0.1186
   53BDD     C332688  -3.518   2.482   1.866 -0.1427 -0.0781  0.0873
   53BDD     C432689  -3.414   2.561   1.905 -0.1477 -0.0960  0.1377
   53BDD     S132690  -3.293   2.579   1.774 -0.0362 -0.1913  0.2280
   53BDD     C532691  -3.607   2.344   1.668 -0.0280 -0.1333  0.0741
   53BDD     C632692  -3.634   2.449   1.953 -0.2234 -0.0038  0.0083
   53BDD     O132693  -3.645   2.493   2.070 -0.3036  0.0494 -0.0187
   53BDD     O232694  -3.596   2.301   1.551  0.0523 -0.1865  0.1011
   53BDD     C732695  -3.735   2.362   1.891 -0.2018  0.0029 -0.0362
   53BDD     C832696  -3.722   2.311   1.755 -0.1087 -0.0589 -0.0048
   53BDD     C932697  -3.827   2.232   1.716 -0.1038 -0.0411 -0.0553
   53BDD     S232698  -3.948   2.214   1.847 -0.2153  0.0541 -0.1455
   53BDD    C1032699  -3.849   2.320   1.954 -0.2667  0.0669 -0.1101
   53BDD    C1132700  -3.913   2.347   2.088 -0.0103 -0.1284  0.4193
   53BDD    C1232701  -3.900   2.243   2.201  0.0006 -0.4477 -0.6388
   53BDD    C1332702  -3.989   2.119   2.169 -0.1399 -0.3106 -0.2059
   53BDD    C1432703  -4.008   2.011   2.277 -0.0698 -1.0069  0.1793
   53BDD    C1532704  -4.144   2.029   2.341  0.1998 -0.2229 -0.5519
   53BDD    C1632705  -4.143   1.928   2.448  0.1272  0.1602 -0.1012
   53BDD    C1732706  -3.752   2.211   2.253  0.5440  0.9128  0.1795
   53BDD    C1832707  -3.684   2.318   2.337 -0.2325  0.0079  0.1134
   53BDD    C1932708  -3.858   2.169   1.585  0.1036 -0.1058  0.2939
   53BDD    C2032709  -3.881   2.020   1.582  0.8626  0.2633  0.2809
   53BDD    C2132710  -3.777   1.932   1.653 -0.4653 -0.0750 -0.5301
   53BDD    C2232711  -3.804   1.786   1.681 -0.5217  0.0501 -0.1926
   53BDD    C2332712  -3.768   1.676   1.583  0.2097  0.0795  1.1371
   53BDD    C2432713  -3.623   1.660   1.548  0.3301 -0.0707  0.0094
   53BDD    C2532714  -3.914   1.972   1.441 -0.8459 -0.1496  0.1574
   53BDD    C2632715  -4.039   2.030   1.372  0.3241 -0.2279 -0.5003
   54TPM     C132716  -3.334   2.453   1.538 -0.3104 -0.3357 -0.2241
   54TPM     C232717  -3.317   2.332   1.477 -0.0361 -0.1417 -0.5403
   54TPM     C332718  -3.229   2.337   1.363  0.2261  0.2893 -0.3275
   54TPM     C432719  -3.179   2.461   1.337  0.1515  0.4239  0.1510
   54TPM     S132720  -3.239   2.583   1.456 -0.2585  0.0135  0.3717
   55BDTP    C132721  -2.789   2.646   0.880  0.1756 -0.0959  0.0671
   55BDTP    C232722  -2.748   2.726   0.991  0.2129 -0.1525  0.0940
   55BDTP    C332723  -2.808   2.717   1.116  0.1466 -0.1009  0.0663
   55BDTP    C432724  -2.913   2.624   1.132  0.0384  0.0119  0.0092
   55BDTP    C532725  -2.954   2.545   1.021  0.0011  0.0685 -0.0178
   55BDTP    C632726  -2.894   2.554   0.896  0.0674  0.0168  0.0100
   55BDTP    C732727  -2.990   2.597   1.252 -0.0453  0.0828 -0.0282
   55BDTP    C832728  -3.085   2.502   1.236 -0.1422  0.1885 -0.0813
   55BDTP    S132729  -3.091   2.434   1.068 -0.1416  0.2131 -0.0913
   55BDTP    C932730  -2.712   2.674   0.760  0.2590 -0.1668  0.1045
   55BDTP   C1032731  -2.616   2.769   0.776  0.3562 -0.2725  0.1575
   55BDTP    S232732  -2.611   2.837   0.944  0.3554 -0.2971  0.1676
   56FTM     S132733  -2.582   2.824   1.258 -0.0289 -0.2348 -0.1958
   56FTM     C132734  -2.622   2.936   1.393 -0.1566 -0.3068 -0.1734
   56FTM     C232735  -2.757   2.942   1.411 -0.1515 -0.6371 -0.0242
   56FTM     C332736  -2.835   2.860   1.322 -0.0504 -0.8491  0.0792
   56FTM     C432737  -2.758   2.791   1.234  0.0246 -0.6757  0.0070
   56FTM     F132738  -2.817   3.020   1.508 -0.2381 -0.7669  0.0276
   56FTM     C532739  -2.521   3.011   1.473 -0.5905 -0.3963  0.7157
   56FTM     C632740  -2.394   3.070   1.401  0.6731 -0.2302  0.2993
   56FTM     C732741  -2.286   3.125   1.497 -0.1122 -0.2921 -0.3329
   56FTM     C832742  -2.313   3.234   1.596  0.1931  0.4502  0.6974
   56FTM     C932743  -2.185   3.284   1.672  0.3220  0.4830  0.3047
   56FTM    C1032744  -2.197   3.393   1.777 -0.0858  0.6295 -0.6387
   56FTM    C1132745  -2.422   3.163   1.284  0.1333 -0.6027 -0.2005
   56FTM    C1232746  -2.309   3.220   1.195 -0.3756  0.1242 -0.1937
   57FTM     S132747  -2.923   2.512   0.612 -0.2992 -0.3096 -0.1532
   57FTM     C132748  -2.954   2.344   0.556 -0.0134 -0.5746  0.4728
   57FTM     C232749  -2.964   2.261   0.664  0.9000 -0.3349  0.7629
   57FTM     C332750  -2.949   2.322   0.793  1.4205  0.0598  0.5219
   57FTM     C432751  -2.926   2.456   0.784  0.8885  0.1246  0.0312
   57FTM     F132752  -2.988   2.125   0.652  1.3188 -0.4587  1.2639
   57FTM     C532753  -2.957   2.305   0.413  0.4336  0.4163  0.3924
   57FTM     C632754  -3.088   2.312   0.322 -0.9292 -0.2487 -0.1515
   57FTM     C732755  -3.062   2.276   0.177  0.5751  0.9217  0.2331
   57FTM     C832756  -3.015   2.133   0.144  0.9230 -0.6980  0.3955
   57FTM     C932757  -3.042   2.073   0.010  0.0011 -0.2712  0.1041
   57FTM    C1032758  -3.183   2.058  -0.040 -0.3063 -0.2667  0.1566
   57FTM    C1132759  -3.215   2.263   0.399 -0.6959  0.4365  0.5308
   57FTM    C1232760  -3.344   2.287   0.328 -0.1637 -0.6315  0.0038
   58TPM     C132761  -2.550   2.834   0.667  0.1006 -0.5416 -0.0247
   58TPM     C232762  -2.525   2.783   0.544  0.4513 -0.6009  0.0682
   58TPM     C332763  -2.461   2.875   0.454  0.5199 -0.5774  0.1413
   58TPM     C432764  -2.437   2.997   0.509  0.2215 -0.5002  0.1042
   58TPM     S132765  -2.494   3.005   0.680 -0.1724 -0.4506 -0.0270
   59BDD     C132766  -2.330   3.362   0.414  0.1371  0.0234 -0.1766
   59BDD     C232767  -2.253   3.282   0.335  0.1038 -0.0341 -0.1508
   59BDD     C332768  -2.281   3.140   0.352  0.0412 -0.0170 -0.1092
   59BDD     C432769  -2.378   3.115   0.444  0.0277  0.0533 -0.1039
   59BDD     S132770  -2.443   3.266   0.516  0.0924  0.1029 -0.1506
   59BDD     C532771  -2.152   3.332   0.240  0.1283 -0.1069 -0.1634
   59BDD     C632772  -2.209   3.036   0.276 -0.0029 -0.0712 -0.0763
   59BDD     O132773  -2.233   2.914   0.291 -0.0567 -0.0565 -0.0404
   59BDD     O232774  -2.128   3.454   0.225  0.1823 -0.1217 -0.1992
   59BDD     C732775  -2.108   3.086   0.182  0.0217 -0.1439 -0.0889
   59BDD     C832776  -2.080   3.228   0.164  0.0843 -0.1611 -0.1304
   59BDD     C932777  -1.983   3.253   0.072  0.0978 -0.2314 -0.1357
   59BDD     S232778  -1.918   3.102   0.000  0.0331 -0.2810 -0.0890
   59BDD    C1032779  -2.031   3.006   0.102 -0.0116 -0.2016 -0.0631
   59BDD    C1132780  -2.051   2.863   0.054  0.0056  0.1518  0.2149
   59BDD    C1232781  -1.942   2.759   0.091 -0.3881  0.8182  0.3214
   59BDD    C1332782  -1.983   2.619   0.054  0.6566  0.8024 -0.6297
   59BDD    C1432783  -2.005   2.590  -0.090  0.6180 -0.2215  0.0614
   59BDD    C1532784  -2.059   2.447  -0.110 -0.2266 -0.5783 -0.3040
   59BDD    C1632785  -2.060   2.398  -0.256  0.4187 -0.3305 -0.3850
   59BDD    C1732786  -1.883   2.774   0.228  0.2229  0.2047 -0.8114
   59BDD    C1832787  -1.761   2.704   0.294 -0.2877 -0.1591  0.0346
   59BDD    C1932788  -1.915   3.390   0.035 -0.1276  0.9788 -0.0483
   59BDD    C2032789  -1.762   3.400   0.051 -0.6547 -0.7214 -0.1592
   59BDD    C2132790  -1.695   3.325   0.165 -0.4785  0.2743 -0.2629
   59BDD    C2232791  -1.542   3.323   0.184  0.1842  0.3054 -0.1840
   59BDD    C2332792  -1.501   3.332   0.325  0.3048  0.3595 -0.0775
   59BDD    C2432793  -1.350   3.325   0.333 -0.2987 -0.3361  0.0957
   59BDD    C2532794  -1.697   3.532   0.022 -0.5376 -0.2427 -0.1773
   59BDD    C2632795  -1.739   3.610  -0.097  0.4265 -0.0766  0.3995
   60TPM     C132796  -2.337   3.510   0.439  0.0740  0.3187 -0.3621
   60TPM     C232797  -2.227   3.587   0.460  0.1001  0.1324  0.2222
   60TPM     C332798  -2.257   3.721   0.503  0.1196  0.0350  0.5428
   60TPM     C432799  -2.390   3.746   0.515  0.1080  0.1472  0.2030
   60TPM     S132800  -2.489   3.601   0.472  0.0720  0.3863 -0.5541
    1BDTP    C132801   6.453   6.484   1.980  0.2198  0.1707  0.0147
    1BDTP    C232802   6.450   6.544   2.110  0.1724  0.0573  0.0663
    1BDTP    C332803   6.366   6.650   2.141  0.1017 -0.0236  0.1522
    1BDTP    C432804   6.281   6.700   2.041  0.0768  0.0085  0.1890
    1BDTP    C532805   6.284   6.640   1.911  0.1245  0.1218  0.1373
    1BDTP    C632806   6.368   6.534   1.880  0.1946  0.2029  0.0515
    1BDTP    C732807   6.185   6.808   2.050  0.0063 -0.0607  0.2765
    1BDTP    C832808   6.117   6.832   1.935 -0.0015 -0.0054  0.2927
    1BDTP    S132809   6.165   6.721   1.799  0.0794  0.1421  0.1996
    1BDTP    C932810   6.548   6.376   1.971  0.2903  0.2400 -0.0728
    1BDTP   C1032811   6.616   6.352   2.086  0.2981  0.1847 -0.0890
    1BDTP    S232812   6.569   6.463   2.222  0.2172  0.0372  0.0041
    2FTM     S132813   6.366   6.600   2.427  0.0764  0.0474  0.1373
    2FTM     C132814   6.359   6.746   2.532  0.3025  0.0092  0.2060
    2FTM     C232815   6.360   6.858   2.456 -0.1708  0.0317  0.2286
    2FTM     C332816   6.366   6.838   2.314 -0.7249  0.0787  0.1947
    2FTM     C432817   6.370   6.706   2.281 -0.6741  0.0927  0.1445
    2FTM     F132818   6.355   6.986   2.510 -0.1302  0.0111  0.2813
    2FTM     C532819   6.387   6.733   2.679  0.3083 -0.7945  0.3379
    2FTM     C632820   6.451   6.614   2.752  0.0697  0.4281  0.4959
    2FTM     C732821   6.603   6.624   2.782 -0.5322  0.2558 -0.6389
    2FTM     C832822   6.706   6.666   2.675  0.0703  0.4027  0.4306
    2FTM     C932823   6.748   6.559   2.564 -0.3789 -0.1367  0.1058
    2FTM    C1032824   6.882   6.596   2.490  0.4216 -0.2012  0.5327
    2FTM    C1132825   6.379   6.475   2.740  0.3426  0.6657  0.0380
    2FTM    C1232826   6.444   6.360   2.820  0.9052  0.1993  0.0445
    3FTM     S132827   6.203   6.398   1.694  0.0019  0.0886  0.3229
    3FTM     C132828   6.270   6.385   1.527  0.1042 -0.2243  0.3856
    3FTM     C232829   6.397   6.434   1.524  0.1087 -0.2371  0.3730
    3FTM     C332830   6.449   6.483   1.649  0.0349 -0.0098  0.3151
    3FTM     C432831   6.358   6.471   1.750 -0.0282  0.1833  0.2824
    3FTM     F132832   6.474   6.438   1.409  0.1802 -0.4554  0.4131
    3FTM     C532833   6.203   6.311   1.416 -0.0162  0.8945  0.6232
    3FTM     C632834   6.125   6.172   1.416  0.2111 -0.7580 -0.9378
    3FTM     C732835   6.203   6.049   1.463  0.1821  0.3338 -0.1708
    3FTM     C832836   6.332   6.004   1.391  0.6304 -0.1073  0.2289
    3FTM     C932837   6.334   5.988   1.240  0.8505 -0.3068  0.0681
    3FTM    C1032838   6.246   5.880   1.182  0.4605  0.2247  0.2332
    3FTM    C1132839   5.988   6.180   1.494 -0.0115  1.1682  0.6941
    3FTM    C1232840   5.872   6.276   1.466  0.4171 -0.0518  0.4722
    4TPM     C132841   6.702   6.243   2.125  0.0899 -0.1112 -0.3902
    4TPM     C232842   6.820   6.261   2.191  0.1762  0.0327 -0.5817
    4TPM     C332843   6.894   6.139   2.210  0.2499  0.0892 -0.5062
    4TPM     C432844   6.833   6.029   2.158  0.2196 -0.0117 -0.2571
    4TPM     S132845   6.675   6.070   2.081  0.0947 -0.1869 -0.0974
    5BDD     C132846   7.000   5.712   2.317 -0.3960  0.1155  0.1996
    5BDD     C232847   6.945   5.670   2.199 -0.2834  0.0871  0.1572
    5BDD     C332848   6.884   5.778   2.123 -0.1317  0.0848  0.0301
    5BDD     C432849   6.893   5.899   2.185 -0.1310  0.1111 -0.0225
    5BDD     S132850   6.978   5.888   2.342 -0.3200  0.1410  0.0834
    5BDD     C532851   6.948   5.530   2.152 -0.3109  0.0613  0.2320
    5BDD     C632852   6.819   5.755   1.993  0.0069  0.0563 -0.0346
    5BDD     O132853   6.766   5.848   1.927  0.1376  0.0541 -0.1442
    5BDD     O232854   7.001   5.438   2.217 -0.4417  0.0634  0.3416
    5BDD     C732855   6.821   5.615   1.945 -0.0205  0.0303  0.0402
    5BDD     C832856   6.882   5.508   2.021 -0.1723  0.0328  0.1673
    5BDD     C932857   6.874   5.386   1.960 -0.1729  0.0062  0.2201
    5BDD     S232858   6.788   5.397   1.803  0.0160 -0.0236  0.1141
    5BDD    C1032859   6.766   5.574   1.827  0.0921  0.0019 -0.0022
    5BDD    C1132860   6.691   5.646   1.721  0.5635  0.2699  0.1562
    5BDD    C1232861   6.756   5.656   1.579  0.1945 -0.2696  0.2211
    5BDD    C1332862   6.660   5.710   1.471  0.1087  0.2088  0.7901
    5BDD    C1432863   6.516   5.661   1.459 -0.0141 -0.0732 -0.2501
    5BDD    C1532864   6.491   5.512   1.453  0.1745  0.5774  0.4274
    5BDD    C1632865   6.347   5.487   1.411 -0.1774 -0.2686 -0.4709
    5BDD    C1732866   6.902   5.720   1.570 -0.1658  0.8347 -0.2829
    5BDD    C1832867   6.974   5.712   1.434  0.3388  0.0628  0.1578
    5BDD    C1932868   6.914   5.248   1.998  0.3761  0.3105  0.1781
    5BDD    C2032869   6.799   5.147   2.025  0.3045  0.1841  0.5543
    5BDD    C2132870   6.838   4.996   2.034  0.8677  0.0525 -0.1823
    5BDD    C2232871   6.912   4.926   1.924 -0.0044  0.4843  0.1571
    5BDD    C2332872   6.855   4.782   1.918  0.0415  0.1530  0.5952
    5BDD    C2432873   6.901   4.714   1.791 -0.1668 -0.2479 -0.2313
    5BDD    C2532874   6.688   5.193   2.124  0.3274 -0.4569  0.7817
    5BDD    C2632875   6.571   5.102   2.131  0.5845 -0.0078 -0.4374
    6TPM     C132876   7.060   5.643   2.439  0.0652  0.0503  0.5147
    6TPM     C232877   7.002   5.648   2.562  0.8228  0.2631  0.8811
    6TPM     C332878   7.062   5.559   2.658  1.2889  0.2747  0.6062
    6TPM     C432879   7.167   5.487   2.609  0.8868  0.0706  0.0303
    6TPM     S132880   7.197   5.526   2.435 -0.1197 -0.1534 -0.2115
    7BDTP    C132881   7.548   5.089   2.907 -0.0790  0.2555  0.1466
    7BDTP    C232882   7.419   5.034   2.933 -0.0081  0.0558  0.0808
    7BDTP    C332883   7.302   5.090   2.883 -0.0737 -0.0987  0.0587
    7BDTP    C432884   7.313   5.206   2.804 -0.2156 -0.0544  0.1032
    7BDTP    C532885   7.442   5.261   2.778 -0.2866  0.1452  0.1690
    7BDTP    C632886   7.558   5.205   2.828 -0.2211  0.2996  0.1912
    7BDTP    C732887   7.206   5.282   2.741 -0.3053 -0.1892  0.0915
    7BDTP    C832888   7.248   5.389   2.671 -0.4383 -0.1017  0.1447
    7BDTP    S132889   7.429   5.410   2.674 -0.4689  0.1638  0.2170
    7BDTP    C932890   7.654   5.013   2.970  0.0105  0.3903  0.1583
    7BDTP   C1032891   7.612   4.905   3.040  0.1436  0.3029  0.1051
    7BDTP    S232892   7.431   4.885   3.037  0.1740  0.0372  0.0329
    8FTM     S132893   7.129   4.990   3.076  0.1353  0.3037  0.1521
    8FTM     C132894   6.983   4.904   3.016  0.2040  0.1791  0.1634
    8FTM     C232895   6.983   4.902   2.880  0.4418 -0.2440  0.1662
    8FTM     C332896   7.094   4.966   2.816  0.5816 -0.4911  0.1599
    8FTM     C432897   7.182   5.019   2.906  0.4467 -0.2492  0.1519
    8FTM     F132898   6.882   4.842   2.806  0.5467 -0.4327  0.1745
    8FTM     C532899   6.878   4.846   3.104  0.0118 -0.7185 -0.0877
    8FTM     C632900   6.904   4.706   3.177  0.1663 -0.9043  0.1522
    8FTM     C732901   6.784   4.649   3.259 -0.9418 -0.1079  0.3048
    8FTM     C832902   6.679   4.578   3.175 -0.3830 -0.3055 -0.0211
    8FTM     C932903   6.589   4.486   3.251 -0.4652 -0.1192 -0.4042
    8FTM    C1032904   6.637   4.359   3.325  0.1833 -0.6563  0.1784
    8FTM    C1132905   7.045   4.667   3.222 -0.1835  0.0427 -0.2726
    8FTM    C1232906   7.061   4.512   3.227 -0.2602 -0.1811 -0.3946
    9FTM     S132907   7.754   5.269   2.620 -0.0908 -0.1083  0.1458
    9FTM     C132908   7.901   5.355   2.677 -0.1300  0.1038 -0.0706
    9FTM     C232909   7.896   5.372   2.812 -0.0614  0.2978 -0.0913
    9FTM     C332910   7.780   5.320   2.878  0.0238  0.2931  0.0564
    9FTM     C432911   7.693   5.262   2.791  0.0203  0.0892  0.1947
    9FTM     F132912   7.997   5.435   2.884 -0.0716  0.4910 -0.2452
    9FTM     C532913   8.005   5.404   2.579  0.1573  0.0773  0.0054
    9FTM     C632914   7.973   5.499   2.462 -0.2513  0.0571  0.2720
    9FTM     C732915   7.907   5.444   2.332  0.0489 -0.1539  0.5145
    9FTM     C832916   8.004   5.353   2.244  0.1337  0.1351  0.0619
    9FTM     C932917   7.927   5.287   2.133 -0.2492 -0.6911 -0.1841
    9FTM    C1032918   7.993   5.227   2.017 -0.3355 -0.2074  0.3442
    9FTM    C1132919   7.920   5.643   2.501  0.1750  0.1261  0.5869
    9FTM    C1232920   7.776   5.656   2.552  0.6101  0.1448 -0.0869
   10TPM     C132921   7.694   4.810   3.111  0.0136  0.0819 -0.3324
   10TPM     C232922   7.703   4.675   3.096 -0.3753  0.0416 -0.2216
   10TPM     C332923   7.769   4.609   3.205 -0.5698 -0.0620 -0.1646
   10TPM     C432924   7.811   4.694   3.303 -0.3296 -0.1009 -0.2321
   10TPM     S132925   7.769   4.866   3.265  0.1650 -0.0089 -0.3738
   11BDD     C132926   8.089   4.682   3.583 -0.0161 -0.1332  0.1080
   11BDD     C232927   8.013   4.571   3.604 -0.0081 -0.1509  0.0434
   11BDD     C332928   7.907   4.554   3.506  0.2041 -0.2849 -0.1652
   11BDD     C432929   7.904   4.653   3.412  0.3549 -0.3673 -0.2566
   11BDD     S132930   8.034   4.774   3.439  0.2415 -0.2829 -0.0878
   11BDD     C532931   8.034   4.476   3.715 -0.1957 -0.0453  0.1711
   11BDD     C632932   7.812   4.441   3.510  0.2494 -0.3263 -0.2661
   11BDD     O132933   7.721   4.426   3.425  0.4323 -0.4418 -0.4460
   11BDD     O232934   8.126   4.490   3.800 -0.3786  0.0702  0.3509
   11BDD     C732935   7.834   4.346   3.621  0.0621 -0.2207 -0.1385
   11BDD     C832936   7.940   4.363   3.719 -0.1501 -0.0868  0.0700
   11BDD     C932937   7.942   4.264   3.813 -0.3008 -0.0041  0.1614
   11BDD     S232938   7.813   4.143   3.786 -0.1878 -0.0886 -0.0073
   11BDD    C1032939   7.757   4.234   3.642  0.0700 -0.2383 -0.2031
   11BDD    C1132940   7.629   4.180   3.583  0.1708  0.7660  0.4572
   11BDD    C1232941   7.615   4.084   3.463 -0.4470  0.3966  0.2264
   11BDD    C1332942   7.474   4.029   3.435 -0.1028  0.1475  0.1447
   11BDD    C1432943   7.391   3.951   3.538 -0.1175  0.7102  0.3188
   11BDD    C1532944   7.461   3.867   3.645  0.1111  0.5902 -0.5564
   11BDD    C1632945   7.366   3.808   3.757 -0.0863 -0.8615  0.5020
   11BDD    C1732946   7.694   4.136   3.339 -0.4091 -0.6233 -0.6939
   11BDD    C1832947   7.710   4.050   3.217 -0.1255  0.1532 -0.3280
   11BDD    C1932948   8.045   4.236   3.925 -0.3673  0.1026  0.4393
   11BDD    C2032949   7.999   4.268   4.066 -0.0602 -0.3193 -0.3525
   11BDD    C2132950   7.902   4.165   4.129  0.0447  0.3520 -0.8864
   11BDD    C2232951   7.964   4.025   4.164 -0.2920 -0.0207  0.7797
   11BDD    C2332952   7.877   3.942   4.261  0.3516  0.2416  0.4238
   11BDD    C2432953   7.952   3.821   4.316 -0.4505 -0.2948  0.3658
   11BDD    C2532954   8.109   4.333   4.153 -0.1596 -0.2528 -0.7963
   11BDD    C2632955   8.157   4.477   4.118  0.4108 -0.6816 -0.9105
   12TPM     C132956   8.203   4.755   3.653  0.1827 -0.1065 -0.0335
   12TPM     C232957   8.241   4.880   3.615  0.5257 -0.3469 -0.5027
   12TPM     C332958   8.349   4.935   3.693  0.5596 -0.2826 -0.5940
   12TPM     C432959   8.394   4.851   3.791  0.2424  0.0069 -0.1944
   12TPM     S132960   8.302   4.696   3.792 -0.1265  0.2224  0.3323
   13BDTP    C132961   8.824   4.980   4.228 -0.1061  0.1733 -0.3638
   13BDTP    C232962   8.743   4.882   4.292 -0.0527  0.1988 -0.2576
   13BDTP    C332963   8.633   4.823   4.231 -0.0958  0.1651 -0.1482
   13BDTP    C432964   8.602   4.863   4.100 -0.1965  0.1030 -0.1428
   13BDTP    C532965   8.683   4.961   4.035 -0.2499  0.0775 -0.2489
   13BDTP    C632966   8.792   5.020   4.096 -0.2065  0.1113 -0.3586
   13BDTP    C732967   8.493   4.816   4.016 -0.2573  0.0589 -0.0397
   13BDTP    C832968   8.489   4.874   3.893 -0.3521  0.0024 -0.0631
   13BDTP    S132969   8.621   4.995   3.866 -0.3781 -0.0033 -0.2189
   13BDTP    C932970   8.933   5.027   4.311 -0.0451  0.2174 -0.4668
   13BDTP   C1032971   8.937   4.970   4.434  0.0498  0.2742 -0.4436
   13BDTP    S232972   8.804   4.848   4.461  0.0756  0.2797 -0.2877
   14FTM     S132973   8.507   4.720   4.471  0.2823  0.1013  0.1176
   14FTM     C132974   8.438   4.554   4.460  0.0650  0.2028 -0.0838
   14FTM     C232975   8.456   4.504   4.335  0.1249  0.2774 -0.1048
   14FTM     C332976   8.523   4.590   4.242  0.3381  0.2604  0.0309
   14FTM     C432977   8.558   4.709   4.298  0.4447  0.1698  0.1602
   14FTM     F132978   8.413   4.378   4.297 -0.0098  0.3654 -0.2486
   14FTM     C532979   8.361   4.490   4.576 -0.2484  0.0799 -0.1680
   14FTM     C632980   8.208   4.497   4.593 -0.0669  0.5418  0.2115
   14FTM     C732981   8.154   4.438   4.720  0.5168  0.6467  0.0732
   14FTM     C832982   8.138   4.284   4.716 -0.0515 -0.3365  0.0576
   14FTM     C932983   8.063   4.227   4.602 -0.8879 -0.0322  0.0254
   14FTM    C1032984   8.027   4.075   4.601  0.2445 -0.4512  0.1892
   14FTM    C1132985   8.144   4.633   4.573  0.0034  0.4007  0.3969
   14FTM    C1232986   7.989   4.660   4.588 -0.2783  0.3166  0.8210
   15FTM     S132987   8.866   5.292   4.017  0.2276  0.1172  0.1582
   15FTM     C132988   8.991   5.299   3.888  0.0584 -0.1680 -0.0233
   15FTM     C232989   9.030   5.173   3.855 -0.2329 -0.2555 -0.0387
   15FTM     C332990   8.967   5.066   3.926 -0.3397 -0.1093  0.0866
   15FTM     C432991   8.876   5.111   4.017 -0.1232  0.0965  0.2018
   15FTM     F132992   9.126   5.147   3.758 -0.4203 -0.4727 -0.1671
   15FTM     C532993   9.028   5.427   3.816  0.0514 -0.5160  0.4508
   15FTM     C632994   9.016   5.429   3.662 -0.1124  0.3141 -0.3302
   15FTM     C732995   9.105   5.538   3.584  0.3595  0.3815  0.0932
   15FTM     C832996   9.253   5.545   3.615 -0.2304 -0.0025 -0.2509
   15FTM     C932997   9.333   5.417   3.581 -0.2191 -0.1204  0.3047
   15FTM    C1032998   9.469   5.410   3.640 -0.3580  0.1792  0.0021
   15FTM    C1132999   8.877   5.391   3.606 -0.2235 -0.1727 -0.3974
   15FTM    C1233000   8.873   5.343   3.470 -0.1167  0.1338 -0.0951
   16TPM     C133001   9.029   4.998   4.537 -0.1658 -0.3583  0.1883
   16TPM     C233002   9.054   4.939   4.658  0.0060 -0.4835  0.0929
   16TPM     C333003   9.166   4.997   4.728  0.1152 -0.5659 -0.0125
   16TPM     C433004   9.226   5.099   4.661  0.0264 -0.5032  0.0027
   16TPM     S133005   9.146   5.131   4.503 -0.2037 -0.3344  0.1523
   17BDD     C133006   9.579   5.272   4.677  0.2590 -0.3437  0.1013
   17BDD     C233007   9.540   5.261   4.808  0.2227 -0.2487  0.0985
   17BDD     C333008   9.410   5.199   4.824  0.1595 -0.1153  0.0999
   17BDD     C433009   9.352   5.164   4.706  0.1480 -0.1107  0.1039
   17BDD     S133010   9.456   5.205   4.566  0.2165 -0.2729  0.1062
   17BDD     C533011   9.621   5.308   4.923  0.2451 -0.2767  0.0941
   17BDD     C633012   9.348   5.178   4.956  0.1123  0.0029  0.0969
   17BDD     O133013   9.235   5.125   4.970  0.0577  0.1179  0.0983
   17BDD     O233014   9.733   5.361   4.909  0.2995 -0.3916  0.0929
   17BDD     C733015   9.429   5.224   5.071  0.1345 -0.0253  0.0926
   17BDD     C833016   9.559   5.286   5.055  0.1979 -0.1587  0.0912
   17BDD     C933017   9.617   5.322   5.173  0.2091 -0.1632  0.0870
   17BDD     S233018   9.513   5.280   5.313  0.1409 -0.0011  0.0849
   17BDD    C1033019   9.389   5.214   5.202  0.0985  0.0699  0.0895
   17BDD    C1133020   9.266   5.143   5.265 -0.9934 -0.2166  0.2917
   17BDD    C1233021   9.282   5.000   5.317  0.3120 -0.2340 -0.2472
   17BDD    C1333022   9.362   4.980   5.446  0.6514 -0.6185 -0.0120
   17BDD    C1433023   9.331   5.075   5.568  0.3907  0.3577  0.3972
   17BDD    C1533024   9.190   5.088   5.625 -0.0821  0.0115 -0.0254
   17BDD    C1633025   9.146   4.959   5.687  0.3305 -0.6221 -0.5912
   17BDD    C1733026   9.309   4.885   5.212  0.5846  0.2626  0.1517
   17BDD    C1833027   9.185   4.831   5.134 -0.2825 -0.0909 -0.1880
   17BDD    C1933028   9.751   5.382   5.204 -0.3683  1.0211  0.1259
   17BDD    C2033029   9.752   5.527   5.223 -0.2411 -0.6906  0.3281
   17BDD    C2133030   9.682   5.575   5.353 -0.2659  0.0764 -0.1796
   17BDD    C2233031   9.747   5.543   5.485 -0.6565 -0.0399 -0.1356
   17BDD    C2333032   9.667   5.582   5.606  0.0880 -0.1240  0.7841
   17BDD    C2433033   9.712   5.552   5.744  0.4238  0.3452  0.0928
   17BDD    C2533034   9.897   5.574   5.199 -0.1770 -0.4661  0.2275
   17BDD    C2633035   9.932   5.722   5.210 -0.5198  0.0948  1.2445
   18TPM     C133036   9.692   5.330   4.603 -0.2127 -0.0950  0.0022
   18TPM     C233037   9.676   5.381   4.477 -0.1801 -0.6129 -0.2165
   18TPM     C333038   9.798   5.433   4.420 -0.1758 -0.8008 -0.3816
   18TPM     C433039   9.906   5.422   4.503 -0.2051 -0.4262 -0.2888
   18TPM     S133040   9.862   5.344   4.659 -0.2408  0.1976  0.0168
   19BDTP    C133041  10.460   5.663   4.326 -0.1686  0.3036  0.1391
   19BDTP    C233042  10.493   5.600   4.449 -0.0693  0.0038 -0.0377
   19BDTP    C333043  10.399   5.534   4.527 -0.0138 -0.1550 -0.1041
   19BDTP    C433044  10.266   5.530   4.481 -0.0581 -0.0116  0.0088
   19BDTP    C533045  10.233   5.592   4.357 -0.1574  0.2882  0.1856
   19BDTP    C633046  10.327   5.658   4.279 -0.2129  0.4468  0.2521
   19BDTP    C733047  10.151   5.467   4.544 -0.0153 -0.1304 -0.0303
   19BDTP    C833048  10.036   5.480   4.475 -0.0769  0.0631  0.1068
   19BDTP    S133049  10.055   5.573   4.320 -0.1977  0.4230  0.3049
   19BDTP    C933050  10.575   5.725   4.262 -0.2114  0.4222  0.1783
   19BDTP   C1033051  10.690   5.712   4.332 -0.1498  0.2290  0.0411
   19BDTP    S233052  10.670   5.619   4.487 -0.0290 -0.1311 -0.1568
   20FTM     S133053  10.378   5.328   4.732 -0.2660 -0.0109  0.0558
   20FTM     C133054  10.495   5.348   4.868 -0.4803  0.1909  0.2134
   20FTM     C233055  10.568   5.462   4.851 -0.4636  0.1731  0.1664
   20FTM     C333056  10.537   5.539   4.734 -0.2874  0.0057  0.0088
   20FTM     C433057  10.438   5.482   4.659 -0.1652 -0.1084 -0.0675
   20FTM     F133058  10.666   5.503   4.940 -0.6069  0.3073  0.2633
   20FTM     C533059  10.507   5.246   4.979  0.0065  0.3522 -0.1678
   20FTM     C633060  10.383   5.232   5.081  0.2042  0.0561  0.5928
   20FTM     C733061  10.419   5.174   5.221  0.0503  0.6190  0.9642
   20FTM     C833062  10.461   5.280   5.319 -0.2729  0.5056  0.2645
   20FTM     C933063  10.486   5.227   5.457 -0.0671 -0.0508  0.0873
   20FTM    C1033064  10.551   5.334   5.548  0.3772 -0.0570  0.1190
   20FTM    C1133065  10.241   5.190   5.025  0.7811  0.4053  0.1436
   20FTM    C1233066  10.217   5.041   4.981  0.4734  0.3299  0.1293
   21FTM     S133067  10.362   5.871   4.089 -0.3381  0.1823 -0.1975
   21FTM     C133068  10.269   5.855   3.936  0.0543  0.0047 -0.4207
   21FTM     C233069  10.196   5.740   3.938  0.2466 -0.1200 -0.5828
   21FTM     C333070  10.209   5.659   4.055  0.1040 -0.0859 -0.5442
   21FTM     C433071  10.293   5.714   4.147 -0.2077  0.0699 -0.3462
   21FTM     F133072  10.115   5.701   3.832  0.5632 -0.2723 -0.7756
   21FTM     C533073  10.306   5.954   3.822 -0.0288  0.2534 -0.3114
   21FTM     C633074  10.279   6.101   3.852 -0.1074 -0.6415  0.0544
   21FTM     C733075  10.350   6.201   3.758  0.3315  0.4996  0.9606
   21FTM     C833076  10.507   6.202   3.750  0.8213  0.0135 -0.4876
   21FTM     C933077  10.577   6.183   3.882 -0.5904  0.0955 -0.0492
   21FTM    C1033078  10.725   6.139   3.870 -0.2304  0.5272 -0.3772
   21FTM    C1133079  10.127   6.131   3.883  0.5046  0.1850 -0.1242
   21FTM    C1233080  10.098   6.251   3.966  0.3846 -0.9541  0.2067
   22TPM     C133081  10.816   5.771   4.296 -0.0255  0.1865  0.1997
   22TPM     C233082  10.845   5.868   4.205 -0.3544  0.5790  0.5001
   22TPM     C333083  10.980   5.916   4.212 -0.4230  0.7836  0.4361
   22TPM     C433084  11.055   5.856   4.310 -0.1464  0.5472  0.0869
   22TPM     S133085  10.958   5.733   4.401  0.2250  0.0439 -0.1904
   23BDD     C133086  11.411   6.037   4.305 -0.0967  0.4480  0.2007
   23BDD     C233087  11.412   5.959   4.417 -0.0361  0.2407  0.0582
   23BDD     C333088  11.290   5.883   4.435  0.1601 -0.1633 -0.2681
   23BDD     C433089  11.197   5.904   4.337  0.2462 -0.2583 -0.3696
   23BDD     S133090  11.257   6.020   4.214  0.0875  0.1514 -0.0634
   23BDD     C533091  11.525   5.952   4.512 -0.1561  0.4065  0.2164
   23BDD     C633092  11.269   5.792   4.550  0.2551 -0.4402 -0.4674
   23BDD     O133093  11.163   5.727   4.566  0.4243 -0.7886 -0.7488
   23BDD     O233094  11.631   6.017   4.496 -0.3253  0.7548  0.4977
   23BDD     C733095  11.382   5.785   4.645  0.1350 -0.2745 -0.3090
   23BDD     C833096  11.504   5.861   4.626 -0.0612  0.1295  0.0173
   23BDD     C933097  11.597   5.840   4.725 -0.1472  0.2244  0.1187
   23BDD     S233098  11.537   5.724   4.848  0.0114 -0.1853 -0.1871
   23BDD    C1033099  11.383   5.707   4.757  0.1957 -0.4817 -0.4514
   23BDD    C1133100  11.286   5.604   4.804  0.2203  0.3144  0.3651
   23BDD    C1233101  11.192   5.631   4.924 -0.4976 -0.2544 -0.1481
   23BDD    C1333102  11.260   5.660   5.058 -0.5169  0.0183  0.0451
   23BDD    C1433103  11.304   5.532   5.136 -0.1599 -0.2378  0.4627
   23BDD    C1533104  11.397   5.567   5.252  0.3014 -0.2502 -0.2926
   23BDD    C1633105  11.425   5.446   5.338  0.4586  0.3013  0.4545
   23BDD    C1733106  11.066   5.535   4.929  0.0674  0.2483 -0.3284
   23BDD    C1833107  10.980   5.544   4.802 -0.8973 -0.2692 -0.4652
   23BDD    C1933108  11.739   5.886   4.738  0.2240  0.2128 -0.5831
   23BDD    C2033109  11.780   5.955   4.874  0.0470 -0.3355  0.1658
   23BDD    C2133110  11.699   6.091   4.904 -0.1454  1.0411  0.3749
   23BDD    C2233111  11.739   6.176   5.031  0.1343 -0.1345 -0.1482
   23BDD    C2333112  11.733   6.105   5.161 -0.8355  0.9884 -0.4650
   23BDD    C2433113  11.603   6.035   5.194 -0.4666  0.0576  0.2093
   23BDD    C2533114  11.937   5.942   4.902  0.2606 -0.0330  0.3707
   23BDD    C2633115  12.030   6.043   4.829 -1.0430  0.9527  0.2627
   24TPM     C133116  11.510   6.110   4.231 -0.5567  0.3713 -0.1639
   24TPM     C233117  11.559   6.221   4.292 -1.1747  0.7221 -0.2890
   24TPM     C333118  11.613   6.319   4.201 -0.9433  0.5383 -0.3487
   24TPM     C433119  11.605   6.281   4.070 -0.1489  0.0477 -0.2694
   24TPM     S133120  11.528   6.119   4.052  0.3727 -0.2228 -0.1118
   25BDTP    C133121  11.855   6.562   3.563  0.0207 -0.0778  0.0439
   25BDTP    C233122  11.726   6.526   3.516  0.0327 -0.0890  0.0197
   25BDTP    C333123  11.633   6.459   3.595  0.0222 -0.0933  0.0038
   25BDTP    C433124  11.670   6.425   3.726 -0.0010 -0.0864  0.0121
   25BDTP    C533125  11.800   6.461   3.773 -0.0128 -0.0752  0.0363
   25BDTP    C633126  11.892   6.528   3.694 -0.0024 -0.0708  0.0523
   25BDTP    C733127  11.592   6.356   3.826 -0.0154 -0.0890 -0.0010
   25BDTP    C833128  11.655   6.338   3.944 -0.0371 -0.0805  0.0120
   25BDTP    S133129  11.823   6.407   3.946 -0.0425 -0.0677  0.0428
   25BDTP    C933130  11.934   6.631   3.463  0.0351 -0.0751  0.0572
   25BDTP   C1033131  11.871   6.649   3.345  0.0569 -0.0837  0.0441
   25BDTP    S233132  11.702   6.580   3.343  0.0623 -0.0965  0.0133
   26FTM     S133133  11.349   6.515   3.601  0.0152 -0.1059  0.2126
   26FTM     C133134  11.254   6.432   3.472  0.0212 -0.1402  0.2303
   26FTM     C233135  11.336   6.355   3.396  0.0374 -0.0980  0.2048
   26FTM     C333136  11.475   6.356   3.432  0.0458 -0.0379  0.1708
   26FTM     C433137  11.499   6.436   3.539  0.0358 -0.0339  0.1703
   26FTM     F133138  11.291   6.279   3.289  0.0454 -0.1113  0.2107
   26FTM     C533139  11.104   6.468   3.463 -0.6392  0.0788 -0.3418
   26FTM     C633140  10.996   6.370   3.516  0.2324 -0.2205  0.8862
   26FTM     C733141  10.998   6.307   3.654  0.5377  0.4487 -0.2508
   26FTM     C833142  11.032   6.386   3.785 -0.4138  0.5223  0.1262
   26FTM     C933143  11.055   6.304   3.910  0.8235  0.1058 -0.3853
   26FTM    C1033144  11.182   6.227   3.922 -0.0811 -0.1143 -0.5041
   26FTM    C1133145  10.858   6.420   3.469 -0.1262  0.9843 -0.2217
   26FTM    C1233146  10.830   6.412   3.322 -0.1903 -0.0161  0.2921
   27FTM     S133147  12.172   6.525   3.642  0.2414  0.2966 -0.2425
   27FTM     C133148  12.275   6.599   3.770 -0.1297  0.5503 -0.0861
   27FTM     C233149  12.198   6.635   3.876 -0.3281 -0.0005 -0.0356
   27FTM     C333150  12.058   6.608   3.865 -0.2065 -0.6380 -0.1136
   27FTM     C433151  12.026   6.550   3.746  0.0948 -0.5733 -0.2275
   27FTM     F133152  12.250   6.695   3.990 -0.6314  0.0399  0.0843
   27FTM     C533153  12.416   6.639   3.740 -0.1109  0.1887  0.4579
   27FTM     C633154  12.506   6.550   3.648 -0.0837 -0.7452  0.9140
   27FTM     C733155  12.477   6.554   3.493 -0.1359  0.3763  0.0495
   27FTM     C833156  12.469   6.690   3.422 -0.1488  0.2748  0.1873
   27FTM     C933157  12.600   6.767   3.402  0.0471  0.1077 -0.5400
   27FTM    C1033158  12.697   6.701   3.297  0.1220  0.8349  0.1108
   27FTM    C1133159  12.555   6.417   3.697  0.2830  0.4718  0.0392
   27FTM    C1233160  12.676   6.346   3.639 -0.3124 -0.6225 -0.2039
   28TPM     C133161  11.915   6.720   3.234  0.2402 -0.3740  0.0398
   28TPM     C233162  11.844   6.768   3.128  0.1721 -1.0823 -0.2424
   28TPM     C333163  11.925   6.829   3.026  0.0393 -1.0172 -0.3096
   28TPM     C433164  12.059   6.828   3.054  0.0059 -0.2591 -0.0789
   28TPM     S133165  12.092   6.749   3.212  0.1409  0.4369  0.2439
   29BDD     C133166  12.373   7.036   2.949 -0.0722  0.1054  0.0651
   29BDD     C233167  12.303   7.015   2.833 -0.0514  0.0440  0.0634
   29BDD     C333168  12.179   6.942   2.853 -0.0331  0.0160  0.0737
   29BDD     C433169  12.157   6.907   2.984 -0.0401  0.0564  0.0831
   29BDD     S133170  12.289   6.965   3.091 -0.0701  0.1323  0.0798
   29BDD     C533171  12.347   7.062   2.700 -0.0477  0.0089  0.0522
   29BDD     C633172  12.088   6.908   2.742 -0.0094 -0.0498  0.0739
   29BDD     O133173  11.981   6.845   2.760  0.0065 -0.0739  0.0827
   29BDD     O233174  12.453   7.126   2.683 -0.0635  0.0330  0.0432
   29BDD     C733175  12.132   6.955   2.609 -0.0057 -0.0848  0.0627
   29BDD     C833176  12.255   7.029   2.589 -0.0240 -0.0567  0.0524
   29BDD     C933177  12.277   7.063   2.459 -0.0169 -0.0970  0.0430
   29BDD     S233178  12.145   7.006   2.352  0.0130 -0.1730  0.0463
   29BDD    C1033179  12.061   6.935   2.494  0.0151 -0.1460  0.0611
   29BDD    C1133180  11.928   6.856   2.461 -0.3942 -0.2050 -0.7741
   29BDD    C1233181  11.931   6.742   2.364  0.0819 -0.0836 -0.4628
   29BDD    C1333182  12.041   6.634   2.394 -0.5270  0.5068 -0.7765
   29BDD    C1433183  12.059   6.519   2.293  0.9224 -0.4347 -0.1801
   29BDD    C1533184  12.127   6.562   2.165  0.0279  0.0479 -0.1565
   29BDD    C1633185  12.097   6.467   2.059 -0.4622 -0.2808  0.0387
   29BDD    C1733186  11.796   6.704   2.308  0.4504  0.3384  0.4711
   29BDD    C1833187  11.699   6.821   2.260 -0.3330 -1.1192  0.0815
   29BDD    C1933188  12.395   7.131   2.382  1.0405 -0.2008 -0.2723
   29BDD    C2033189  12.358   7.277   2.332  0.2311 -0.0837 -1.1597
   29BDD    C2133190  12.360   7.374   2.458 -0.5869  0.0549  0.3495
   29BDD    C2233191  12.321   7.520   2.440  0.4753 -0.0045  0.2286
   29BDD    C2333192  12.178   7.543   2.385  0.1532 -1.1275 -0.1811
   29BDD    C2433193  12.157   7.685   2.333  0.6014  0.0745 -0.1360
   29BDD    C2533194  12.424   7.324   2.200  0.1324  0.0432  0.5053
   29BDD    C2633195  12.419   7.248   2.071  0.0824  0.5388 -0.3291
   30TPM     C133196  12.507   7.094   2.977  0.5718 -0.2623 -0.1561
   30TPM     C233197  12.504   7.230   2.972  0.5407 -0.2638 -0.1841
   30TPM     C333198  12.595   7.293   3.064  0.1800 -0.2186  0.1490
   30TPM     C433199  12.667   7.205   3.139 -0.0640 -0.1826  0.4309
   30TPM     S133200  12.625   7.034   3.099  0.1444 -0.2030  0.2966
   31BDTP    C133201  13.147   7.374   3.501  0.0028  0.2959 -0.1448
   31BDTP    C233202  13.198   7.256   3.440  0.0454  0.2788 -0.0760
   31BDTP    C333203  13.123   7.179   3.353  0.0635  0.1860 -0.0101
   31BDTP    C433204  12.992   7.220   3.323  0.0387  0.1060 -0.0119
   31BDTP    C533205  12.941   7.338   3.384 -0.0039  0.1229 -0.0806
   31BDTP    C633206  13.016   7.416   3.472 -0.0220  0.2159 -0.1465
   31BDTP    C733207  12.896   7.156   3.235  0.0506  0.0033  0.0493
   31BDTP    C833208  12.777   7.220   3.227  0.0196 -0.0567  0.0300
   31BDTP    S133209  12.769   7.370   3.330 -0.0292  0.0082 -0.0684
   31BDTP    C933210  13.243   7.438   3.589 -0.0091  0.3985 -0.2059
   31BDTP   C1033211  13.362   7.374   3.597  0.0221  0.4586 -0.1865
   31BDTP    S233212  13.369   7.224   3.495  0.0707  0.3936 -0.0882
   32FTM     S133213  13.093   6.887   3.317 -0.1530  0.2732 -0.4629
   32FTM     C133214  13.221   6.807   3.219  0.2059  0.3119 -0.0337
   32FTM     C233215  13.315   6.898   3.182  0.4099  0.3008  0.4493
   32FTM     C333216  13.294   7.033   3.227  0.3020  0.2626  0.5136
   32FTM     C433217  13.180   7.045   3.301  0.0058  0.2436  0.0650
   32FTM     F133218  13.426   6.865   3.106  0.7063  0.3247  0.8621
   32FTM     C533219  13.214   6.664   3.182  0.7423  0.1290  0.1875
   32FTM     C633220  13.091   6.604   3.117  0.1483 -0.4998 -0.3068
   32FTM     C733221  13.066   6.450   3.140  0.0651 -0.1011  0.2344
   32FTM     C833222  13.069   6.401   3.277 -0.2646  0.3640 -0.3105
   32FTM     C933223  12.982   6.460   3.389 -0.0796 -0.1347 -0.4474
   32FTM    C1033224  13.014   6.410   3.531 -0.4887 -0.0969  0.2334
   32FTM    C1133225  13.040   6.668   2.987 -0.4564  1.1027 -0.1799
   32FTM    C1233226  12.887   6.660   2.962 -0.3995 -0.4877  0.1852
   33FTM     S133227  12.919   7.554   3.711 -0.1349 -0.2949 -0.1161
   33FTM     C133228  12.880   7.728   3.686 -0.6086 -0.3780  0.0220
   33FTM     C233229  12.891   7.760   3.554 -0.4916 -0.1959  0.0749
   33FTM     C333230  12.930   7.653   3.467 -0.0373  0.0139  0.0128
   33FTM     C433231  12.949   7.536   3.533  0.2012 -0.0081 -0.0912
   33FTM     F133232  12.867   7.887   3.505 -0.7888 -0.2085  0.1829
   33FTM     C533233  12.857   7.818   3.807  0.3907 -0.0752  0.0085
   33FTM     C633234  12.979   7.883   3.875  0.0396  0.5122  0.3827
   33FTM     C733235  12.937   7.995   3.969  0.6551 -0.0699  0.0568
   33FTM     C833236  12.888   8.131   3.906  0.4673  0.2529 -0.2627
   33FTM     C933237  12.968   8.194   3.782  0.2417  0.4913 -0.1839
   33FTM    C1033238  12.893   8.311   3.728 -0.7604  0.2319  0.5448
   33FTM    C1133239  13.087   7.789   3.928  0.6069  0.5265 -0.2645
   33FTM    C1233240  13.052   7.695   4.043 -0.2750 -0.1966  0.0995
   34TPM     C133241  13.483   7.413   3.672 -0.1716 -0.2067  0.2960
   34TPM     C233242  13.608   7.368   3.641 -0.1892 -0.2024  0.2167
   34TPM     C333243  13.712   7.436   3.713 -0.1343 -0.0879  0.0317
   34TPM     C433244  13.667   7.532   3.799 -0.0749 -0.0048 -0.0300
   34TPM     S133245  13.487   7.545   3.795 -0.0837 -0.0653  0.1421
   35BDD     C133246  13.915   7.632   4.083  0.1017 -0.0746 -0.0639
   35BDD     C233247  13.903   7.745   4.006  0.0607 -0.0972 -0.0906
   35BDD     C333248  13.813   7.728   3.893  0.0167 -0.1366 -0.0498
   35BDD     C433249  13.757   7.604   3.886  0.0249 -0.1437  0.0074
   35BDD     S133250  13.814   7.498   4.020  0.0883 -0.1013  0.0143
   35BDD     C533251  13.974   7.871   4.033  0.0603 -0.0830 -0.1545
   35BDD     C633252  13.785   7.837   3.797 -0.0319 -0.1659 -0.0689
   35BDD     O133253  13.707   7.823   3.700 -0.0697 -0.1999 -0.0337
   35BDD     O233254  14.052   7.886   4.130  0.0982 -0.0491 -0.1898
   35BDD     C733255  13.856   7.963   3.824 -0.0323 -0.1519 -0.1329
   35BDD     C833256  13.947   7.980   3.936  0.0117 -0.1124 -0.1737
   35BDD     C933257  14.002   8.105   3.943  0.0033 -0.1054 -0.2310
   35BDD     S233258  13.946   8.210   3.810 -0.0601 -0.1478 -0.2376
   35BDD    C1033259  13.845   8.076   3.747 -0.0736 -0.1743 -0.1595
   35BDD    C1133260  13.769   8.099   3.614 -0.8239  0.1069  0.8221
   35BDD    C1233261  13.871   8.095   3.492 -0.3703 -0.1805  0.2392
   35BDD    C1333262  13.825   8.166   3.364  0.6983 -0.1183 -0.0530
   35BDD    C1433263  13.754   8.306   3.363 -0.8750  0.2696 -0.1361
   35BDD    C1533264  13.852   8.422   3.408 -0.3744 -0.1330  0.0722
   35BDD    C1633265  13.782   8.556   3.414  0.1147 -0.3130 -0.1531
   35BDD    C1733266  13.957   7.970   3.468 -0.0486  0.1999  0.3041
   35BDD    C1833267  13.903   7.855   3.391  0.0545 -0.1732 -0.2148
   35BDD    C1933268  14.101   8.175   4.035  0.4297 -0.0506  0.2959
   35BDD    C2033269  14.045   8.213   4.167  0.1155  0.9560 -0.0537
   35BDD    C2133270  14.156   8.248   4.261 -0.4459 -0.0521  1.1902
   35BDD    C2233271  14.135   8.200   4.404  0.3707  0.1182 -0.0327
   35BDD    C2333272  14.151   8.046   4.418  0.1255  0.0230  0.0591
   35BDD    C2433273  14.046   7.985   4.515 -1.0071 -0.1867  0.0789
   35BDD    C2533274  13.917   8.299   4.173 -0.2328 -0.4320 -0.5355
   35BDD    C2633275  13.919   8.440   4.109 -0.8365 -0.7380  0.4840
   36TPM     C133276  13.997   7.584   4.196 -0.4652 -0.2506  0.1913
   36TPM     C233277  13.984   7.648   4.316 -1.0768 -0.6175  0.3333
   36TPM     C333278  14.024   7.568   4.429 -0.8689 -0.6872  0.2127
   36TPM     C433279  14.066   7.443   4.396 -0.0985 -0.3734 -0.0212
   36TPM     S133280  14.060   7.416   4.217  0.4281  0.0377 -0.1080
   37BDTP    C133281  14.029   6.896   4.703 -0.0654  0.0639  0.4377
   37BDTP    C233282  13.989   6.990   4.802 -0.0666  0.1513  0.3549
   37BDTP    C333283  13.990   7.127   4.780 -0.1256  0.1291  0.2145
   37BDTP    C433284  14.031   7.174   4.654 -0.1867  0.0154  0.1521
   37BDTP    C533285  14.070   7.080   4.555 -0.1856 -0.0718  0.2350
   37BDTP    C633286  14.070   6.942   4.577 -0.1266 -0.0496  0.3755
   37BDTP    C733287  14.039   7.311   4.608 -0.2540 -0.0280  0.0086
   37BDTP    C833288  14.083   7.324   4.480 -0.3030 -0.1423 -0.0201
   37BDTP    S133289  14.119   7.165   4.401 -0.2706 -0.2109  0.1308
   37BDTP    C933290  14.020   6.759   4.749  0.0018  0.1076  0.5814
   37BDTP   C1033291  13.977   6.745   4.876  0.0508  0.2220  0.6100
   37BDTP    S233292  13.941   6.905   4.956  0.0184  0.2904  0.4593
   38FTM     S133293  14.070   7.344   4.957 -0.0344  0.2287 -0.0951
   38FTM     C133294  13.934   7.415   5.053 -0.1083  0.2927 -0.2469
   38FTM     C233295  13.820   7.345   5.029 -0.0143  0.0578 -0.0200
   38FTM     C333296  13.830   7.235   4.938  0.1179 -0.1805  0.2787
   38FTM     C433297  13.956   7.220   4.890  0.1253 -0.1264  0.2805
   38FTM     F133298  13.699   7.377   5.089 -0.0423  0.0445 -0.0691
   38FTM     C533299  13.951   7.526   5.152  0.0944 -0.2395  0.5198
   38FTM     C633300  14.053   7.507   5.272  0.4251  0.2163  0.4363
   38FTM     C733301  14.200   7.509   5.232  0.5218  0.7379 -0.4619
   38FTM     C833302  14.272   7.625   5.160  0.0591  0.0878 -1.0005
   38FTM     C933303  14.278   7.761   5.240 -0.6224  0.1606 -0.2611
   38FTM    C1033304  14.352   7.877   5.170 -0.5398  0.4594  0.2374
   38FTM    C1133305  14.009   7.391   5.372 -0.2319 -0.1374 -0.0945
   38FTM    C1233306  13.885   7.423   5.451 -0.2471 -0.4368  0.1978
   39FTM     S133307  14.247   6.747   4.448  0.0688 -0.0053  0.1004
   39FTM     C133308  14.190   6.692   4.287  0.0811  0.0926  0.0626
   39FTM     C233309  14.073   6.754   4.256  0.2226  0.3158 -0.0285
   39FTM     C333310  14.022   6.846   4.353  0.3275  0.4219 -0.0733
   39FTM     C433311  14.103   6.854   4.463  0.2643  0.2749 -0.0146
   39FTM     F133312  14.005   6.731   4.137  0.2656  0.4374 -0.0765
   39FTM     C533313  14.269   6.579   4.216  0.4506 -0.4739  0.0548
   39FTM     C633314  14.243   6.428   4.256  0.2190  0.2435  0.5722
   39FTM     C733315  14.255   6.373   4.398  0.6026 -0.2173  0.5496
   39FTM     C833316  14.388   6.381   4.465  0.0802 -0.3145  0.2617
   39FTM     C933317  14.397   6.334   4.609  0.5317  0.0832  0.3489
   39FTM    C1033318  14.335   6.423   4.715  0.0176 -0.4970 -0.2729
   39FTM    C1133319  14.121   6.360   4.191 -0.2240  0.1823 -0.5956
   39FTM    C1233320  14.097   6.358   4.040 -0.2831 -0.1674 -0.0079
   40TPM     C133321  13.949   6.625   4.946 -0.3512  0.2933 -0.2415
   40TPM     C233322  13.965   6.497   4.900 -0.2350  0.3531 -0.3687
   40TPM     C333323  13.928   6.396   4.996  0.1404  0.2204 -0.3611
   40TPM     C433324  13.884   6.447   5.115  0.3104  0.0596 -0.2280
   40TPM     S133325  13.885   6.627   5.115  0.0072  0.0631 -0.1012
   41BDD     C133326  13.807   6.139   5.346  0.2497  0.1047 -0.1395
   41BDD     C233327  13.723   6.237   5.391  0.1895  0.0411 -0.1124
   41BDD     C333328  13.739   6.363   5.321  0.0334  0.0385 -0.1523
   41BDD     C433329  13.834   6.359   5.223 -0.0230  0.1003 -0.2094
   41BDD     S133330  13.910   6.197   5.211  0.1154  0.1657 -0.2171
   41BDD     C533331  13.626   6.219   5.501  0.2731 -0.0196 -0.0488
   41BDD     C633332  13.659   6.483   5.354 -0.0541 -0.0248 -0.1326
   41BDD     O133333  13.672   6.592   5.294 -0.1886 -0.0269 -0.1670
   41BDD     O233334  13.613   6.110   5.562  0.4076 -0.0174 -0.0142
   41BDD     C733335  13.562   6.465   5.464  0.0296 -0.0857 -0.0687
   41BDD     C833336  13.546   6.338   5.534  0.1856 -0.0832 -0.0287
   41BDD     C933337  13.452   6.342   5.633  0.2421 -0.1448  0.0284
   41BDD     S233338  13.375   6.504   5.644  0.1036 -0.2103  0.0361
   41BDD    C1033339  13.479   6.563   5.510 -0.0307 -0.1493 -0.0415
   41BDD    C1133340  13.455   6.709   5.485 -0.2853 -0.3087 -0.3406
   41BDD    C1233341  13.571   6.809   5.520 -0.7517  0.4640 -0.3408
   41BDD    C1333342  13.536   6.961   5.487 -0.3365  0.5555  0.6010
   41BDD    C1433343  13.642   7.070   5.504  0.0190 -0.0348  0.7499
   41BDD    C1533344  13.782   7.059   5.452 -0.1760  0.3778 -0.1284
   41BDD    C1633345  13.791   7.038   5.303 -0.2625  0.0170 -0.0343
   41BDD    C1733346  13.656   6.782   5.649  0.6496  0.1582 -0.6915
   41BDD    C1833347  13.581   6.779   5.784  0.3053 -0.3919  0.0465
   41BDD    C1933348  13.391   6.242   5.730  0.3014  0.1081  0.2137
   41BDD    C2033349  13.260   6.179   5.687 -0.8698  0.1851  0.1768
   41BDD    C2133350  13.242   6.116   5.553  0.2067 -0.3020  0.0107
   41BDD    C2233351  13.108   6.130   5.478 -0.9274  0.3485 -0.2807
   41BDD    C2333352  13.044   6.264   5.456  0.4565 -0.4325  0.1303
   41BDD    C2433353  12.911   6.229   5.386 -0.3173  0.1421 -0.5827
   41BDD    C2533354  13.177   6.112   5.796 -0.0483  0.0936  0.0758
   41BDD    C2633355  13.161   6.168   5.932 -0.3778  0.1380 -0.2618
   42TPM     C133356  13.837   5.998   5.381 -0.7814 -0.2552  0.0993
   42TPM     C233357  13.747   5.906   5.427 -0.8236 -0.6820 -0.7987
   42TPM     C333358  13.798   5.772   5.432 -0.5620 -0.5989 -1.2083
   42TPM     C433359  13.928   5.761   5.389 -0.3202 -0.1089 -0.6228
   42TPM     S133360  13.995   5.921   5.340 -0.4049  0.2887  0.5004
   43BDTP    C133361  14.316   5.280   5.283 -0.0633 -0.2393  0.1595
   43BDTP    C233362  14.235   5.227   5.388 -0.1371 -0.1115  0.1680
   43BDTP    C333363  14.131   5.298   5.446 -0.1121 -0.0015  0.0786
   43BDTP    C433364  14.106   5.428   5.399 -0.0095 -0.0181 -0.0243
   43BDTP    C533365  14.187   5.482   5.295  0.0645 -0.1460 -0.0325
   43BDTP    C633366  14.291   5.410   5.237  0.0393 -0.2560  0.0570
   43BDTP    C733367  14.003   5.521   5.443  0.0345  0.0808 -0.1282
   43BDTP    C833368  14.004   5.640   5.378  0.1366  0.0341 -0.2133
   43BDTP    S133369  14.134   5.651   5.252  0.1913 -0.1417 -0.1734
   43BDTP    C933370  14.418   5.187   5.239 -0.1073 -0.3383  0.2637
   43BDTP   C1033371  14.418   5.069   5.304 -0.2093 -0.2918  0.3487
   43BDTP    S233372  14.288   5.057   5.431 -0.2641 -0.1158  0.3090
   44FTM     S133373  14.110   5.147   5.691  0.2841 -0.0883 -0.0388
   44FTM     C133374  13.942   5.105   5.738  0.2705  0.0013 -0.0056
   44FTM     C233375  13.854   5.160   5.650  0.2894 -0.0622 -0.0646
   44FTM     C333376  13.912   5.237   5.543  0.3152 -0.1814 -0.1374
   44FTM     C433377  14.048   5.241   5.550  0.3156 -0.2103 -0.1340
   44FTM     F133378  13.717   5.145   5.660  0.2849 -0.0162 -0.0563
   44FTM     C533379  13.903   5.017   5.858  0.1879  0.6076 -0.1488
   44FTM     C633380  13.963   4.879   5.871 -0.2589 -0.2536  0.0196
   44FTM     C733381  13.987   4.788   5.746  1.0241  0.3549  0.1023
   44FTM     C833382  14.126   4.777   5.682 -0.3358  0.8618  0.3963
   44FTM     C933383  14.243   4.731   5.762 -0.0696 -0.4725 -0.2196
   44FTM    C1033384  14.369   4.711   5.684 -0.2598 -0.1452 -0.0830
   44FTM    C1133385  13.922   4.796   5.997 -0.4949  0.4064 -0.0168
   44FTM    C1233386  13.784   4.731   5.991 -0.6250  0.3527  0.1365
   45FTM     S133387  14.552   5.495   5.148 -0.3749  0.4116  0.1145
   45FTM     C133388  14.567   5.531   4.972 -0.1875 -0.1252  0.0178
   45FTM     C233389  14.446   5.521   4.912 -0.1223 -0.3157 -0.0838
   45FTM     C333390  14.336   5.486   4.997 -0.2121 -0.0620 -0.0926
   45FTM     C433391  14.375   5.468   5.126 -0.3504  0.3358  0.0056
   45FTM     F133392  14.427   5.543   4.776  0.0224 -0.7309 -0.1751
   45FTM     C533393  14.694   5.571   4.911 -0.9979  0.3113 -0.5329
   45FTM     C633394  14.829   5.495   4.941 -0.7736 -0.8825 -0.1265
   45FTM     C733395  14.936   5.547   4.843  0.4213  0.1711  0.9232
   45FTM     C833396  14.963   5.690   4.859  0.1458  0.1531  0.7527
   45FTM     C933397  15.025   5.736   4.987 -0.2574  0.4061 -0.4790
   45FTM    C1033398  15.039   5.884   5.002  0.0241 -0.4293 -0.3017
   45FTM    C1133399  14.838   5.343   4.956 -0.3047 -0.3922 -0.2696
   45FTM    C1233400  14.778   5.252   4.855 -0.4378 -0.1174 -0.3032
   46TPM     C133401  14.514   4.963   5.286 -0.2663 -0.0790  0.0364
   46TPM     C233402  14.502   4.831   5.314 -0.1574 -0.1413 -0.2000
   46TPM     C333403  14.621   4.754   5.288 -0.0526  0.0268 -0.2158
   46TPM     C433404  14.724   4.829   5.239 -0.0819  0.2172  0.0088
   46TPM     S133405  14.678   5.003   5.222 -0.2451  0.1986  0.2595
   47BDD     C133406  15.086   4.798   5.104  0.0894 -0.0025 -0.0137
   47BDD     C233407  15.076   4.702   5.201  0.0671  0.0345  0.0204
   47BDD     C333408  14.943   4.692   5.259  0.0437  0.0291 -0.0342
   47BDD     C433409  14.853   4.780   5.205  0.0486 -0.0117 -0.1091
   47BDD     S133410  14.929   4.882   5.078  0.0827 -0.0463 -0.1165
   47BDD     C533411  15.188   4.617   5.244  0.0664  0.0757  0.1044
   47BDD     C633412  14.909   4.596   5.365  0.0172  0.0647 -0.0101
   47BDD     O133413  14.795   4.587   5.415 -0.0030  0.0602 -0.0571
   47BDD     O233414  15.303   4.625   5.195  0.0865  0.0802  0.1513
   47BDD     C733415  15.022   4.510   5.409  0.0167  0.1063  0.0739
   47BDD     C833416  15.155   4.520   5.351  0.0401  0.1116  0.1285
   47BDD     C933417  15.244   4.432   5.405  0.0352  0.1523  0.2034
   47BDD     S233418  15.168   4.330   5.532  0.0011  0.1869  0.2108
   47BDD    C1033419  15.012   4.414   5.506 -0.0058  0.1432  0.1080
   47BDD    C1133420  14.906   4.383   5.604 -0.8696 -0.1405 -0.1213
   47BDD    C1233421  14.782   4.290   5.568 -0.3727  0.1174  0.1343
   47BDD    C1333422  14.672   4.280   5.677 -0.0715  0.0701  0.2435
   47BDD    C1433423  14.620   4.409   5.744  0.5987 -0.3657 -0.2611
   47BDD    C1533424  14.499   4.393   5.837 -0.1561  0.3546  0.1753
   47BDD    C1633425  14.507   4.294   5.956  0.1287 -0.6199  0.1047
   47BDD    C1733426  14.823   4.145   5.517  0.3728 -0.0268 -0.2843
   47BDD    C1833427  14.896   4.060   5.624  0.1779  0.5868 -0.2299
   47BDD    C1933428  15.399   4.422   5.392  0.3919 -0.1165 -0.0573
   47BDD    C2033429  15.454   4.364   5.263  0.2129 -0.5511 -0.0408
   47BDD    C2133430  15.414   4.218   5.239  0.1082 -0.1431  0.0269
   47BDD    C2233431  15.495   4.130   5.333 -0.0734  0.3162  0.3582
   47BDD    C2333432  15.467   3.977   5.330 -0.8007 -1.0727 -0.0884
   47BDD    C2433433  15.541   3.891   5.441 -0.6846 -0.7157 -0.1827
   47BDD    C2533434  15.595   4.415   5.224 -0.1224  0.3899  0.1461
   47BDD    C2633435  15.643   4.410   5.081 -0.4177  0.0375  0.4237
   48TPM     C133436  15.190   4.859   5.019  0.0358 -0.1190 -0.2043
   48TPM     C233437  15.320   4.860   5.059  0.0048  0.3577 -0.0973
   48TPM     C333438  15.408   4.935   4.973 -0.2538  0.9767  0.1692
   48TPM     C433439  15.344   4.992   4.867 -0.4200  0.9720  0.2652
   48TPM     S133440  15.168   4.955   4.867 -0.2615  0.1793  0.0248
   49BDTP    C133441  15.573   5.359   4.406 -0.1116  0.1832 -0.2583
   49BDTP    C233442  15.692   5.303   4.460 -0.1130  0.2227 -0.2140
   49BDTP    C333443  15.691   5.213   4.566 -0.1237  0.2122 -0.2229
   49BDTP    C433444  15.567   5.178   4.622 -0.1338  0.1603 -0.2784
   49BDTP    C533445  15.448   5.234   4.568 -0.1326  0.1209 -0.3226
   49BDTP    C633446  15.449   5.324   4.462 -0.1218  0.1315 -0.3138
   49BDTP    C733447  15.541   5.087   4.732 -0.1457  0.1399 -0.2979
   49BDTP    C833448  15.410   5.073   4.762 -0.1537  0.0879 -0.3541
   49BDTP    S133449  15.301   5.173   4.656 -0.1466  0.0573 -0.3901
   49BDTP    C933450  15.600   5.450   4.296 -0.0997  0.2037 -0.2387
   49BDTP   C1033451  15.731   5.464   4.265 -0.0920  0.2557 -0.1826
   49BDTP    S233452  15.840   5.364   4.371 -0.0989  0.2863 -0.1465
   50FTM     S133453  15.968   5.244   4.650  0.0795 -0.3533 -0.1167
   50FTM     C133454  16.049   5.090   4.696 -0.1411 -0.4597 -0.0780
   50FTM     C233455  15.963   4.986   4.683 -0.2552 -0.3542 -0.1661
   50FTM     C333456  15.831   5.018   4.637 -0.1799 -0.1884 -0.2667
   50FTM     C433457  15.816   5.152   4.615 -0.0023 -0.1661 -0.2552
   50FTM     F133458  15.998   4.854   4.711 -0.4348 -0.4017 -0.1608
   50FTM     C533459  16.198   5.087   4.721 -0.1905 -0.0923  0.3927
   50FTM     C633460  16.296   5.108   4.603  0.2893 -1.0372 -0.0905
   50FTM     C733461  16.311   4.994   4.501 -0.5709 -0.9614 -0.2799
   50FTM     C833462  16.282   4.843   4.537  0.0602 -0.3201  0.7313
   50FTM     C933463  16.310   4.750   4.423 -0.3190 -0.3527  0.1645
   50FTM    C1033464  16.249   4.612   4.451  0.4484 -0.4070  0.8939
   50FTM    C1133465  16.287   5.255   4.556 -0.5321  0.2798  0.0374
   50FTM    C1233466  16.389   5.312   4.455  0.0306 -0.0957 -0.2288
   51FTM     S133467  15.242   5.509   4.501 -0.1419 -0.0172 -0.1065
   51FTM     C133468  15.120   5.524   4.370 -0.2737 -0.0220  0.0164
   51FTM     C233469  15.147   5.436   4.270 -0.2760  0.0933 -0.0862
   51FTM     C333470  15.263   5.354   4.288 -0.1775  0.1898 -0.2623
   51FTM     C433471  15.326   5.379   4.407 -0.0975  0.1471 -0.2955
   51FTM     F133472  15.069   5.425   4.155 -0.3672  0.1181 -0.0268
   51FTM     C533473  15.003   5.613   4.392  0.0916 -0.2308  0.6160
   51FTM     C633474  14.987   5.745   4.318  0.6111 -0.4689  0.8000
   51FTM     C733475  14.910   5.729   4.179 -0.1989  0.0911  0.4754
   51FTM     C833476  14.776   5.650   4.163  0.1217 -0.4024  0.0850
   51FTM     C933477  14.663   5.722   4.249 -0.1433 -0.0146  0.2023
   51FTM    C1033478  14.533   5.643   4.243 -0.2719  0.0132  0.2588
   51FTM    C1133479  15.091   5.856   4.320  0.3972  0.2519 -0.2870
   51FTM    C1233480  15.133   5.899   4.462  0.1318  0.0788  0.4022
   52TPM     C133481  15.801   5.547   4.171  0.1362 -0.2791  0.1230
   52TPM     C233482  15.750   5.584   4.050  0.0132 -0.1218  0.2226
   52TPM     C333483  15.832   5.679   3.980 -0.1171  0.0601  0.3134
   52TPM     C433484  15.946   5.714   4.047 -0.0934  0.0415  0.2830
   52TPM     S133485  15.958   5.629   4.206  0.0968 -0.2089  0.1361
   53BDD     C133486  16.281   5.911   4.011 -0.0673 -0.2628  0.0140
   53BDD     C233487  16.190   5.987   3.944 -0.0407 -0.1820  0.0694
   53BDD     C333488  16.058   5.927   3.937 -0.0957 -0.0696  0.1411
   53BDD     C433489  16.051   5.805   4.000 -0.1635 -0.0664  0.1394
   53BDD     S133490  16.208   5.758   4.071 -0.1631 -0.2038  0.0479
   53BDD     C533491  16.221   6.118   3.883  0.0361 -0.2053  0.0585
   53BDD     C633492  15.944   5.992   3.869 -0.0793  0.0306  0.2087
   53BDD     O133493  15.831   5.940   3.863 -0.1268  0.1276  0.2705
   53BDD     O233494  16.335   6.170   3.888  0.0837 -0.3022 -0.0033
   53BDD     C733495  15.975   6.123   3.808 -0.0024  0.0074  0.1979
   53BDD     C833496  16.107   6.183   3.815  0.0527 -0.1050  0.1261
   53BDD     C933497  16.115   6.304   3.752  0.1203 -0.1085  0.1279
   53BDD     S233498  15.957   6.352   3.681  0.1197  0.0293  0.2193
   53BDD    C1033499  15.884   6.199   3.741  0.0240  0.0881  0.2531
   53BDD    C1133500  15.740   6.185   3.708 -0.3108 -0.0389 -0.1082
   53BDD    C1233501  15.641   6.202   3.822  0.0359  0.0128 -0.0900
   53BDD    C1333502  15.667   6.326   3.907  0.3683  0.0847 -0.5235
   53BDD    C1433503  15.662   6.466   3.841  0.1799 -0.3615  0.0499
   53BDD    C1533504  15.729   6.582   3.914 -0.4543  0.6673 -0.2641
   53BDD    C1633505  15.712   6.711   3.845  0.3520  0.5151  0.1038
   53BDD    C1733506  15.494   6.181   3.781 -0.3102  0.3802  0.7440
   53BDD    C1833507  15.393   6.170   3.890  0.3548  0.0978  0.5340
   53BDD    C1933508  16.235   6.395   3.719 -0.3525  0.8795  0.3845
   53BDD    C2033509  16.267   6.506   3.819  0.8328 -0.0740  0.5637
   53BDD    C2133510  16.413   6.539   3.834  0.3666 -0.3122 -0.4120
   53BDD    C2233511  16.481   6.606   3.720 -0.6472 -0.4799 -0.0320
   53BDD    C2333512  16.449   6.745   3.659  0.4653 -0.5734  0.5739
   53BDD    C2433513  16.454   6.872   3.754 -0.6768  0.0825  0.3346
   53BDD    C2533514  16.157   6.619   3.812 -0.4142 -0.1323 -0.0882
   53BDD    C2633515  16.169   6.729   3.921  0.0051 -0.3836 -0.2967
   54TPM     C133516  16.415   5.928   4.064 -0.0627  0.0122  0.0892
   54TPM     C233517  16.520   5.960   3.984 -0.1200  0.2806  0.1190
   54TPM     C333518  16.648   5.926   4.040 -0.0618  0.3997  0.0585
   54TPM     C433519  16.641   5.868   4.163  0.0401  0.2221 -0.0175
   54TPM     S133520  16.470   5.852   4.218  0.0706 -0.1120 -0.0183
   55BDTP    C133521  17.108   5.696   4.550  0.0137  0.0906  0.0420
   55BDTP    C233522  16.993   5.682   4.632 -0.0020  0.0477  0.0128
   55BDTP    C333523  16.865   5.710   4.587  0.0048  0.0553 -0.0014
   55BDTP    C433524  16.849   5.755   4.455  0.0279  0.1076  0.0134
   55BDTP    C533525  16.965   5.769   4.373  0.0434  0.1506  0.0424
   55BDTP    C633526  17.093   5.740   4.418  0.0369  0.1429  0.0568
   55BDTP    C733527  16.727   5.791   4.386  0.0388  0.1254  0.0031
   55BDTP    C833528  16.745   5.830   4.258  0.0615  0.1787  0.0226
   55BDTP    S133529  16.919   5.828   4.206  0.0725  0.2142  0.0570
   55BDTP    C933530  17.231   5.660   4.619  0.0029  0.0728  0.0522
   55BDTP   C1033531  17.213   5.620   4.747 -0.0201  0.0193  0.0325
   55BDTP    S233532  17.039   5.623   4.799 -0.0310 -0.0160 -0.0017
   56FTM     S133533  16.589   5.617   4.620  0.2210 -0.1785 -0.0691
   56FTM     C133534  16.526   5.629   4.789  0.0107 -0.0943 -0.1529
   56FTM     C233535  16.620   5.683   4.870 -0.1353  0.0603 -0.0864
   56FTM     C333536  16.744   5.719   4.807 -0.0935  0.1215  0.0310
   56FTM     C433537  16.745   5.690   4.674  0.0906  0.0097  0.0552
   56FTM     F133538  16.600   5.705   5.005 -0.3154  0.1559 -0.1280
   56FTM     C533539  16.390   5.574   4.818 -0.4727 -0.3957 -0.6200
   56FTM     C633540  16.264   5.648   4.770 -0.2796  0.4074  0.3171
   56FTM     C733541  16.201   5.755   4.863  0.1212 -0.0719 -0.2957
   56FTM     C833542  16.117   5.713   4.986  0.0022 -0.5186  0.0477
   56FTM     C933543  16.005   5.616   4.955 -0.0374  0.3062 -0.2867
   56FTM    C1033544  15.934   5.571   5.072  0.2219 -0.1385 -0.7528
   56FTM    C1133545  16.253   5.662   4.611 -0.4082 -0.2196 -0.9375
   56FTM    C1233546  16.131   5.734   4.549  0.5602  0.0783 -0.1338
   57FTM     S133547  17.356   5.835   4.381  0.1184 -0.3350  0.1133
   57FTM     C133548  17.436   5.799   4.224 -0.2429  0.2061 -0.2044
   57FTM     C233549  17.350   5.730   4.144 -0.3994  0.4088 -0.2126
   57FTM     C333550  17.221   5.703   4.198 -0.2514  0.1615  0.0221
   57FTM     C433551  17.206   5.752   4.324  0.0275 -0.2436  0.2163
   57FTM     F133552  17.385   5.688   4.016 -0.6858  0.8301 -0.4330
   57FTM     C533553  17.579   5.817   4.205 -0.3234 -0.2197  0.4112
   57FTM     C633554  17.638   5.942   4.131  0.6362  0.2482 -0.1141
   57FTM     C733555  17.577   6.080   4.179 -0.2181 -0.0049 -0.5525
   57FTM     C833556  17.625   6.142   4.310 -0.1434  0.1040 -0.3073
   57FTM     C933557  17.536   6.247   4.359  0.3945 -0.2388  0.1503
   57FTM    C1033558  17.587   6.319   4.485 -0.1832 -0.4000  0.1472
   57FTM    C1133559  17.785   5.942   4.100  0.3054 -0.4097 -0.5717
   57FTM    C1233560  17.846   5.826   4.025  0.6741  0.2286  0.1272
   58TPM     C133561  17.302   5.560   4.841 -0.0295  0.2911  0.1993
   58TPM     C233562  17.402   5.471   4.813 -0.3377 -0.0590  0.1974
   58TPM     C333563  17.477   5.431   4.929 -0.3712 -0.1996  0.1714
   58TPM     C433564  17.435   5.490   5.045 -0.0888  0.0433  0.1536
   58TPM     S133565  17.296   5.601   5.016  0.2444  0.4717  0.1684
   59BDD     C133566  17.550   5.341   5.390 -0.1264  0.2893 -0.1325
   59BDD     C233567  17.624   5.454   5.373 -0.0324  0.2282 -0.1303
   59BDD     C333568  17.595   5.525   5.250  0.0849  0.2108 -0.1690
   59BDD     C433569  17.498   5.465   5.175  0.0790  0.2591 -0.2001
   59BDD     S133570  17.437   5.315   5.253 -0.0740  0.3294 -0.1831
   59BDD     C533571  17.726   5.501   5.470 -0.0477  0.1833 -0.0926
   59BDD     C633572  17.663   5.650   5.211  0.1986  0.1469 -0.1736
   59BDD     O133573  17.638   5.711   5.105  0.3002  0.1320 -0.2067
   59BDD     O233574  17.751   5.440   5.576 -0.1488  0.1984 -0.0594
   59BDD     C733575  17.765   5.697   5.308  0.1838  0.1022 -0.1357
   59BDD     C833576  17.794   5.626   5.431  0.0663  0.1196 -0.0970
   59BDD     C933577  17.891   5.687   5.507  0.0722  0.0713 -0.0659
   59BDD     S233578  17.952   5.836   5.428  0.2255  0.0008 -0.0828
   59BDD    C1033579  17.839   5.810   5.291  0.2775  0.0409 -0.1334
   59BDD    C1133580  17.822   5.932   5.202 -0.5870  0.1797  0.5887
   59BDD    C1233581  17.925   5.933   5.079  0.0208  0.4666 -1.4345
   59BDD    C1333582  17.889   6.021   4.956 -0.3856  0.2716 -0.5013
   59BDD    C1433583  17.763   5.985   4.885  0.5743  0.2475  0.3146
   59BDD    C1533584  17.760   5.848   4.815  0.2239 -0.1691 -0.0895
   59BDD    C1633585  17.635   5.831   4.730 -0.3120 -0.4496 -0.5440
   59BDD    C1733586  18.071   5.957   5.123  0.0339  0.0208  0.2138
   59BDD    C1833587  18.106   6.109   5.152 -0.1659 -0.1916  0.4094
   59BDD    C1933588  17.967   5.644   5.634 -0.2324  0.1427 -0.0512
   59BDD    C2033589  18.058   5.528   5.615  0.5814  0.3380 -0.5944
   59BDD    C2133590  18.104   5.484   5.757  0.0547 -0.9511  0.0476
   59BDD    C2233591  18.182   5.352   5.773  0.7671 -0.6989 -0.3665
   59BDD    C2333592  18.130   5.219   5.726  0.0438  0.3463 -0.4496
   59BDD    C2433593  18.004   5.160   5.790  0.6281  0.1337  0.2410
   59BDD    C2533594  18.154   5.546   5.494 -0.8634 -0.0951 -0.3419
   59BDD    C2633595  18.268   5.646   5.505  0.2899  0.2662  0.1897
   60TPM     C133596  17.533   5.226   5.486 -0.2798  0.4881 -0.0434
   60TPM     C233597  17.622   5.186   5.581 -0.3953  0.8736  0.2319
   60TPM     C333598  17.583   5.067   5.651 -0.1594  0.7706  0.1923
   60TPM     C433599  17.463   5.016   5.611  0.1361  0.3063 -0.1134
   60TPM     S133600  17.390   5.115   5.478  0.1394 -0.0394 -0.3767
    1BDTP    C133601   1.387   6.880   9.010  0.0269 -0.1998 -0.0548
    1BDTP    C233602   1.397   7.019   8.980  0.0022 -0.2121 -0.1206
    1BDTP    C333603   1.458   7.110   9.066  0.1159 -0.1848 -0.2291
    1BDTP    C433604   1.510   7.061   9.187  0.2609 -0.1435 -0.2751
    1BDTP    C533605   1.500   6.922   9.217  0.2856 -0.1314 -0.2096
    1BDTP    C633606   1.439   6.832   9.132  0.1719 -0.1586 -0.1011
    1BDTP    C733607   1.578   7.136   9.292  0.3962 -0.1099 -0.3854
    1BDTP    C833608   1.617   7.061   9.397  0.5196 -0.0736 -0.4060
    1BDTP    S133609   1.575   6.885   9.379  0.4820 -0.0768 -0.2878
    1BDTP    C933610   1.320   6.805   8.906 -0.1083 -0.2334  0.0556
    1BDTP   C1033611   1.280   6.880   8.800 -0.2318 -0.2697  0.0758
    1BDTP    S233612   1.322   7.056   8.818 -0.1941 -0.2666 -0.0425
    2FTM     S133613   1.642   7.335   9.039 -0.0824 -0.0695  0.5086
    2FTM     C133614   1.568   7.491   8.988  0.4346  0.0444  0.0843
    2FTM     C233615   1.435   7.475   8.968  0.4754  0.3015 -0.4382
    2FTM     C333616   1.383   7.343   8.991  0.1158  0.4228 -0.5376
    2FTM     C433617   1.480   7.255   9.029 -0.2111  0.2531 -0.0768
    2FTM     F133618   1.351   7.578   8.929  0.8409  0.4423 -0.8569
    2FTM     C533619   1.657   7.612   8.981  0.4121 -0.0776  0.2244
    2FTM     C633620   1.703   7.684   9.111 -0.6126 -0.2665 -0.2055
    2FTM     C733621   1.612   7.701   9.235 -0.4280 -0.1887  0.1278
    2FTM     C833622   1.472   7.761   9.220  0.2252 -0.0722  0.2199
    2FTM     C933623   1.395   7.776   9.352  0.3967  0.5634  0.3132
    2FTM    C1033624   1.354   7.642   9.412 -0.1286  0.3398 -0.5600
    2FTM    C1133625   1.812   7.792   9.095 -0.4287  0.8125 -0.0090
    2FTM    C1233626   1.796   7.906   8.997  0.8377 -0.1251 -1.1663
    3FTM     S133627   1.260   6.619   9.207 -0.0133  0.0694  0.2301
    3FTM     C133628   1.336   6.460   9.244 -0.1776 -0.1031 -0.1597
    3FTM     C233629   1.471   6.469   9.232 -0.1921 -0.3185 -0.5164
    3FTM     C333630   1.523   6.597   9.194 -0.0790 -0.3614 -0.5088
    3FTM     C433631   1.424   6.689   9.176  0.0254 -0.1728 -0.1340
    3FTM     F133632   1.556   6.361   9.255 -0.3086 -0.4897 -0.8717
    3FTM     C533633   1.257   6.342   9.286  0.7141  0.7623 -0.3352
    3FTM     C633634   1.197   6.238   9.184  0.0729 -0.4482 -0.3124
    3FTM     C733635   1.295   6.152   9.106 -0.6341 -0.3018  0.2298
    3FTM     C833636   1.384   6.053   9.180 -0.2209 -0.1212  0.0880
    3FTM     C933637   1.291   5.938   9.231  0.4363  0.1411  0.1381
    3FTM    C1033638   1.353   5.859   9.353  0.2589  0.0481  0.0822
    3FTM    C1133639   1.094   6.289   9.083  0.0217  0.2947  0.5852
    3FTM    C1233640   0.957   6.343   9.131  0.0471  0.2040  1.0824
    4TPM     C133641   1.224   6.837   8.670 -0.1365  0.2105  0.1117
    4TPM     C233642   1.165   6.719   8.636 -0.2744  0.2331  0.2682
    4TPM     C333643   1.140   6.706   8.495 -0.2337  0.0496  0.2778
    4TPM     C433644   1.180   6.814   8.421 -0.0646 -0.1128  0.1285
    4TPM     S133645   1.252   6.941   8.526  0.0572 -0.0461 -0.0368
    5BDD     C133646   1.346   6.839   8.066 -0.3189  0.2679  0.1959
    5BDD     C233647   1.241   6.753   8.049 -0.2697  0.2187  0.1431
    5BDD     C333648   1.164   6.731   8.170 -0.2398  0.0781  0.1361
    5BDD     C433649   1.211   6.800   8.278 -0.2667  0.0219  0.1839
    5BDD     S133650   1.355   6.898   8.236 -0.3312  0.1416  0.2408
    5BDD     C533651   1.208   6.689   7.920 -0.2485  0.2992  0.0970
    5BDD     C633652   1.047   6.641   8.174 -0.1857  0.0041  0.0825
    5BDD     O133653   0.980   6.622   8.278 -0.1599 -0.1172  0.0763
    5BDD     O233654   1.275   6.708   7.816 -0.2743  0.4207  0.1031
    5BDD     C733655   1.014   6.577   8.045 -0.1644  0.0846  0.0362
    5BDD     C833656   1.091   6.599   7.924 -0.1943  0.2254  0.0434
    5BDD     C933657   1.044   6.530   7.816 -0.1675  0.2816 -0.0041
    5BDD     S233658   0.900   6.432   7.858 -0.1030  0.1619 -0.0611
    5BDD    C1033659   0.909   6.490   8.027 -0.1152  0.0355 -0.0162
    5BDD    C1133660   0.801   6.440   8.119 -0.6872 -0.4533 -0.4425
    5BDD    C1233661   0.653   6.448   8.094  0.8370  1.1605 -0.0499
    5BDD    C1333662   0.613   6.577   8.028  0.5597  0.3571  0.2331
    5BDD    C1433663   0.466   6.606   8.007 -0.1485 -0.2454 -0.4543
    5BDD    C1533664   0.450   6.732   7.927 -0.8575 -0.4850 -0.1953
    5BDD    C1633665   0.320   6.783   7.878 -0.1848 -0.6699  0.9310
    5BDD    C1733666   0.568   6.400   8.215  0.4509  0.2480  0.5387
    5BDD    C1833667   0.577   6.474   8.347  0.1344  0.1408  0.3350
    5BDD    C1933668   1.088   6.513   7.671 -0.0122  0.0008 -0.2512
    5BDD    C2033669   1.139   6.373   7.633  0.2106  0.1599  0.8253
    5BDD    C2133670   1.162   6.343   7.485  0.0255  0.1513 -0.1774
    5BDD    C2233671   1.172   6.186   7.454 -0.9953 -0.1611  0.1874
    5BDD    C2333672   1.036   6.112   7.472 -0.6141 -0.4099  0.1331
    5BDD    C2433673   1.040   5.961   7.489 -0.3333 -0.4551  0.1919
    5BDD    C2533674   1.253   6.318   7.725 -0.0530  0.1381  0.2500
    5BDD    C2633675   1.395   6.376   7.714 -0.0521 -0.2061  0.7836
    6TPM     C133676   1.464   6.884   7.988  0.1740  0.1852  0.4452
    6TPM     C233677   1.526   7.001   8.020  0.3964  0.0838  0.3808
    6TPM     C333678   1.627   7.041   7.924  0.2521  0.0020  0.1940
    6TPM     C433679   1.640   6.954   7.820 -0.0804  0.0410  0.1160
    6TPM     S133680   1.527   6.815   7.835 -0.2382  0.1852  0.2734
    7BDTP    C133681   1.996   7.004   7.298 -0.2142  0.1825 -0.1197
    7BDTP    C233682   2.030   7.120   7.373 -0.1442  0.0775  0.0142
    7BDTP    C333683   1.974   7.149   7.497 -0.1540 -0.0117  0.0305
    7BDTP    C433684   1.880   7.059   7.549 -0.2368  0.0030 -0.0905
    7BDTP    C533685   1.846   6.942   7.475 -0.3068  0.1079 -0.2242
    7BDTP    C633686   1.903   6.913   7.351 -0.2969  0.1971 -0.2408
    7BDTP    C733687   1.809   7.067   7.675 -0.2626 -0.0773 -0.0995
    7BDTP    C833688   1.724   6.964   7.698 -0.3476 -0.0381 -0.2320
    7BDTP    S133689   1.723   6.841   7.564 -0.4068  0.1060 -0.3639
    7BDTP    C933690   2.068   6.995   7.173 -0.1884  0.2627 -0.1106
    7BDTP   C1033691   2.152   7.098   7.149 -0.1034  0.2235  0.0218
    7BDTP    S233692   2.153   7.221   7.284 -0.0441  0.0795  0.1537
    8FTM     S133693   2.059   7.298   7.727 -0.1076  0.0823 -0.6283
    8FTM     C133694   2.049   7.477   7.710 -0.2248  0.1011 -0.3715
    8FTM     C233695   2.001   7.509   7.586 -0.2667  0.2462 -0.3178
    8FTM     C333696   1.970   7.398   7.500 -0.2114  0.3489 -0.4699
    8FTM     C433697   1.995   7.278   7.559 -0.1245  0.2804 -0.6453
    8FTM     F133698   1.982   7.639   7.545 -0.3575  0.2947 -0.1283
    8FTM     C533699   2.099   7.566   7.818 -0.0732 -0.1261  0.4146
    8FTM     C633700   2.029   7.558   7.954  0.1142 -0.0769  0.3879
    8FTM     C733701   2.084   7.643   8.071  0.2616  0.0193  0.0275
    8FTM     C833702   2.227   7.605   8.103 -0.7703  0.0207  0.2613
    8FTM     C933703   2.287   7.676   8.223 -0.0714 -0.4109  0.4166
    8FTM    C1033704   2.246   7.620   8.354 -0.2631 -0.1965  0.0566
    8FTM    C1133705   1.876   7.565   7.953 -0.5318 -0.0402  0.2541
    8FTM    C1233706   1.802   7.695   7.920 -0.2476  0.4693 -0.2064
    9FTM     S133707   1.853   6.631   7.369 -0.4615 -0.0420  0.1499
    9FTM     C133708   1.810   6.548   7.216 -0.2586  0.0590  0.0372
    9FTM     C233709   1.814   6.636   7.112  0.0648  0.0851  0.0701
    9FTM     C333710   1.850   6.771   7.145  0.1718  0.0296  0.1820
    9FTM     C433711   1.874   6.786   7.279 -0.0777 -0.0416  0.2367
    9FTM     F133712   1.785   6.600   6.982  0.2830  0.1613  0.0005
    9FTM     C533713   1.788   6.406   7.213 -0.1136  0.7052 -0.2698
    9FTM     C633714   1.671   6.331   7.143 -0.4564 -0.7175 -0.2966
    9FTM     C733715   1.671   6.340   6.996 -0.5175  0.2245 -0.4293
    9FTM     C833716   1.788   6.282   6.917 -0.3341  0.1554 -0.0991
    9FTM     C933717   1.818   6.131   6.945 -0.4816 -0.1940 -0.0650
    9FTM    C1033718   1.926   6.084   6.845  0.1442  0.0747  0.1374
    9FTM    C1133719   1.536   6.357   7.214 -0.4958  0.2506 -0.1574
    9FTM    C1233720   1.425   6.260   7.182 -0.2211 -0.1538  0.1678
   10TPM     C133721   2.232   7.123   7.035 -0.1729  0.3767  0.4474
   10TPM     C233722   2.219   7.058   6.916 -1.1172  0.8309  0.2847
   10TPM     C333723   2.324   7.088   6.822 -1.5391  0.7414 -0.2236
   10TPM     C433724   2.417   7.176   6.870 -0.9165  0.2188 -0.4486
   10TPM     S133725   2.379   7.228   7.038  0.2600 -0.2040 -0.0325
   11BDD     C133726   2.601   7.442   6.647  0.0622 -0.0092 -0.2539
   11BDD     C233727   2.642   7.321   6.598  0.0735 -0.0294 -0.1945
   11BDD     C333728   2.587   7.208   6.671  0.0831  0.0012 -0.1401
   11BDD     C433729   2.506   7.244   6.775  0.0790  0.0444 -0.1585
   11BDD     S133730   2.492   7.423   6.788  0.0628  0.0496 -0.2455
   11BDD     C533731   2.733   7.305   6.483  0.0759 -0.0777 -0.1861
   11BDD     C633732   2.618   7.068   6.636  0.0961 -0.0135 -0.0715
   11BDD     O133733   2.571   6.970   6.699  0.1044  0.0129 -0.0244
   11BDD     O233734   2.780   7.402   6.420  0.0677 -0.1041 -0.2332
   11BDD     C733735   2.709   7.051   6.520  0.0985 -0.0616 -0.0627
   11BDD     C833736   2.763   7.164   6.447  0.0889 -0.0923 -0.1174
   11BDD     C933737   2.845   7.128   6.344  0.0930 -0.1354 -0.0989
   11BDD     S233738   2.859   6.950   6.330  0.1091 -0.1407 -0.0118
   11BDD    C1033739   2.749   6.930   6.471  0.1098 -0.0819 -0.0035
   11BDD    C1133740   2.712   6.784   6.500 -0.0501 -0.0436 -0.0050
   11BDD    C1233741   2.825   6.679   6.512  0.0467  0.1387 -0.6219
   11BDD    C1333742   2.790   6.524   6.514  0.3553 -0.1061 -0.4773
   11BDD    C1433743   2.709   6.477   6.398  0.9083  0.1596  1.0925
   11BDD    C1533744   2.691   6.327   6.386 -0.1732  0.4306 -0.1624
   11BDD    C1633745   2.631   6.283   6.258 -0.3180 -0.6864 -0.1102
   11BDD    C1733746   2.934   6.722   6.605 -0.2929 -0.4314 -0.5475
   11BDD    C1833747   3.077   6.660   6.585  0.2871 -0.1313  0.3214
   11BDD    C1933748   2.929   7.220   6.249  0.3620  0.1323 -0.2163
   11BDD    C2033749   2.860   7.262   6.111 -0.3957 -0.0701 -0.6547
   11BDD    C2133750   2.943   7.359   6.032  0.7119 -0.0841  0.5406
   11BDD    C2233751   2.874   7.421   5.909  0.2755 -0.1235  0.2735
   11BDD    C2333752   2.752   7.510   5.935  0.4528 -0.3120  0.7740
   11BDD    C2433753   2.678   7.572   5.809 -0.1859  0.3095  0.2149
   11BDD    C2533754   2.798   7.142   6.037 -0.7017  0.1093 -0.0131
   11BDD    C2633755   2.898   7.045   5.966  0.1077  0.0802  0.2367
   12TPM     C133756   2.642   7.581   6.632 -0.2228 -0.1891  0.0963
   12TPM     C233757   2.638   7.641   6.510 -0.4936 -0.2459  0.0751
   12TPM     C333758   2.639   7.784   6.515 -0.5592 -0.2427  0.0086
   12TPM     C433759   2.644   7.834   6.642 -0.3383 -0.1837 -0.0212
   12TPM     S133760   2.647   7.702   6.765 -0.0280 -0.1271  0.0332
   13BDTP    C133761   2.606   8.395   6.926 -0.2993  0.0818  0.0328
   13BDTP    C233762   2.711   8.416   6.831 -0.2787 -0.0024  0.0366
   13BDTP    C333763   2.753   8.318   6.743 -0.2616 -0.0796  0.1301
   13BDTP    C433764   2.690   8.193   6.747 -0.2652 -0.0749  0.2242
   13BDTP    C533765   2.585   8.171   6.842 -0.2860  0.0091  0.2205
   13BDTP    C633766   2.543   8.269   6.930 -0.3029  0.0866  0.1270
   13BDTP    C733767   2.716   8.076   6.666 -0.2501 -0.1455  0.3305
   13BDTP    C833768   2.638   7.969   6.694 -0.2584 -0.1198  0.4057
   13BDTP    S133769   2.519   8.002   6.828 -0.2865 -0.0019  0.3525
   13BDTP    C933770   2.579   8.511   7.007 -0.3144  0.1526 -0.0733
   13BDTP   C1033771   2.658   8.618   6.979 -0.3061  0.1268 -0.1484
   13BDTP    S233772   2.777   8.586   6.845 -0.2780  0.0088 -0.0953
   14FTM     S133773   2.826   8.323   6.461  0.0143  0.4267  0.0198
   14FTM     C133774   2.992   8.381   6.422  0.1236  0.0961 -0.0110
   14FTM     C233775   3.060   8.412   6.536  0.3943 -0.5429  0.0073
   14FTM     C333776   2.988   8.392   6.658  0.5297 -0.8085  0.0457
   14FTM     C433777   2.862   8.345   6.637  0.3573 -0.3577  0.0569
   14FTM     F133778   3.190   8.459   6.536  0.5352 -0.9260 -0.0095
   14FTM     C533779   3.056   8.367   6.287 -0.1137 -0.2710  0.2673
   14FTM     C633780   3.134   8.238   6.253 -0.1456 -0.1259  0.5966
   14FTM     C733781   3.064   8.105   6.275  0.2387  1.0036 -0.0171
   14FTM     C833782   2.939   8.072   6.201  0.7583 -0.2016 -0.2455
   14FTM     C933783   2.920   7.918   6.219  0.1563  0.2627 -0.1299
   14FTM    C1033784   2.803   7.882   6.131 -0.2443 -0.3668 -0.2066
   14FTM    C1133785   3.286   8.236   6.272  0.1236  0.0347  0.7310
   14FTM    C1233786   3.365   8.120   6.218  0.3225  0.0893  0.2510
   15FTM     S133787   2.262   8.189   6.948  0.1661  0.0688 -0.1485
   15FTM     C133788   2.189   8.191   7.112 -0.2285  0.3283 -0.3236
   15FTM     C233789   2.282   8.229   7.204 -0.3967  0.2978 -0.1388
   15FTM     C333790   2.413   8.259   7.153 -0.2329  0.0763  0.1436
   15FTM     C433791   2.420   8.243   7.018  0.0706 -0.0678  0.1758
   15FTM     F133792   2.254   8.240   7.339 -0.7091  0.4692 -0.2140
   15FTM     C533793   2.045   8.147   7.145  0.3532  0.3552  0.2532
   15FTM     C633794   2.004   7.998   7.134  0.8551 -1.2216  0.0412
   15FTM     C733795   1.990   7.931   6.996  0.2209  0.2559 -0.5161
   15FTM     C833796   1.879   7.981   6.908  0.2348 -0.7343  0.0895
   15FTM     C933797   1.878   7.888   6.792  0.2474 -0.5578 -0.2844
   15FTM    C1033798   1.769   7.930   6.693  0.1793  0.5143  0.0416
   15FTM    C1133799   2.059   7.896   7.228  0.4161  0.1438 -0.2883
   15FTM    C1233800   2.058   7.932   7.383 -0.2730 -0.4049  0.2318
   16TPM     C133801   2.659   8.740   7.059  0.3260  0.2186 -0.0501
   16TPM     C233802   2.722   8.858   7.033  0.1891  0.3650  0.2749
   16TPM     C333803   2.709   8.954   7.139 -0.0684  0.1211  0.4703
   16TPM     C433804   2.636   8.910   7.245 -0.1278 -0.2113  0.2942
   16TPM     S133805   2.578   8.742   7.220  0.1388 -0.2425 -0.1355
   17BDD     C133806   2.611   9.193   7.511  0.0066 -0.1991  0.0056
   17BDD     C233807   2.685   9.093   7.569  0.0485 -0.1521  0.0337
   17BDD     C333808   2.699   8.976   7.484  0.2856 -0.0830 -0.0231
   17BDD     C433809   2.636   8.988   7.363  0.4212 -0.0786 -0.0941
   17BDD     S133810   2.554   9.147   7.347  0.2613 -0.1602 -0.0944
   17BDD     C533811   2.745   9.102   7.703 -0.1281 -0.1688  0.1143
   17BDD     C633812   2.775   8.856   7.526  0.3692 -0.0241 -0.0050
   17BDD     O133813   2.787   8.755   7.453  0.5737  0.0353 -0.0540
   17BDD     O233814   2.733   9.202   7.776 -0.3327 -0.2284  0.1633
   17BDD     C733815   2.835   8.865   7.660  0.1926 -0.0405  0.0753
   17BDD     C833816   2.821   8.982   7.745 -0.0446 -0.1094  0.1323
   17BDD     C933817   2.884   8.969   7.866 -0.1801 -0.1142  0.2031
   17BDD     S233818   2.966   8.810   7.882 -0.0202 -0.0327  0.2035
   17BDD    C1033819   2.909   8.765   7.718  0.2345  0.0064  0.1037
   17BDD    C1133820   2.942   8.626   7.664  0.0974  0.0737  0.2306
   17BDD    C1233821   2.995   8.516   7.759 -0.2942 -0.7462 -0.3368
   17BDD    C1333822   2.905   8.465   7.878 -0.7351  0.0187 -0.3821
   17BDD    C1433823   2.771   8.401   7.842 -0.0935 -0.3350  0.1876
   17BDD    C1533824   2.669   8.382   7.962 -0.4676  0.0967  0.2203
   17BDD    C1633825   2.532   8.357   7.901  0.4575 -0.0374  0.0084
   17BDD    C1733826   3.151   8.506   7.798 -0.4025 -0.3206 -0.1838
   17BDD    C1833827   3.255   8.527   7.689 -0.0977  0.0559  0.4416
   17BDD    C1933828   2.911   9.056   7.986 -0.4031  0.5078 -0.0064
   17BDD    C2033829   2.831   9.026   8.111  0.3048  0.8785  0.5684
   17BDD    C2133830   2.683   8.980   8.097  0.0712  0.4781  0.3837
   17BDD    C2233831   2.581   9.069   8.033  0.3946  0.4152 -0.0775
   17BDD    C2333832   2.458   8.999   7.986  0.0162 -0.2272 -0.3957
   17BDD    C2433833   2.346   9.084   7.917  0.4490  0.1444  0.0391
   17BDD    C2533834   2.848   9.109   8.237  0.3789  0.1751 -0.0141
   17BDD    C2633835   2.991   9.116   8.303 -0.1726  0.7483 -0.0406
   18TPM     C133836   2.579   9.331   7.543 -0.4514 -0.2316 -0.0818
   18TPM     C233837   2.681   9.415   7.580 -0.3479 -0.3722 -0.0449
   18TPM     C333838   2.649   9.555   7.565 -0.1737 -0.3262  0.0106
   18TPM     C433839   2.523   9.577   7.517 -0.1444 -0.1500  0.0164
   18TPM     S133840   2.435   9.423   7.486 -0.3360 -0.0282 -0.0488
   19BDTP    C133841   2.230  10.131   7.474  0.1395  0.2562 -0.1585
   19BDTP    C233842   2.125  10.042   7.512  0.1557  0.2804 -0.0563
   19BDTP    C333843   2.144   9.906   7.527  0.1714  0.2958  0.0613
   19BDTP    C433844   2.273   9.854   7.505  0.1709  0.2869  0.0790
   19BDTP    C533845   2.378   9.942   7.467  0.1546  0.2628 -0.0232
   19BDTP    C633846   2.359  10.079   7.451  0.1390  0.2474 -0.1409
   19BDTP    C733847   2.316   9.716   7.514  0.1854  0.2995  0.1921
   19BDTP    C833848   2.447   9.697   7.486  0.1808  0.2861  0.1798
   19BDTP    S133849   2.534   9.851   7.443  0.1575  0.2557  0.0231
   19BDTP    C933850   2.187  10.269   7.464  0.1250  0.2437 -0.2718
   19BDTP   C1033851   2.056  10.288   7.492  0.1296  0.2571 -0.2595
   19BDTP    S233852   1.969  10.134   7.535  0.1529  0.2875 -0.1028
   20FTM     S133853   1.983   9.670   7.475  0.1078 -0.1489 -0.1045
   20FTM     C133854   1.869   9.627   7.608  0.1946 -0.1897 -0.0433
   20FTM     C233855   1.870   9.725   7.703 -0.0879  0.0045 -0.2381
   20FTM     C333856   1.957   9.836   7.678 -0.3820  0.1923 -0.4419
   20FTM     C433857   2.025   9.823   7.561 -0.3228  0.1402 -0.4020
   20FTM     F133858   1.792   9.719   7.817 -0.0969  0.0237 -0.2433
   20FTM     C533859   1.806   9.492   7.619  0.1352  0.1065  0.3058
   20FTM     C633860   1.894   9.368   7.658  0.6824 -0.4499  0.2127
   20FTM     C733861   1.945   9.364   7.807  0.5121  0.2419  0.6633
   20FTM     C833862   1.846   9.369   7.921 -0.4499 -0.2589 -0.0067
   20FTM     C933863   1.731   9.266   7.936 -0.6639  0.6968 -0.2891
   20FTM    C1033864   1.675   9.258   8.076  0.4558  0.4888  0.3167
   20FTM    C1133865   1.996   9.330   7.547 -0.0974 -0.5576 -0.5209
   20FTM    C1233866   2.087   9.213   7.578  0.0086 -0.2734  0.1222
   21FTM     S133867   2.616  10.167   7.538 -0.1821  0.0571 -0.0315
   21FTM     C133868   2.715  10.261   7.420 -0.2828  0.1144 -0.0701
   21FTM     C233869   2.643  10.282   7.306 -0.2632 -0.1124 -0.1255
   21FTM     C333870   2.510  10.228   7.304 -0.1709 -0.3391 -0.1409
   21FTM     C433871   2.480  10.163   7.419 -0.1182 -0.2841 -0.0958
   21FTM     F133872   2.693  10.352   7.197 -0.3276 -0.1281 -0.1655
   21FTM     C533873   2.852  10.314   7.461  0.0757  0.0011  0.1963
   21FTM     C633874   2.973  10.275   7.368 -0.0736 -0.1580 -0.6386
   21FTM     C733875   2.990  10.121   7.334 -0.4992 -0.2991  0.1840
   21FTM     C833876   2.970  10.019   7.452 -0.3441 -0.2523 -0.3270
   21FTM     C933877   2.978   9.880   7.394 -0.0221  0.2921 -0.1566
   21FTM    C1033878   2.963   9.768   7.499  0.1433 -0.2772 -0.6763
   21FTM    C1133879   3.101  10.348   7.421 -0.1675 -0.2841 -0.0190
   21FTM    C1233880   3.168  10.317   7.553 -0.5121  0.3316 -0.4637
   22TPM     C133881   1.983  10.414   7.501  0.3091  0.3004 -0.0010
   22TPM     C233882   1.848  10.435   7.504  0.2303 -0.1666 -0.0674
   22TPM     C333883   1.811  10.574   7.500 -0.2534 -0.2927 -0.1377
   22TPM     C433884   1.918  10.659   7.494 -0.5435  0.0782 -0.1248
   22TPM     S133885   2.074  10.569   7.493 -0.2257  0.6196 -0.0221
   23BDD     C133886   1.785  11.024   7.468 -0.1042  0.1167  0.0621
   23BDD     C233887   1.904  11.033   7.534 -0.0985  0.0912  0.0554
   23BDD     C333888   1.969  10.905   7.555 -0.2186  0.0580  0.2254
   23BDD     C433889   1.898  10.800   7.505 -0.3141  0.0587  0.3592
   23BDD     S133890   1.745  10.853   7.428 -0.2604  0.1010  0.2816
   23BDD     C533891   1.963  11.161   7.579  0.0176  0.0964 -0.1074
   23BDD     C633892   2.099  10.892   7.624 -0.2341  0.0268  0.2489
   23BDD     O133893   2.155  10.782   7.642 -0.3376 -0.0019  0.3955
   23BDD     O233894   1.907  11.272   7.561  0.1211  0.1250 -0.2539
   23BDD     C733895   2.158  11.020   7.670 -0.1181  0.0320  0.0861
   23BDD     C833896   2.093  11.148   7.648  0.0020  0.0652 -0.0838
   23BDD     C933897   2.164  11.254   7.698  0.0976  0.0646 -0.2176
   23BDD     S233898   2.317  11.200   7.775  0.0438  0.0223 -0.1400
   23BDD    C1033899   2.278  11.030   7.735 -0.1123  0.0065  0.0795
   23BDD    C1133900   2.370  10.920   7.793 -1.1837 -0.9917  0.0195
   23BDD    C1233901   2.529  10.938   7.781  0.6060  0.3848  0.3074
   23BDD    C1333902   2.588  10.802   7.837 -0.3380  0.2162 -0.0462
   23BDD    C1433903   2.736  10.791   7.796 -0.4567  0.8084 -0.4176
   23BDD    C1533904   2.796  10.651   7.813  0.5373  0.1121 -0.1779
   23BDD    C1633905   2.839  10.608   7.956  0.3308 -0.0908  0.2119
   23BDD    C1733906   2.603  11.068   7.819  0.0054  0.4365 -0.7072
   23BDD    C1833907   2.621  11.080   7.968  0.1064 -0.1541 -0.1107
   23BDD    C1933908   2.141  11.405   7.705 -0.4226  0.2860  0.1016
   23BDD    C2033909   2.172  11.477   7.568 -0.0082  0.2449  0.0580
   23BDD    C2133910   2.111  11.621   7.581 -0.6363  0.3163  0.0690
   23BDD    C2233911   2.121  11.697   7.448 -0.1565 -0.3050 -0.2803
   23BDD    C2333912   2.064  11.657   7.314 -0.5188  0.5168 -0.0798
   23BDD    C2433913   1.917  11.614   7.313  0.4124  0.1948  0.1653
   23BDD    C2533914   2.311  11.454   7.515  0.5727  0.6591 -0.5824
   23BDD    C2633915   2.435  11.512   7.595 -0.5307 -0.1921  0.0161
   24TPM     C133916   1.676  11.110   7.421  0.1553  0.0224 -0.5320
   24TPM     C233917   1.698  11.240   7.386  0.1326 -0.0381 -0.7750
   24TPM     C333918   1.588  11.299   7.314 -0.0913 -0.0395 -0.4399
   24TPM     C433919   1.483  11.215   7.294 -0.2392  0.0202  0.0585
   24TPM     S133920   1.515  11.052   7.365 -0.1062  0.0830  0.1441
   25BDTP    C133921   1.002  11.316   6.905  0.1560  0.0888  0.1283
   25BDTP    C233922   0.959  11.203   6.979  0.1812  0.1440  0.2283
   25BDTP    C333923   1.034  11.146   7.081  0.2031  0.2378  0.2639
   25BDTP    C433924   1.158  11.205   7.112  0.2002  0.2791  0.1981
   25BDTP    C533925   1.202  11.319   7.038  0.1750  0.2239  0.0979
   25BDTP    C633926   1.126  11.375   6.936  0.1531  0.1302  0.0621
   25BDTP    C733927   1.253  11.164   7.214  0.2200  0.3748  0.2180
   25BDTP    C833928   1.365  11.241   7.219  0.2110  0.3938  0.1389
   25BDTP    S133929   1.365  11.375   7.097  0.1762  0.2933  0.0278
   25BDTP    C933930   0.907  11.357   6.804  0.1362 -0.0068  0.1081
   25BDTP   C1033931   0.796  11.280   6.798  0.1452 -0.0258  0.1873
   25BDTP    S233932   0.795  11.146   6.920  0.1800  0.0747  0.2983
   26FTM     S133933   0.877  11.011   7.283 -0.1166  0.3557 -0.1395
   26FTM     C133934   0.880  10.831   7.273 -0.0939  0.3171  0.4774
   26FTM     C233935   0.959  10.792   7.170  0.2700 -0.0425  0.8823
   26FTM     C333936   1.021  10.896   7.094  0.5466 -0.3036  0.7406
   26FTM     C433937   0.988  11.020   7.141  0.3894 -0.1386  0.2104
   26FTM     F133938   0.981  10.658   7.137  0.3742 -0.1566  1.4049
   26FTM     C533939   0.810  10.749   7.380  0.3941 -0.3265 -0.0393
   26FTM     C633940   0.667  10.697   7.356 -0.1028 -0.2566 -0.2597
   26FTM     C733941   0.661  10.567   7.279  0.3416 -0.1021  0.6159
   26FTM     C833942   0.647  10.431   7.356 -0.2678 -0.4059 -0.1943
   26FTM     C933943   0.510  10.414   7.413 -0.3681 -0.8058  0.2709
   26FTM    C1033944   0.506  10.298   7.506  0.2174 -0.0422  0.0617
   26FTM    C1133945   0.564  10.800   7.310 -0.8252 -0.0431  0.4297
   26FTM    C1233946   0.530  10.896   7.423  0.4822 -0.0863  0.3769
   27FTM     S133947   1.098  11.626   6.801 -0.2011 -0.2155 -0.0891
   27FTM     C133948   1.247  11.694   6.728 -0.2654 -0.0814 -0.0952
   27FTM     C233949   1.350  11.607   6.743 -0.0910  0.1778  0.2521
   27FTM     C333950   1.320  11.484   6.810  0.0988  0.2854  0.5376
   27FTM     C433951   1.190  11.477   6.848  0.0686  0.1027  0.4043
   27FTM     F133952   1.478  11.633   6.696 -0.0927  0.3330  0.3324
   27FTM     C533953   1.244  11.827   6.666  0.8152  0.1172 -0.4827
   27FTM     C633954   1.269  11.839   6.519 -0.2609  0.3816  0.8506
   27FTM     C733955   1.191  11.743   6.426  0.2442  0.2710  0.2536
   27FTM     C833956   1.037  11.729   6.443  0.4458  0.2436 -0.4194
   27FTM     C933957   0.979  11.629   6.346  0.8144 -0.1374  0.0498
   27FTM    C1033958   0.828  11.604   6.380  0.4242 -0.0226  0.0112
   27FTM    C1133959   1.291  11.976   6.457 -0.0018  0.2575 -0.1615
   27FTM    C1233960   1.172  12.072   6.457 -0.0455 -0.2859  0.2424
   28TPM     C133961   0.681  11.283   6.709  0.0928  0.1039  0.4597
   28TPM     C233962   0.670  11.336   6.584  0.2011  0.1503  0.4696
   28TPM     C333963   0.536  11.336   6.533  0.2877 -0.0785  0.2429
   28TPM     C433964   0.445  11.282   6.618  0.2455 -0.2994  0.0603
   28TPM     S133965   0.522  11.227   6.772  0.0918 -0.2350  0.1611
   29BDD     C133966   0.083  11.126   6.563 -0.0695  0.0261  0.0505
   29BDD     C233967   0.074  11.255   6.520 -0.0093  0.0221  0.0254
   29BDD     C333968   0.199  11.328   6.530  0.0255 -0.0355  0.0073
   29BDD     C433969   0.302  11.253   6.579 -0.0086 -0.0745  0.0190
   29BDD     S133970   0.249  11.086   6.618 -0.0866 -0.0419  0.0538
   29BDD     C533971  -0.050  11.317   6.470  0.0184  0.0711  0.0167
   29BDD     C633972   0.212  11.469   6.489  0.0914 -0.0497 -0.0211
   29BDD     O133973   0.320  11.532   6.496  0.1215 -0.0993 -0.0367
   29BDD     O233974  -0.158  11.254   6.462 -0.0117  0.1208  0.0323
   29BDD     C733975   0.088  11.531   6.438  0.1190 -0.0007 -0.0296
   29BDD     C833976  -0.037  11.458   6.429  0.0842  0.0569 -0.0116
   29BDD     C933977  -0.140  11.533   6.379  0.1183  0.0959 -0.0232
   29BDD     S233978  -0.087  11.700   6.340  0.1965  0.0633 -0.0579
   29BDD    C1033979   0.079  11.660   6.395  0.1792 -0.0048 -0.0548
   29BDD    C1133980   0.177  11.778   6.381 -0.2336 -0.0154 -0.1106
   29BDD    C1233981   0.237  11.807   6.236 -0.4823  0.7278  0.2972
   29BDD    C1333982   0.307  11.687   6.179 -0.1065  0.4443  0.6530
   29BDD    C1433983   0.269  11.647   6.036  0.7647  0.3590 -0.2649
   29BDD    C1533984   0.133  11.582   6.016  0.6588 -0.2514  0.3019
   29BDD    C1633985   0.127  11.434   6.058 -0.1191 -0.2990  0.1200
   29BDD    C1733986   0.336  11.926   6.246  0.6265 -1.1110 -0.6358
   29BDD    C1833987   0.277  12.065   6.263  0.4136 -0.7135 -0.0332
   29BDD    C1933988  -0.284  11.512   6.341 -0.3544 -0.1541 -0.3494
   29BDD    C2033989  -0.308  11.474   6.193 -0.6162 -0.0673 -0.7520
   29BDD    C2133990  -0.241  11.347   6.137  0.5625  0.1042 -0.5401
   29BDD    C2233991  -0.287  11.206   6.185  0.2247 -0.0315 -0.3590
   29BDD    C2333992  -0.220  11.107   6.093 -0.2647 -0.0984  0.1170
   29BDD    C2433993  -0.281  10.966   6.112  0.0302 -0.1545  0.2609
   29BDD    C2533994  -0.458  11.499   6.174 -0.2403  0.4510 -0.0344
   29BDD    C2633995  -0.518  11.497   6.034 -0.9007 -0.8770  0.0854
   30TPM     C133996  -0.013  11.022   6.603 -0.6141  0.4959  0.5918
   30TPM     C233997  -0.123  10.988   6.530 -0.8292  0.6180  0.8584
   30TPM     C333998  -0.194  10.874   6.583 -0.4191  0.2496  0.6306
   30TPM     C433999  -0.138  10.821   6.695  0.1089 -0.1533  0.1902
   30TPM     S134000   0.010  10.912   6.744  0.1294 -0.0984  0.0277
   31BDTP    C134001  -0.312  10.271   6.945  0.1850 -0.1561 -0.0839
   31BDTP    C234002  -0.281  10.347   7.062  0.1864 -0.2627 -0.0141
   31BDTP    C334003  -0.238  10.479   7.056  0.2110 -0.2651  0.1050
   31BDTP    C434004  -0.225  10.539   6.929  0.2360 -0.1575  0.1582
   31BDTP    C534005  -0.256  10.462   6.813  0.2348 -0.0510  0.0882
   31BDTP    C634006  -0.298  10.330   6.819  0.2097 -0.0486 -0.0308
   31BDTP    C734007  -0.183  10.674   6.898  0.2642 -0.1380  0.2797
   31BDTP    C834008  -0.180  10.702   6.766  0.2840 -0.0236  0.3045
   31BDTP    S134009  -0.231  10.562   6.662  0.2692  0.0757  0.1769
   31BDTP    C934010  -0.354  10.136   6.976  0.1566 -0.1756 -0.2056
   31BDTP   C1034011  -0.357  10.107   7.109  0.1373 -0.2901 -0.2303
   31BDTP    S234012  -0.306  10.247   7.213  0.1517 -0.3894 -0.1028
   32FTM     S134013  -0.334  10.540   7.321  0.0919  0.0645  0.2698
   32FTM     C134014  -0.235  10.655   7.419  0.3525 -0.2225  0.3460
   32FTM     C234015  -0.133  10.703   7.344  0.3953 -0.3168  0.3431
   32FTM     C334016  -0.125  10.656   7.209  0.2322 -0.1750  0.2830
   32FTM     C434017  -0.225  10.567   7.180  0.0583  0.0347  0.2385
   32FTM     F134018  -0.040  10.794   7.393  0.5851 -0.5371  0.3946
   32FTM     C534019  -0.273  10.689   7.559  0.3238  0.6278  0.2221
   32FTM     C634020  -0.367  10.803   7.600 -0.0132  0.0324  0.8998
   32FTM     C734021  -0.395  10.810   7.754  1.1411 -0.6333 -0.3670
   32FTM     C834022  -0.276  10.864   7.834 -0.8640 -0.0092 -0.0756
   32FTM     C934023  -0.294  10.828   7.980 -0.3122 -0.4548  0.3300
   32FTM    C1034024  -0.179  10.884   8.066  0.7346  0.0298  0.3399
   32FTM    C1134025  -0.497  10.820   7.519 -0.0773 -0.1666 -0.4100
   32FTM    C1234026  -0.573  10.956   7.521 -0.1878  0.4286  0.1696
   33FTM     S134027  -0.491  10.181   6.655 -0.0349 -0.0510 -0.2545
   33FTM     C134028  -0.433  10.125   6.494 -0.1029 -0.2164 -0.2221
   33FTM     C234029  -0.303  10.163   6.476 -0.0992 -0.2667 -0.3004
   33FTM     C334030  -0.243  10.236   6.583 -0.0446 -0.1818 -0.3883
   33FTM     C434031  -0.329  10.255   6.687 -0.0050 -0.0626 -0.3769
   33FTM     F134032  -0.232  10.134   6.360 -0.1457 -0.3926 -0.2973
   33FTM     C534033  -0.514  10.032   6.410 -0.4916 -0.3411  0.5551
   33FTM     C634034  -0.495  10.015   6.256  0.0989 -0.3523 -0.1413
   33FTM     C734035  -0.510  10.143   6.169  0.8045  0.3286 -0.9203
   33FTM     C834036  -0.640  10.225   6.163  0.0278 -0.2176 -0.4151
   33FTM     C934037  -0.648  10.331   6.056  0.2997 -0.2527  0.0898
   33FTM    C1034038  -0.625  10.290   5.908 -0.2962 -0.1742  0.2982
   33FTM    C1134039  -0.560   9.889   6.192  0.7639  0.5763 -0.0783
   33FTM    C1234040  -0.510   9.749   6.238 -0.1925 -0.4747  0.5267
   34TPM     C134041  -0.380   9.976   7.167  0.1363  0.0329 -0.0132
   34TPM     C234042  -0.417   9.940   7.293 -0.2990  0.1836 -0.0950
   34TPM     C334043  -0.451   9.801   7.307 -0.4807  0.2288 -0.0731
   34TPM     C434044  -0.439   9.730   7.191 -0.1838  0.1124  0.0256
   34TPM     S134045  -0.384   9.835   7.054  0.3520 -0.0645  0.0990
   35BDD     C134046  -0.640   9.412   7.083  0.1590  0.0755 -0.0325
   35BDD     C234047  -0.587   9.379   7.205  0.0975  0.1009  0.0015
   35BDD     C334048  -0.501   9.483   7.259  0.1135  0.0896 -0.0025
   35BDD     C434049  -0.491   9.593   7.179  0.1868  0.0556 -0.0396
   35BDD     S134050  -0.588   9.574   7.029  0.2413  0.0355 -0.0720
   35BDD     C534051  -0.612   9.252   7.275  0.0215  0.1359  0.0390
   35BDD     C634052  -0.433   9.470   7.390  0.0553  0.1128  0.0305
   35BDD     O134053  -0.359   9.560   7.437  0.0691  0.1035  0.0269
   35BDD     O234054  -0.685   9.162   7.228  0.0074  0.1454  0.0424
   35BDD     C734055  -0.458   9.342   7.460 -0.0205  0.1483  0.0681
   35BDD     C834056  -0.543   9.238   7.405 -0.0365  0.1595  0.0720
   35BDD     C934057  -0.553   9.129   7.486 -0.1099  0.1931  0.1090
   35BDD     S234058  -0.457   9.148   7.636 -0.1644  0.2133  0.1414
   35BDD    C1034059  -0.404   9.310   7.582 -0.0818  0.1738  0.1019
   35BDD    C1134060  -0.319   9.385   7.676 -0.7307  0.1056  0.2635
   35BDD    C1234061  -0.373   9.396   7.819 -0.0437 -0.1098 -0.3969
   35BDD    C1334062  -0.513   9.460   7.822  0.4235 -0.5603  0.3868
   35BDD    C1434063  -0.523   9.612   7.787  0.4656  0.2570 -0.3234
   35BDD    C1534064  -0.633   9.698   7.851  0.1549  0.5009  0.1482
   35BDD    C1634065  -0.588   9.843   7.882  0.0942  0.4715 -0.0204
   35BDD    C1734066  -0.275   9.454   7.926  0.2151 -0.2418  0.1797
   35BDD    C1834067  -0.133   9.389   7.936  0.9187  0.6509 -0.0597
   35BDD    C1934068  -0.639   8.999   7.478 -0.0390 -0.5314  0.1047
   35BDD    C2034069  -0.561   8.866   7.480  0.1789 -0.4674  0.2855
   35BDD    C2134070  -0.432   8.867   7.398 -0.0506  0.5404 -1.0768
   35BDD    C2234071  -0.327   8.750   7.413 -0.0404  0.0336 -0.4676
   35BDD    C2334072  -0.263   8.718   7.547  0.1569  0.3741  0.1619
   35BDD    C2434073  -0.186   8.833   7.612 -0.3513 -0.1744  0.0217
   35BDD    C2534074  -0.648   8.741   7.461  0.1707  0.0971  0.2176
   35BDD    C2634075  -0.755   8.706   7.563  0.5892 -0.2102  0.5080
   36TPM     C134076  -0.733   9.353   6.984  0.1190 -0.0897 -0.0042
   36TPM     C234077  -0.736   9.222   6.945  0.4675 -0.0372 -0.2131
   36TPM     C334078  -0.815   9.199   6.828  0.3357 -0.0961 -0.1125
   36TPM     C434079  -0.873   9.311   6.777 -0.1135 -0.1936  0.1731
   36TPM     S134080  -0.831   9.457   6.875 -0.4069 -0.2187  0.3384
   37BDTP    C134081  -1.204   9.411   6.248  0.2613 -0.0861 -0.0885
   37BDTP    C234082  -1.217   9.270   6.268  0.0868 -0.0613 -0.0265
   37BDTP    C334083  -1.160   9.204   6.375  0.0384 -0.0916 -0.0194
   37BDTP    C434084  -1.086   9.279   6.468  0.1686 -0.1485 -0.0761
   37BDTP    C534085  -1.073   9.420   6.448  0.3431 -0.1733 -0.1382
   37BDTP    C634086  -1.130   9.486   6.341  0.3910 -0.1436 -0.1451
   37BDTP    C734087  -1.018   9.232   6.587  0.1500 -0.1881 -0.0809
   37BDTP    C834088  -0.955   9.330   6.657  0.3004 -0.2408 -0.1427
   37BDTP    S134089  -0.973   9.494   6.582  0.4864 -0.2477 -0.2036
   37BDTP    C934090  -1.272   9.458   6.129  0.2797 -0.0467 -0.0836
   37BDTP   C1034091  -1.335   9.361   6.059  0.1297  0.0062 -0.0217
   37BDTP    S234092  -1.317   9.196   6.134 -0.0569  0.0128  0.0391
   38FTM     S134093  -1.060   8.951   6.284 -0.0321 -0.2880  0.1657
   38FTM     C134094  -1.129   8.804   6.364 -0.1060 -0.3359  0.0149
   38FTM     C234095  -1.220   8.841   6.458 -0.0832 -0.3865  0.0572
   38FTM     C334096  -1.241   8.982   6.473 -0.0086 -0.3910  0.2056
   38FTM     C434097  -1.164   9.055   6.388  0.0269 -0.3423  0.2797
   38FTM     F134098  -1.289   8.750   6.536 -0.1285 -0.4313 -0.0360
   38FTM     C534099  -1.088   8.664   6.323 -0.8108  0.1237 -0.2136
   38FTM     C634100  -0.937   8.622   6.323 -0.3183  0.7048  0.3082
   38FTM     C734101  -0.872   8.598   6.460 -0.9644  0.3386 -0.1172
   38FTM     C834102  -0.848   8.728   6.542 -0.5227  0.2426  0.0474
   38FTM     C934103  -0.731   8.809   6.478 -0.1587 -0.8068  0.0733
   38FTM    C1034104  -0.697   8.919   6.577 -0.1035 -0.1326 -0.1146
   38FTM    C1134105  -0.881   8.498   6.236 -0.2899  0.1750 -0.1174
   38FTM    C1234106  -0.891   8.524   6.091 -0.1111 -0.3815 -0.1638
   39FTM     S134107  -1.235   9.750   6.286  0.1769 -0.0217 -0.0154
   39FTM     C134108  -1.112   9.881   6.274  0.2369 -0.1081 -0.3532
   39FTM     C234109  -0.988   9.830   6.296  0.2580 -0.1869 -0.6485
   39FTM     C334110  -0.981   9.689   6.323  0.2294 -0.1851 -0.6312
   39FTM     C434111  -1.104   9.630   6.322  0.1851 -0.1020 -0.3117
   39FTM     F134112  -0.873   9.908   6.293  0.3045 -0.2655 -0.9527
   39FTM     C534113  -1.146  10.022   6.251 -0.4975  0.7432 -0.1314
   39FTM     C634114  -1.263  10.062   6.162 -0.0314  0.0831 -0.0074
   39FTM     C734115  -1.252  10.062   6.004  0.0009  0.4070 -0.4823
   39FTM     C834116  -1.155  10.160   5.948 -0.0094  0.2634  0.2066
   39FTM     C934117  -1.164  10.166   5.799 -0.2645 -0.4199  0.5423
   39FTM    C1034118  -1.068  10.276   5.743  0.2851 -0.0743 -0.5347
   39FTM    C1134119  -1.398  10.041   6.207  1.1251  0.3430  0.3044
   39FTM    C1234120  -1.450  10.080   6.343  0.2848  0.4533  0.0266
   40TPM     C134121  -1.399   9.374   5.930  0.3852 -0.0225 -0.1188
   40TPM     C234122  -1.459   9.271   5.865  0.7062 -0.0896 -0.3183
   40TPM     C334123  -1.532   9.310   5.747  0.6137 -0.0939 -0.2625
   40TPM     C434124  -1.527   9.444   5.722  0.2219 -0.0301 -0.0204
   40TPM     S134125  -1.429   9.531   5.846 -0.0627  0.0410  0.1572
   41BDD     C134126  -1.553   9.673   5.408 -0.2123  0.2396  0.0754
   41BDD     C234127  -1.635   9.568   5.377 -0.1451  0.1836  0.0889
   41BDD     C334128  -1.645   9.469   5.483 -0.0883  0.1948  0.1047
   41BDD     C434129  -1.570   9.500   5.593 -0.1132  0.2596  0.1032
   41BDD     S134130  -1.483   9.656   5.572 -0.2089  0.3102  0.0817
   41BDD     C534131  -1.707   9.554   5.249 -0.1304  0.1178  0.0876
   41BDD     C634132  -1.727   9.347   5.471 -0.0119  0.1411  0.1209
   41BDD     O134133  -1.735   9.262   5.562  0.0370  0.1512  0.1345
   41BDD     O234134  -1.698   9.639   5.157 -0.1793  0.1082  0.0740
   41BDD     C734135  -1.799   9.333   5.342  0.0029  0.0756  0.1197
   41BDD     C834136  -1.789   9.432   5.236 -0.0536  0.0644  0.1038
   41BDD     C934137  -1.863   9.400   5.126 -0.0288  0.0000  0.1056
   41BDD     S234138  -1.950   9.245   5.147  0.0670 -0.0508  0.1271
   41BDD    C1034139  -1.880   9.228   5.311  0.0701  0.0196  0.1333
   41BDD    C1134140  -1.914   9.091   5.369  0.3922 -0.4072 -0.5200
   41BDD    C1234141  -1.828   8.977   5.331  0.2874  0.6572  0.3286
   41BDD    C1334142  -1.676   8.988   5.380 -0.1059  0.5379  0.7277
   41BDD    C1434143  -1.644   8.971   5.524  0.9843  0.0492  0.4975
   41BDD    C1534144  -1.494   8.965   5.555 -0.7496  0.7885 -0.4281
   41BDD    C1634145  -1.462   8.939   5.700  0.3655  0.1529 -0.1672
   41BDD    C1734146  -1.902   8.844   5.349  0.2981 -0.9411  0.0138
   41BDD    C1834147  -1.843   8.721   5.287 -0.0755 -0.5942  0.0848
   41BDD    C1934148  -1.877   9.460   4.991 -0.8948 -0.4668 -0.5736
   41BDD    C2034149  -2.014   9.511   4.939  0.4957 -0.3232 -0.2968
   41BDD    C2134150  -2.075   9.629   5.007  0.0366  0.0454  0.0426
   41BDD    C2234151  -1.992   9.759   5.019  0.1762 -0.5879  0.0933
   41BDD    C2334152  -1.966   9.824   4.887 -0.3082 -0.6595 -0.1649
   41BDD    C2434153  -1.870   9.938   4.914  0.3088  0.0403 -0.3872
   41BDD    C2534154  -2.127   9.416   4.903  0.7158 -0.5802 -0.4413
   41BDD    C2634155  -2.082   9.302   4.807 -0.1445 -0.1349 -0.1088
   42TPM     C134156  -1.510   9.797   5.347 -0.4012 -0.3039  0.1559
   42TPM     C234157  -1.389   9.851   5.378 -0.2515 -0.6662  0.2224
   42TPM     C334158  -1.361   9.974   5.308  0.1416 -0.7294  0.2623
   42TPM     C434159  -1.461  10.013   5.224  0.2915 -0.4152  0.2260
   42TPM     S134160  -1.599   9.896   5.226 -0.0548 -0.0121  0.1380
   43BDTP    C134161  -1.560  10.478   4.812  0.1276 -0.1300 -0.1910
   43BDTP    C234162  -1.425  10.442   4.784  0.1643 -0.0378 -0.1348
   43BDTP    C334163  -1.357  10.344   4.855  0.2067  0.0186 -0.0974
   43BDTP    C434164  -1.425  10.278   4.959  0.2129 -0.0176 -0.1158
   43BDTP    C534165  -1.560  10.314   4.987  0.1764 -0.1097 -0.1717
   43BDTP    C634166  -1.628  10.413   4.916  0.1341 -0.1661 -0.2092
   43BDTP    C734167  -1.376  10.174   5.046  0.2536  0.0276 -0.0846
   43BDTP    C834168  -1.466  10.130   5.137  0.2496 -0.0255 -0.1140
   43BDTP    S134169  -1.626  10.216   5.126  0.1932 -0.1402 -0.1853
   43BDTP    C934170  -1.609  10.583   4.725  0.0870 -0.1751 -0.2221
   43BDTP   C1034171  -1.519  10.626   4.634  0.0913 -0.1221 -0.1928
   43BDTP    S234172  -1.359  10.541   4.645  0.1472 -0.0073 -0.1213
   44FTM     S134173  -1.091  10.350   4.943  0.1148  0.0334 -0.2524
   44FTM     C134174  -0.965  10.271   4.841 -0.0380 -0.3420 -0.1515
   44FTM     C234175  -1.022  10.222   4.728 -0.1147 -0.2872 -0.1369
   44FTM     C334176  -1.163  10.243   4.713 -0.0608  0.0421 -0.2016
   44FTM     C434177  -1.216  10.310   4.820  0.0614  0.2461 -0.2680
   44FTM     F134178  -0.950  10.156   4.630 -0.2387 -0.5320 -0.0639
   44FTM     C534179  -0.818  10.251   4.877 -0.1797 -0.2229 -0.0640
   44FTM     C634180  -0.744  10.372   4.959  0.3967  0.6619  0.1117
   44FTM     C734181  -0.723  10.501   4.876  0.1981  0.8600  0.3091
   44FTM     C834182  -0.580  10.539   4.868 -0.0194  0.2804 -0.5351
   44FTM     C934183  -0.560  10.667   4.789 -0.1296  0.0134 -0.6281
   44FTM    C1034184  -0.416  10.715   4.807  0.4143  0.2154 -0.1701
   44FTM    C1134185  -0.796  10.419   5.096  0.6568 -0.2374 -0.1363
   44FTM    C1234186  -0.800  10.315   5.202  0.5925 -0.1207 -0.2998
   45FTM     S134187  -1.894  10.318   4.935  0.2546 -0.3326  0.3244
   45FTM     C134188  -2.014  10.438   4.996  0.0000 -0.3245 -0.1814
   45FTM     C234189  -1.952  10.557   5.020 -0.3276  0.0379 -1.0666
   45FTM     C334190  -1.812  10.562   4.993 -0.3990  0.3244 -1.3971
   45FTM     C434191  -1.764  10.443   4.947 -0.1168  0.1766 -0.7442
   45FTM     F134192  -2.020  10.668   5.068 -0.5823  0.1316 -1.6296
   45FTM     C534193  -2.163  10.402   4.995 -0.3319  0.5423  0.0177
   45FTM     C634194  -2.212  10.262   5.036 -0.8138  0.0900  0.5151
   45FTM     C734195  -2.364  10.254   5.029  0.1920  0.0457 -1.1237
   45FTM     C834196  -2.432  10.265   4.893 -0.2906 -0.2105 -0.1414
   45FTM     C934197  -2.579  10.269   4.888  0.9244  0.2594  0.0466
   45FTM    C1034198  -2.642  10.266   4.744 -0.5766  0.3454  0.0570
   45FTM    C1134199  -2.142  10.211   5.162  0.0229 -0.0169 -0.2056
   45FTM    C1234200  -2.185  10.077   5.209  0.3281  0.2693 -0.2697
   46TPM     C134201  -1.550  10.726   4.525  0.2612 -0.0950 -0.3543
   46TPM     C234202  -1.660  10.805   4.507  0.0930 -0.3553 -0.4877
   46TPM     C334203  -1.655  10.884   4.387  0.0713 -0.3095 -0.4581
   46TPM     C434204  -1.541  10.866   4.314  0.2231 -0.0142 -0.3021
   46TPM     S134205  -1.431  10.746   4.391  0.4065  0.2308 -0.1794
   47BDD     C134206  -1.575  11.059   3.975  0.0992  0.1626 -0.0692
   47BDD     C234207  -1.447  11.084   4.017  0.1137  0.1669 -0.1143
   47BDD     C334208  -1.413  11.016   4.141  0.2127  0.0411 -0.2103
   47BDD     C434209  -1.515  10.940   4.191  0.2722 -0.0572 -0.2369
   47BDD     S134210  -1.661  10.948   4.086  0.2085  0.0009 -0.1435
   47BDD     C534211  -1.352  11.171   3.946  0.0367  0.2867 -0.0710
   47BDD     C634212  -1.281  11.028   4.205  0.2441  0.0230 -0.2724
   47BDD     O134213  -1.251  10.969   4.312  0.3297 -0.0854 -0.3551
   47BDD     O234214  -1.381  11.230   3.839 -0.0489  0.3951  0.0118
   47BDD     C734215  -1.185  11.116   4.134  0.1674  0.1428 -0.2290
   47BDD     C834216  -1.219  11.184   4.010  0.0682  0.2686 -0.1329
   47BDD     C934217  -1.117  11.260   3.960  0.0086  0.3669 -0.1063
   47BDD     S234218  -0.971  11.251   4.065  0.0720  0.3088 -0.1995
   47BDD    C1034219  -1.058  11.140   4.176  0.1817  0.1471 -0.2741
   47BDD    C1134220  -0.978  11.102   4.300 -1.0695 -0.6569 -0.0272
   47BDD    C1234221  -0.881  10.980   4.324 -0.5095  0.1856  0.6928
   47BDD    C1334222  -0.840  10.952   4.468  0.0629  0.7219  0.3503
   47BDD    C1434223  -0.938  10.892   4.574 -0.6569 -0.4934  0.9565
   47BDD    C1534224  -0.990  10.755   4.542 -0.1736 -0.2312 -0.7814
   47BDD    C1634225  -1.069  10.697   4.655 -0.1570 -0.2060 -0.2089
   47BDD    C1734226  -0.750  11.008   4.231 -0.0846 -0.6718  0.1108
   47BDD    C1834227  -0.660  10.894   4.199  0.2575 -0.2477 -0.7847
   47BDD    C1934228  -1.094  11.325   3.822 -0.0165 -0.0519 -0.6088
   47BDD    C2034229  -1.091  11.478   3.815 -0.5285  0.2525  0.9037
   47BDD    C2134230  -0.966  11.542   3.882 -0.5460  0.0601  0.2931
   47BDD    C2234231  -0.923  11.686   3.831 -0.0903 -0.0733 -0.8579
   47BDD    C2334232  -0.885  11.690   3.689  0.3973  0.1215  0.8802
   47BDD    C2434233  -0.859  11.839   3.652  0.2247  0.2452  0.0571
   47BDD    C2534234  -1.227  11.554   3.814  0.2440  0.1173 -0.2760
   47BDD    C2634235  -1.348  11.533   3.720  0.4005  0.8373 -0.6803
   48TPM     C134236  -1.662  11.102   3.872 -0.1476  0.1322  0.0551
   48TPM     C234237  -1.646  11.209   3.790 -0.1167 -0.1093 -0.2598
   48TPM     C334238  -1.756  11.232   3.700 -0.0148 -0.4657 -0.4797
   48TPM     C434239  -1.857  11.141   3.714  0.0320 -0.4959 -0.3325
   48TPM     S134240  -1.820  11.020   3.842 -0.0496 -0.0734  0.0985
   49BDTP    C134241  -2.376  11.121   3.359  0.0553 -0.1628  0.0932
   49BDTP    C234242  -2.394  11.009   3.445  0.0373 -0.1653  0.0862
   49BDTP    C334243  -2.303  10.975   3.544  0.0094 -0.1596  0.1138
   49BDTP    C434244  -2.189  11.055   3.559 -0.0014 -0.1509  0.1502
   49BDTP    C534245  -2.170  11.167   3.473  0.0165 -0.1485  0.1573
   49BDTP    C634246  -2.261  11.201   3.374  0.0445 -0.1542  0.1297
   49BDTP    C734247  -2.081  11.039   3.654 -0.0296 -0.1439  0.1833
   49BDTP    C834248  -1.983  11.133   3.644 -0.0337 -0.1363  0.2145
   49BDTP    S134249  -2.015  11.254   3.513 -0.0024 -0.1370  0.2064
   49BDTP    C934250  -2.484  11.137   3.263  0.0836 -0.1699  0.0601
   49BDTP   C1034251  -2.581  11.044   3.273  0.0876 -0.1775  0.0289
   49BDTP    S234252  -2.550  10.922   3.405  0.0563 -0.1768  0.0371
   50FTM     S134253  -2.199  10.727   3.620  0.0913 -0.1128  0.0751
   50FTM     C134254  -2.282  10.635   3.750  0.0005  0.0813  0.1551
   50FTM     C234255  -2.396  10.699   3.787 -0.0118  0.1497 -0.0017
   50FTM     C334256  -2.425  10.821   3.717  0.0473  0.0576 -0.1889
   50FTM     C434257  -2.330  10.851   3.624  0.1069 -0.0860 -0.1752
   50FTM     F134258  -2.481  10.651   3.885 -0.0772  0.2997  0.0152
   50FTM     C534259  -2.220  10.504   3.802 -0.3866 -0.6668  0.1525
   50FTM     C634260  -2.248  10.377   3.720 -0.4296  0.8833 -0.1594
   50FTM     C734261  -2.140  10.258   3.722  0.6442  0.1138 -0.8525
   50FTM     C834262  -2.090  10.206   3.859  0.0110  0.1159  0.5810
   50FTM     C934263  -2.192  10.151   3.964 -0.4246 -0.5766  0.3619
   50FTM    C1034264  -2.105  10.101   4.082  0.6014  0.1288  0.3219
   50FTM    C1134265  -2.390  10.359   3.674 -0.0434 -0.6002  0.2839
   50FTM    C1234266  -2.424  10.255   3.571 -0.0378  0.1673 -0.0348
   51FTM     S134267  -2.202  11.310   3.118 -0.1244  0.0809 -0.2406
   51FTM     C134268  -2.206  11.489   3.106 -0.3319  0.0945  0.0183
   51FTM     C234269  -2.230  11.543   3.228 -0.2007 -0.1026  0.1320
   51FTM     C334270  -2.246  11.451   3.336  0.0627 -0.2722  0.0272
   51FTM     C434271  -2.234  11.321   3.295  0.1357 -0.2026 -0.1732
   51FTM     F134272  -2.239  11.680   3.250 -0.3114 -0.1413  0.3375
   51FTM     C534273  -2.171  11.553   2.974 -0.1406 -0.6493 -0.4547
   51FTM     C634274  -2.035  11.618   2.937 -0.1356  0.6627  0.5026
   51FTM     C734275  -2.034  11.656   2.788 -0.2436 -0.0777 -0.0401
   51FTM     C834276  -1.905  11.689   2.716 -0.3401 -0.8178 -0.2781
   51FTM     C934277  -1.786  11.593   2.713  0.4753  0.0795  0.3399
   51FTM    C1034278  -1.664  11.637   2.636 -0.3448 -0.3397  0.1801
   51FTM    C1134279  -1.980  11.711   3.048 -0.1451  0.2228  0.4299
   51FTM    C1234280  -2.018  11.858   3.052 -0.1663  0.2798  0.8099
   52TPM     C134281  -2.701  11.028   3.188 -0.2425 -0.0308 -0.1189
   52TPM     C234282  -2.744  11.101   3.082 -0.0988 -0.3764 -0.4238
   52TPM     C334283  -2.874  11.062   3.033  0.0209 -0.6151 -0.5491
   52TPM     C434284  -2.929  10.957   3.101 -0.0313 -0.4513 -0.3396
   52TPM     S134285  -2.820  10.901   3.234 -0.2377  0.0206  0.0350
   53BDD     C134286  -3.206  10.691   3.025  0.0516 -0.0932 -0.1768
   53BDD     C234287  -3.258  10.809   2.981 -0.0198 -0.0861 -0.0744
   53BDD     C334288  -3.168  10.922   2.999 -0.1584 -0.0155  0.1886
   53BDD     C434289  -3.049  10.887   3.056 -0.1905  0.0302  0.2830
   53BDD     S134290  -3.041  10.711   3.092 -0.0496 -0.0120  0.0490
   53BDD     C534291  -3.392  10.824   2.921  0.0365 -0.1439 -0.2146
   53BDD     C634292  -3.203  11.059   2.958 -0.2539  0.0041  0.3368
   53BDD     O134293  -3.125  11.156   2.974 -0.3735  0.0649  0.5636
   53BDD     O234294  -3.470  10.727   2.905  0.1560 -0.2047 -0.4415
   53BDD     C734295  -3.337  11.074   2.898 -0.1976 -0.0538  0.1966
   53BDD     C834296  -3.427  10.961   2.880 -0.0590 -0.1243 -0.0665
   53BDD     C934297  -3.547  10.996   2.822 -0.0271 -0.1700 -0.1608
   53BDD     S234298  -3.554  11.172   2.787 -0.1679 -0.1278  0.0731
   53BDD    C1034299  -3.389  11.192   2.854 -0.2693 -0.0466  0.2990
   53BDD    C1134300  -3.332  11.332   2.840  0.2606  0.3543  0.6601
   53BDD    C1234301  -3.348  11.396   2.697 -0.3503 -0.1950  0.0128
   53BDD    C1334302  -3.310  11.316   2.566  0.1964  0.1092 -0.2970
   53BDD    C1434303  -3.161  11.280   2.535 -0.2883 -0.2446  0.7707
   53BDD    C1534304  -3.162  11.214   2.407 -0.1655 -0.1548  0.1594
   53BDD    C1634305  -3.024  11.207   2.343 -0.3855 -0.5391 -0.0728
   53BDD    C1734306  -3.300  11.540   2.704 -0.0338 -0.2783 -0.1666
   53BDD    C1834307  -3.322  11.652   2.601  0.2364  0.1490 -0.0079
   53BDD    C1934308  -3.674  10.928   2.785  0.8018  1.1609 -0.5916
   53BDD    C2034309  -3.786  10.943   2.895 -0.0498 -0.3932 -0.1286
   53BDD    C2134310  -3.933  10.948   2.851 -0.0175 -0.6906 -0.4460
   53BDD    C2234311  -3.968  11.035   2.737  0.1411  0.0019 -0.2064
   53BDD    C2334312  -4.112  11.072   2.753  0.2841 -0.7611  0.2566
   53BDD    C2434313  -4.157  11.180   2.657 -0.1977 -0.4440  0.0534
   53BDD    C2534314  -3.765  10.906   3.038  0.2021 -0.0071 -0.0736
   53BDD    C2634315  -3.809  10.768   3.079 -0.4837  0.2071 -0.6001
   54TPM     C134316  -3.253  10.552   3.044 -0.3204 -0.2062  0.1881
   54TPM     C234317  -3.348  10.487   2.971 -0.3388 -0.4550  0.4300
   54TPM     C334318  -3.355  10.346   2.997 -0.0664 -0.4337  0.6243
   54TPM     C434319  -3.265  10.303   3.090  0.1599 -0.1686  0.5304
   54TPM     S134320  -3.164  10.439   3.152  0.0453  0.0766  0.1867
   55BDTP    C134321  -3.104   9.738   3.311 -0.0659  0.0357 -0.1446
   55BDTP    C234322  -3.213   9.706   3.226 -0.1074  0.0351 -0.0916
   55BDTP    C334323  -3.284   9.802   3.156 -0.1364  0.0339 -0.0635
   55BDTP    C434324  -3.247   9.937   3.171 -0.1243  0.0334 -0.0885
   55BDTP    C534325  -3.138   9.969   3.257 -0.0829  0.0341 -0.1415
   55BDTP    C634326  -3.066   9.873   3.327 -0.0538  0.0352 -0.1696
   55BDTP    C734327  -3.306  10.053   3.109 -0.1489  0.0322 -0.0673
   55BDTP    C834328  -3.248  10.170   3.144 -0.1283  0.0320 -0.1012
   55BDTP    S134329  -3.109  10.149   3.260 -0.0745  0.0332 -0.1650
   55BDTP    C934330  -3.044   9.621   3.373 -0.0412  0.0369 -0.1658
   55BDTP   C1034331  -3.103   9.504   3.339 -0.0621  0.0372 -0.1318
   55BDTP    S234332  -3.241   9.525   3.223 -0.1155  0.0359 -0.0681
   56FTM     S134333  -3.563   9.800   3.129  0.2580  0.1094 -0.0937
   56FTM     C134334  -3.631   9.737   2.974  0.4830 -0.2221 -0.0611
   56FTM     C234335  -3.531   9.691   2.895  0.6635  0.1852 -0.0749
   56FTM     C334336  -3.398   9.701   2.948  0.6386  0.7659 -0.1109
   56FTM     C434337  -3.397   9.757   3.072  0.4320  0.8045 -0.1250
   56FTM     F134338  -3.554   9.637   2.769  0.8622  0.0565 -0.0558
   56FTM     C534339  -3.779   9.739   2.938  0.4078 -0.1559 -0.3823
   56FTM     C634340  -3.866   9.618   2.978  0.6234  0.0688 -0.1755
   56FTM     C734341  -3.896   9.591   3.127 -0.4660  0.1687  0.2602
   56FTM     C834342  -4.007   9.661   3.193  0.4271 -0.9863  0.4881
   56FTM     C934343  -4.142   9.624   3.145 -0.4177 -0.3073  0.4156
   56FTM    C1034344  -4.246   9.702   3.221 -0.4262  0.2413  0.6347
   56FTM    C1134345  -3.852   9.485   2.903  0.8495  0.5211 -0.1946
   56FTM    C1234346  -3.857   9.490   2.750  0.1893  0.3245 -0.3768
   57FTM     S134347  -2.940   9.858   3.587  0.0370 -0.0650 -0.1439
   57FTM     C134348  -2.773   9.926   3.592 -0.0935  0.2589 -0.1256
   57FTM     C234349  -2.742   9.981   3.471 -0.1318  0.1849 -0.1695
   57FTM     C334350  -2.843   9.974   3.371 -0.0639 -0.1207 -0.2188
   57FTM     C434351  -2.956   9.912   3.415  0.0297 -0.2862 -0.2126
   57FTM     F134352  -2.619  10.041   3.445 -0.2310  0.3896 -0.1675
   57FTM     C534353  -2.694   9.903   3.717 -0.0168 -0.0518  0.7228
   57FTM     C634354  -2.572   9.813   3.734 -0.4180 -0.1943 -0.5745
   57FTM     C734355  -2.594   9.665   3.704  0.4961  0.7340  0.4353
   57FTM     C834356  -2.620   9.625   3.556  0.6442  0.1716  0.1940
   57FTM     C934357  -2.497   9.637   3.469  0.0644 -0.1075  0.2397
   57FTM    C1034358  -2.545   9.664   3.330  0.4624 -0.3600  0.3488
   57FTM    C1134359  -2.494   9.853   3.865 -0.4748 -0.1322  0.4100
   57FTM    C1234360  -2.361   9.784   3.880 -0.8975  0.0906 -0.0654
   58TPM     C134361  -3.068   9.370   3.381  0.2704  0.1359  0.1664
   58TPM     C234362  -2.959   9.337   3.455 -0.1866  0.2961  0.9363
   58TPM     C334363  -2.956   9.199   3.496 -0.3785  0.3552  1.1551
   58TPM     C434364  -3.063   9.126   3.453 -0.0678  0.2399  0.5523
   58TPM     S134365  -3.177   9.228   3.356  0.4956  0.0460 -0.3457
   59BDD     C134366  -3.049   8.762   3.600 -0.1972  0.2034 -0.0779
   59BDD     C234367  -3.125   8.752   3.487 -0.2016  0.1626 -0.0716
   59BDD     C334368  -3.143   8.879   3.419 -0.2495  0.1476 -0.0873
   59BDD     C434369  -3.081   8.984   3.481 -0.2809  0.1770 -0.1054
   59BDD     S134370  -2.996   8.931   3.630 -0.2527  0.2260 -0.1039
   59BDD     C534371  -3.184   8.626   3.437 -0.1620  0.1359 -0.0509
   59BDD     C634372  -3.221   8.892   3.294 -0.2624  0.1044 -0.0839
   59BDD     O134373  -3.237   9.002   3.235 -0.3036  0.0916 -0.0975
   59BDD     O234374  -3.168   8.517   3.495 -0.1208  0.1490 -0.0374
   59BDD     C734375  -3.280   8.766   3.244 -0.2228  0.0777 -0.0632
   59BDD     C834376  -3.262   8.639   3.312 -0.1749  0.0930 -0.0474
   59BDD     C934377  -3.324   8.535   3.249 -0.1435  0.0634 -0.0293
   59BDD     S234378  -3.409   8.588   3.101 -0.1718  0.0146 -0.0308
   59BDD    C1034379  -3.355   8.757   3.130 -0.2272  0.0372 -0.0568
   59BDD    C1134380  -3.404   8.859   3.022  0.3830 -0.2071 -0.1855
   59BDD    C1234381  -3.391   8.827   2.874 -0.1700 -0.0441  0.2463
   59BDD    C1334382  -3.248   8.793   2.833  0.6185  0.1431  0.0560
   59BDD    C1434383  -3.217   8.748   2.688  0.2552 -0.2608  0.2827
   59BDD    C1534384  -3.080   8.785   2.643  0.1357 -0.2181  0.8936
   59BDD    C1634385  -3.062   8.814   2.496  0.2914  0.5339  0.2643
   59BDD    C1734386  -3.476   8.926   2.795 -0.5096  0.4017  0.7067
   59BDD    C1834387  -3.418   9.058   2.753  0.4829  0.1600  0.8913
   59BDD    C1934388  -3.325   8.385   3.272  0.3355 -0.4883  0.3237
   59BDD    C2034389  -3.279   8.296   3.152 -0.0163 -0.4195 -0.4128
   59BDD    C2134390  -3.139   8.313   3.094 -0.4319 -0.0853 -0.2540
   59BDD    C2234391  -3.016   8.298   3.193  0.0291  0.4414  0.1207
   59BDD    C2334392  -2.879   8.315   3.135 -0.1950 -0.0192  0.3264
   59BDD    C2434393  -2.777   8.201   3.155 -0.0383  0.5057 -0.1411
   59BDD    C2534394  -3.300   8.147   3.195  0.7001 -0.2484  0.2486
   59BDD    C2634395  -3.452   8.110   3.212  0.3967  0.4642 -0.1781
   60TPM     C134396  -2.998   8.667   3.695 -0.1556  0.1536 -0.0148
   60TPM     C234397  -2.940   8.549   3.659 -0.7675 -0.1786  0.0696
   60TPM     C334398  -2.873   8.481   3.766 -1.0066 -0.3898  0.0880
   60TPM     C434399  -2.879   8.548   3.885 -0.5767 -0.2182  0.0179
   60TPM     S134400  -2.971   8.702   3.870  0.1690  0.2268 -0.0777
    1BDTP    C134401   8.108   1.069   3.090 -0.1538  0.1775  0.1228
    1BDTP    C234402   8.035   0.972   3.164 -0.1585  0.0720 -0.0194
    1BDTP    C334403   7.904   0.937   3.134 -0.1398  0.0776 -0.1083
    1BDTP    C434404   7.842   1.002   3.026 -0.1148  0.1925 -0.0548
    1BDTP    C534405   7.915   1.099   2.951 -0.1100  0.2980  0.0874
    1BDTP    C634406   8.046   1.133   2.982 -0.1290  0.2924  0.1762
    1BDTP    C734407   7.707   0.983   2.976 -0.0921  0.2208 -0.1269
    1BDTP    C834408   7.676   1.060   2.869 -0.0708  0.3409 -0.0468
    1BDTP    S134409   7.813   1.168   2.816 -0.0764  0.4351  0.1312
    1BDTP    C934410   8.243   1.088   3.140 -0.1767  0.1492  0.1948
    1BDTP   C1034411   8.274   1.011   3.247 -0.1981  0.0291  0.1147
    1BDTP    S234412   8.137   0.903   3.299 -0.1926 -0.0651 -0.0633
    2FTM     S134413   7.913   0.688   3.292  0.1488  0.1421  0.1867
    2FTM     C134414   7.762   0.653   3.385 -0.0328  0.3337 -0.0326
    2FTM     C234415   7.666   0.744   3.354  0.1543  0.5031 -0.1153
    2FTM     C334416   7.703   0.844   3.258  0.4431  0.4944 -0.0159
    2FTM     C434417   7.831   0.829   3.214  0.4784  0.3124  0.1486
    2FTM     F134418   7.540   0.743   3.410  0.0751  0.6760 -0.2862
    2FTM     C534419   7.752   0.534   3.481 -0.3392 -0.3032 -0.0563
    2FTM     C634420   7.866   0.524   3.581  0.0470 -0.2873  0.7239
    2FTM     C734421   7.894   0.646   3.674  0.5310  0.1601 -0.9928
    2FTM     C834422   8.024   0.715   3.684 -0.4915 -0.0658  0.1268
    2FTM     C934423   8.140   0.616   3.697 -0.2156 -0.4639 -0.2312
    2FTM    C1034424   8.286   0.663   3.700 -0.1098 -0.0885 -0.1390
    2FTM    C1134425   7.842   0.402   3.667  0.1663 -0.0406 -0.2297
    2FTM    C1234426   7.851   0.265   3.602  0.2840 -0.3999  0.2156
    3FTM     S134427   8.263   1.228   2.819 -0.3803 -0.3745 -0.1350
    3FTM     C134428   8.244   1.396   2.759  0.2599 -0.1626  0.2343
    3FTM     C234429   8.129   1.451   2.808  0.4706  0.1731  0.3629
    3FTM     C334430   8.051   1.366   2.893  0.1552  0.2833  0.1864
    3FTM     C434431   8.108   1.244   2.910 -0.3124  0.0236 -0.0863
    3FTM     F134432   8.089   1.580   2.778  0.9620  0.4005  0.6481
    3FTM     C534433   8.359   1.457   2.678  0.1457 -0.1077 -0.2065
    3FTM     C634434   8.355   1.434   2.525  0.4127  0.2807 -0.3235
    3FTM     C734435   8.373   1.283   2.480  0.2460 -0.4784 -0.1037
    3FTM     C834436   8.513   1.228   2.504 -0.1494 -0.2597  0.0067
    3FTM     C934437   8.611   1.264   2.391  0.4392 -0.1118  0.0684
    3FTM    C1034438   8.760   1.265   2.418 -0.1846 -0.7526 -0.0221
    3FTM    C1134439   8.240   1.491   2.440  0.4456 -0.4108 -0.5758
    3FTM    C1234440   8.209   1.639   2.456 -0.0214  0.4388 -0.1184
    4TPM     C134441   8.393   1.005   3.326 -0.1471  0.0587  0.2897
    4TPM     C234442   8.403   0.980   3.459  0.0517 -0.1306  0.2404
    4TPM     C334443   8.538   0.981   3.509  0.1345 -0.3020  0.0229
    4TPM     C434444   8.631   1.008   3.413 -0.0009 -0.2434 -0.0933
    4TPM     S134445   8.555   1.033   3.252 -0.2454  0.0350  0.0639
    5BDD     C134446   8.990   0.901   3.538  0.1176 -0.0176  0.0584
    5BDD     C234447   9.004   1.028   3.490  0.0350 -0.0339 -0.0068
    5BDD     C334448   8.879   1.084   3.439  0.0169 -0.1738 -0.1170
    5BDD     C434449   8.773   0.998   3.450  0.0860 -0.2622 -0.1343
    5BDD     S134450   8.821   0.842   3.524  0.1786 -0.1763 -0.0138
    5BDD     C534451   9.131   1.103   3.488 -0.0308  0.0786  0.0298
    5BDD     C634452   8.871   1.220   3.381 -0.0684 -0.2147 -0.2012
    5BDD     O134453   8.763   1.267   3.338 -0.0839 -0.3354 -0.2962
    5BDD     O234454   9.238   1.055   3.531 -0.0150  0.1993  0.1249
    5BDD     C734455   8.998   1.294   3.379 -0.1335 -0.1023 -0.1645
    5BDD     C834456   9.122   1.239   3.430 -0.1156  0.0377 -0.0543
    5BDD     C934457   9.228   1.324   3.419 -0.1845  0.1261 -0.0370
    5BDD     S234458   9.180   1.480   3.345 -0.2771  0.0402 -0.1575
    5BDD    C1034459   9.011   1.421   3.331 -0.2160 -0.1185 -0.2297
    5BDD    C1134460   8.916   1.515   3.269  0.1340  0.1754 -0.3525
    5BDD    C1234461   8.850   1.625   3.354  0.1841  0.3393 -0.4964
    5BDD    C1334462   8.946   1.725   3.419  0.3950 -0.3911 -0.4617
    5BDD    C1434463   9.022   1.821   3.329 -0.1741  0.3371  0.6649
    5BDD    C1534464   9.100   1.924   3.405  0.0874 -0.4404  0.2663
    5BDD    C1634465   9.186   2.022   3.325  0.1690  0.1423 -0.3128
    5BDD    C1734466   8.720   1.695   3.295 -0.2258  0.4529  0.1283
    5BDD    C1834467   8.649   1.797   3.390 -0.2586  0.4995  0.4770
    5BDD    C1934468   9.364   1.312   3.483 -0.0730  0.0397 -0.3177
    5BDD    C2034469   9.392   1.413   3.597 -0.5581 -0.4474 -0.1628
    5BDD    C2134470   9.318   1.383   3.728 -0.1993 -0.0565 -0.0253
    5BDD    C2234471   9.360   1.255   3.806 -0.2978  0.1615  0.3753
    5BDD    C2334472   9.295   1.247   3.943  0.9394  0.5554  0.5507
    5BDD    C2434473   9.348   1.340   4.049 -0.3679  0.0718  0.5135
    5BDD    C2534474   9.544   1.457   3.615  0.4253  0.2824 -1.0298
    5BDD    C2634475   9.626   1.497   3.490 -0.7312  0.8114 -0.8163
    6TPM     C134476   9.074   0.804   3.602 -0.0821  0.1480  0.1073
    6TPM     C234477   9.172   0.830   3.693 -0.1757  0.2179  0.1883
    6TPM     C334478   9.215   0.714   3.767 -0.0818  0.2290  0.1513
    6TPM     C434479   9.150   0.599   3.732  0.0838  0.1677  0.0421
    6TPM     S134480   9.028   0.629   3.602  0.1339  0.0905 -0.0230
    7BDTP    C134481   9.208  -0.004   3.895 -0.0634  0.1993  0.0900
    7BDTP    C234482   9.301   0.059   3.982 -0.1245  0.1923  0.1597
    7BDTP    C334483   9.323   0.196   3.981 -0.1144  0.1909  0.1782
    7BDTP    C434484   9.251   0.274   3.889 -0.0415  0.1967  0.1255
    7BDTP    C534485   9.158   0.211   3.801  0.0196  0.2038  0.0557
    7BDTP    C634486   9.136   0.074   3.803  0.0094  0.2052  0.0374
    7BDTP    C734487   9.258   0.418   3.869 -0.0172  0.1965  0.1320
    7BDTP    C834488   9.175   0.464   3.772  0.0575  0.2031  0.0713
    7BDTP    S134489   9.078   0.333   3.692  0.1082  0.2104 -0.0025
    7BDTP    C934490   9.201  -0.148   3.915 -0.0875  0.1996  0.0835
    7BDTP   C1034491   9.284  -0.194   4.011 -0.1626  0.1929  0.1441
    7BDTP    S234492   9.381  -0.063   4.091 -0.2130  0.1859  0.2179
    8FTM     S134493   9.529   0.377   4.036  0.0622 -0.0888 -0.0470
    8FTM     C134494   9.578   0.392   4.209  0.0524  0.2588 -0.0725
    8FTM     C234495   9.503   0.308   4.286  0.0803  0.3776  0.0849
    8FTM     C334496   9.405   0.230   4.217  0.1101  0.2097  0.2315
    8FTM     C434497   9.405   0.254   4.083  0.1052 -0.0460  0.1848
    8FTM     F134498   9.518   0.298   4.423  0.0806  0.6455  0.1059
    8FTM     C534499   9.691   0.479   4.254  0.1558 -0.5199 -1.2774
    8FTM     C634500   9.656   0.613   4.327 -0.0999 -0.0177 -0.0844
    8FTM     C734501   9.777   0.700   4.361  0.2913  0.1698 -0.2702
    8FTM     C834502   9.873   0.639   4.466 -0.1300 -0.2900  0.6255
    8FTM     C934503  10.005   0.708   4.505  0.4543  0.3075 -0.5642
    8FTM    C1034504  10.001   0.841   4.577 -0.4587  0.1232 -0.2152
    8FTM    C1134505   9.541   0.684   4.258  0.4196  0.4217 -1.0450
    8FTM    C1234506   9.556   0.758   4.128 -0.2780  0.0738 -0.1061
    9FTM     S134507   8.902  -0.068   3.736 -0.1674 -0.0700 -0.0800
    9FTM     C134508   8.879  -0.100   3.561 -0.1417  0.1991 -0.1340
    9FTM     C234509   8.983  -0.050   3.490 -0.3452  0.6967 -0.0872
    9FTM     C334510   9.086   0.016   3.566 -0.5286  0.8938 -0.0085
    9FTM     C434511   9.059   0.015   3.699 -0.4636  0.5360  0.0055
    9FTM     F134512   8.993  -0.060   3.352 -0.3767  1.0028 -0.1130
    9FTM     C534513   8.754  -0.170   3.512  0.3812 -0.3221 -0.1723
    9FTM     C634514   8.616  -0.103   3.537 -0.0770  0.1576  0.5020
    9FTM     C734515   8.582   0.043   3.485 -0.7853  0.5710  0.7307
    9FTM     C834516   8.660   0.163   3.544 -0.1708 -0.6725  0.6963
    9FTM     C934517   8.590   0.298   3.523 -0.5033 -0.0594 -0.0008
    9FTM    C1034518   8.681   0.410   3.569 -1.1205 -0.3265  0.6105
    9FTM    C1134519   8.500  -0.199   3.506  0.1395 -0.1128  0.4134
    9FTM    C1234520   8.498  -0.337   3.576  0.0103  0.3403  0.2427
   10TPM     C134521   9.327  -0.331   4.038  0.4711 -0.0611  0.1533
   10TPM     C234522   9.448  -0.393   4.028  0.4218 -0.2904  0.8527
   10TPM     C334523   9.443  -0.535   4.049  0.0458 -0.2718  0.9032
   10TPM     C434524   9.318  -0.582   4.075 -0.1919 -0.0280  0.2424
   10TPM     S134525   9.196  -0.450   4.075  0.0427  0.1984 -0.5008
   11BDD     C134526   9.187  -0.910   4.252  0.0501  0.1073 -0.0696
   11BDD     C234527   9.269  -0.954   4.151  0.0629  0.1221 -0.0660
   11BDD     C334528   9.327  -0.846   4.073  0.1025  0.1349 -0.0188
   11BDD     C434529   9.289  -0.722   4.116  0.1193  0.1292  0.0129
   11BDD     S134530   9.178  -0.731   4.256  0.0870  0.1075 -0.0141
   11BDD     C534531   9.295  -1.097   4.122  0.0389  0.1256 -0.1061
   11BDD     C634532   9.418  -0.871   3.959  0.1221  0.1523 -0.0069
   11BDD     O134533   9.468  -0.778   3.892  0.1564  0.1636  0.0337
   11BDD     O234534   9.245  -1.190   4.190  0.0048  0.1147 -0.1469
   11BDD     C734535   9.445  -1.013   3.931  0.0980  0.1559 -0.0470
   11BDD     C834536   9.386  -1.121   4.008  0.0582  0.1431 -0.0942
   11BDD     C934537   9.424  -1.245   3.966  0.0415  0.1488 -0.1261
   11BDD     S234538   9.535  -1.236   3.825  0.0738  0.1706 -0.0990
   11BDD    C1034539   9.526  -1.057   3.830  0.1109  0.1712 -0.0435
   11BDD    C1134540   9.596  -0.988   3.720 -0.0046  0.2614 -0.0306
   11BDD    C1234541   9.598  -1.054   3.585  0.0442 -0.6624  0.2775
   11BDD    C1334542   9.462  -1.045   3.520 -0.1005  0.1043  0.2982
   11BDD    C1434543   9.438  -1.136   3.398  0.4504  0.2955 -0.6516
   11BDD    C1534544   9.292  -1.119   3.358 -0.2132  1.0286 -0.1903
   11BDD    C1634545   9.233  -1.207   3.255 -0.2074  0.1365  0.1955
   11BDD    C1734546   9.704  -1.006   3.483 -0.3275  0.2268 -0.1063
   11BDD    C1834547   9.856  -1.035   3.504 -0.5496 -0.2281  0.9629
   11BDD    C1934548   9.397  -1.390   4.005 -0.3806 -0.0730 -0.5793
   11BDD    C2034549   9.279  -1.463   3.941  0.4578  0.3793 -0.4153
   11BDD    C2134550   9.309  -1.500   3.796 -0.5660 -0.3100 -0.4451
   11BDD    C2234551   9.196  -1.563   3.712  0.0075 -1.0618 -0.4404
   11BDD    C2334552   9.069  -1.487   3.692  0.8375 -0.8290  0.3630
   11BDD    C2434553   9.074  -1.363   3.600  0.7167  0.0005 -0.5590
   11BDD    C2534554   9.198  -1.566   4.032 -0.5868  0.2678  0.1606
   11BDD    C2634555   9.147  -1.507   4.171  0.0866 -0.0297  0.1216
   12TPM     C134556   9.098  -0.968   4.355  0.3743 -0.1788  0.1834
   12TPM     C234557   9.047  -0.885   4.451  0.2992  0.0002 -0.0100
   12TPM     C334558   8.992  -0.954   4.564  0.1307  0.2096  0.0372
   12TPM     C434559   9.000  -1.090   4.555  0.0761  0.1899  0.2665
   12TPM     S134560   9.080  -1.141   4.402  0.2359 -0.0966  0.4421
   13BDTP    C134561   8.788  -1.426   5.037 -0.0567 -0.1223  0.1674
   13BDTP    C234562   8.774  -1.517   4.928  0.0331 -0.1590  0.1868
   13BDTP    C334563   8.813  -1.485   4.798 -0.0143 -0.1426  0.1768
   13BDTP    C434564   8.867  -1.358   4.775 -0.1574 -0.0880  0.1460
   13BDTP    C534565   8.880  -1.267   4.884 -0.2470 -0.0508  0.1262
   13BDTP    C634566   8.842  -1.299   5.013 -0.1996 -0.0674  0.1364
   13BDTP    C734567   8.913  -1.302   4.649 -0.2303 -0.0615  0.1303
   13BDTP    C834568   8.960  -1.175   4.659 -0.3688 -0.0079  0.1003
   13BDTP    S134569   8.952  -1.109   4.827 -0.4263  0.0176  0.0875
   13BDTP    C934570   8.741  -1.482   5.162  0.0165 -0.1481  0.1829
   13BDTP   C1034571   8.694  -1.609   5.153  0.1550 -0.2024  0.2129
   13BDTP    S234572   8.702  -1.675   4.984  0.2123 -0.2274  0.2258
   14FTM     S134573   8.746  -1.545   4.524  0.0525 -0.2286 -0.2120
   14FTM     C134574   8.789  -1.709   4.463  0.0266 -0.1698 -0.3900
   14FTM     C234575   8.845  -1.782   4.563 -0.0660 -0.3171 -0.4464
   14FTM     C334576   8.856  -1.717   4.691 -0.1209 -0.4809 -0.3569
   14FTM     C434577   8.808  -1.590   4.688 -0.0690 -0.4580 -0.2276
   14FTM     F134578   8.888  -1.913   4.546 -0.1063 -0.3126 -0.5826
   14FTM     C534579   8.758  -1.748   4.320 -0.0379 -0.4231 -0.4551
   14FTM     C634580   8.662  -1.674   4.232  0.7119 -0.1338 -0.4961
   14FTM     C734581   8.516  -1.656   4.280  0.2452 -0.2192 -0.1449
   14FTM     C834582   8.451  -1.782   4.334 -0.4942  0.2735 -0.7722
   14FTM     C934583   8.327  -1.756   4.413 -0.1611 -0.5624 -0.3909
   14FTM    C1034584   8.272  -1.867   4.500 -0.3026  0.3428  0.6082
   14FTM    C1134585   8.671  -1.693   4.085  0.9004  0.2894  0.2741
   14FTM    C1234586   8.805  -1.678   4.020 -0.4526  0.1813 -0.5876
   15FTM     S134587   8.913  -1.217   5.280 -0.2509 -0.1636  0.0727
   15FTM     C134588   8.869  -1.048   5.323  0.1523 -0.0199 -0.0735
   15FTM     C234589   8.808  -0.987   5.217  0.2217  0.0069 -0.0980
   15FTM     C334590   8.793  -1.067   5.099 -0.0284 -0.0806 -0.0072
   15FTM     C434591   8.843  -1.193   5.115 -0.2982 -0.1774  0.0904
   15FTM     F134592   8.764  -0.856   5.220  0.5162  0.1118 -0.2046
   15FTM     C534593   8.907  -0.992   5.461  0.1269  0.6772 -0.0484
   15FTM     C634594   9.061  -0.957   5.478  0.3196 -0.0450 -0.2271
   15FTM     C734595   9.160  -1.076   5.500  0.2444  0.9341 -0.2477
   15FTM     C834596   9.134  -1.186   5.611  0.6372  0.5937 -0.2204
   15FTM     C934597   9.084  -1.142   5.745  0.2835  0.1915  0.0058
   15FTM    C1034598   8.999  -1.241   5.828 -0.1801 -0.0660  0.4662
   15FTM    C1134599   9.127  -0.848   5.385  0.1015  0.2155  0.2144
   15FTM    C1234600   9.048  -0.718   5.366  0.0433 -0.6304  0.2352
   16TPM     C134601   8.648  -1.711   5.250  0.0977 -0.4808 -0.1239
   16TPM     C234602   8.584  -1.829   5.222  0.3481 -0.6829  0.1423
   16TPM     C334603   8.538  -1.898   5.340  0.2711 -0.3858  0.2902
   16TPM     C434604   8.567  -1.834   5.456 -0.0389  0.0430  0.1367
   16TPM     S134605   8.656  -1.680   5.427 -0.2587  0.1052 -0.2091
   17BDD     C134606   8.669  -1.975   5.811  0.1019  0.2319 -0.0345
   17BDD     C234607   8.541  -2.018   5.792  0.0987  0.2348 -0.0203
   17BDD     C334608   8.485  -1.977   5.665  0.1326  0.1212 -0.0721
   17BDD     C434609   8.571  -1.904   5.589  0.1613  0.0334 -0.1250
   17BDD     S134610   8.729  -1.880   5.671  0.1476  0.0867 -0.1136
   17BDD     C534611   8.465  -2.099   5.890  0.0639  0.3424  0.0414
   17BDD     C634612   8.348  -2.013   5.623  0.1354  0.1042 -0.0674
   17BDD     O134613   8.299  -1.977   5.513  0.1647  0.0062 -0.1121
   17BDD     O234614   8.514  -2.134   6.000  0.0346  0.4404  0.0859
   17BDD     C734615   8.272  -2.093   5.721  0.1011  0.2116 -0.0056
   17BDD     C834616   8.328  -2.134   5.849  0.0670  0.3252  0.0463
   17BDD     C934617   8.241  -2.208   5.925  0.0379  0.4131  0.0989
   17BDD     S234618   8.084  -2.231   5.842  0.0518  0.3599  0.0875
   17BDD    C1034619   8.143  -2.136   5.702  0.0975  0.2145  0.0083
   17BDD    C1134620   8.048  -2.126   5.586  0.0442  0.4454 -0.1325
   17BDD    C1234621   8.025  -2.246   5.485 -0.0498  0.1937  0.0791
   17BDD    C1334622   7.907  -2.215   5.388 -0.0197  0.2021 -0.4604
   17BDD    C1434623   7.918  -2.093   5.296 -0.1690 -0.2098  0.5294
   17BDD    C1534624   7.784  -2.021   5.273  0.0328  0.2375 -1.3664
   17BDD    C1634625   7.768  -1.952   5.140  0.5612  0.4194  0.2094
   17BDD    C1734626   8.155  -2.303   5.424 -0.8816 -0.2184  0.2305
   17BDD    C1834627   8.145  -2.441   5.355  0.5263 -0.3536 -0.1191
   17BDD    C1934628   8.251  -2.256   6.072  0.8691  0.0486 -0.4192
   17BDD    C2034629   8.324  -2.392   6.111 -0.1533 -0.2323  0.5449
   17BDD    C2134630   8.363  -2.405   6.257  0.1299  0.3821 -0.0193
   17BDD    C2234631   8.450  -2.310   6.336  0.3309  0.3488  0.0244
   17BDD    C2334632   8.482  -2.347   6.485 -0.2610 -0.3281 -0.3821
   17BDD    C2434633   8.364  -2.390   6.583 -0.3592 -0.3220  0.3248
   17BDD    C2534634   8.236  -2.512   6.059 -0.1955  0.4970  0.6846
   17BDD    C2634635   8.290  -2.652   6.066 -0.2767 -0.1073  0.6592
   18TPM     C134636   8.772  -1.978   5.918 -0.2632  0.2306 -0.1846
   18TPM     C234637   8.792  -2.088   5.996 -0.4327  0.0910 -0.3364
   18TPM     C334638   8.910  -2.080   6.078 -0.4239 -0.2011 -0.3185
   18TPM     C434639   8.979  -1.964   6.063 -0.2476 -0.2843 -0.1531
   18TPM     S134640   8.901  -1.855   5.943 -0.0776  0.0022 -0.0061
   19BDTP    C134641   9.514  -1.816   6.364 -0.0064  0.2232  0.0176
   19BDTP    C234642   9.546  -1.793   6.227  0.0362  0.0840  0.0039
   19BDTP    C334643   9.455  -1.812   6.124  0.0396  0.0699  0.0035
   19BDTP    C434644   9.326  -1.856   6.157 -0.0010  0.1988  0.0172
   19BDTP    C534645   9.293  -1.879   6.294 -0.0439  0.3380  0.0310
   19BDTP    C634646   9.384  -1.860   6.397 -0.0475  0.3522  0.0312
   19BDTP    C734647   9.215  -1.883   6.068 -0.0057  0.2115  0.0198
   19BDTP    C834648   9.102  -1.924   6.130 -0.0498  0.3518  0.0343
   19BDTP    S134649   9.120  -1.936   6.311 -0.0913  0.4876  0.0472
   19BDTP    C934650   9.625  -1.789   6.453 -0.0017  0.2104  0.0151
   19BDTP   C1034651   9.737  -1.747   6.390  0.0424  0.0700  0.0005
   19BDTP    S234652   9.719  -1.736   6.210  0.0838 -0.0656 -0.0124
   20FTM     S134653   9.410  -1.696   5.860  0.1344  0.0603 -0.0346
   20FTM     C134654   9.526  -1.752   5.733  0.2716  0.2280  0.0168
   20FTM     C234655   9.619  -1.834   5.788  0.0467 -0.0685 -0.0424
   20FTM     C334656   9.607  -1.859   5.928 -0.2391 -0.4356 -0.1291
   20FTM     C434657   9.501  -1.793   5.983 -0.2331 -0.4194 -0.1368
   20FTM     F134658   9.721  -1.892   5.714  0.0861 -0.0255 -0.0216
   20FTM     C534659   9.502  -1.717   5.587  0.0006  0.3478 -0.1074
   20FTM     C634660   9.461  -1.583   5.535  0.3310 -0.3764 -0.2285
   20FTM     C734661   9.419  -1.574   5.389  0.2347  0.5156  0.2069
   20FTM     C834662   9.296  -1.652   5.344 -0.2954 -0.5646  0.7921
   20FTM     C934663   9.167  -1.588   5.388 -1.0356 -0.3166  0.2232
   20FTM    C1034664   9.045  -1.668   5.353  0.0900 -0.8094 -0.9271
   20FTM    C1134665   9.558  -1.467   5.579  0.2069  0.5191  0.2076
   20FTM    C1234666   9.520  -1.317   5.553  0.4421  0.3153  0.1162
   21FTM     S134667   9.464  -2.001   6.628 -0.1763 -0.3226 -0.2047
   21FTM     C134668   9.375  -1.957   6.778  0.2170 -0.1142 -0.0312
   21FTM     C234669   9.271  -1.874   6.748  0.2873  0.0434  0.1571
   21FTM     C334670   9.255  -1.841   6.610  0.0458  0.0125  0.1777
   21FTM     C434671   9.349  -1.900   6.531 -0.2186 -0.1749 -0.0008
   21FTM     F134672   9.185  -1.824   6.845  0.5748  0.2249  0.3222
   21FTM     C534673   9.409  -1.999   6.921  0.0410 -0.5724  1.0250
   21FTM     C634674   9.517  -2.102   6.951 -0.3780 -0.3830  0.2074
   21FTM     C734675   9.659  -2.062   6.901 -0.5769  0.1508 -0.6179
   21FTM     C834676   9.711  -1.921   6.923 -0.5104 -0.0410 -0.3808
   21FTM     C934677   9.857  -1.900   6.899 -0.3125 -0.3567 -0.0006
   21FTM    C1034678   9.912  -1.760   6.935 -0.6355  0.4291  0.7047
   21FTM    C1134679   9.508  -2.190   7.076  0.5878  0.2523  0.3529
   21FTM    C1234680   9.579  -2.326   7.085 -0.2379 -1.1229  0.4203
   22TPM     C134681   9.860  -1.710   6.453  0.1307  0.4168  0.1742
   22TPM     C234682   9.883  -1.653   6.574  0.1143  0.5722  0.1045
   22TPM     C334683  10.023  -1.640   6.607  0.1082  0.4982  0.1611
   22TPM     C434684  10.106  -1.688   6.510  0.1198  0.2866  0.2735
   22TPM     S134685  10.014  -1.753   6.369  0.1396  0.1632  0.3173
   23BDD     C134686  10.477  -1.692   6.392 -0.0359  0.0634 -0.0124
   23BDD     C234687  10.482  -1.707   6.528 -0.0617  0.0738 -0.0105
   23BDD     C334688  10.352  -1.694   6.592 -0.0653  0.1363 -0.0302
   23BDD     C434689  10.250  -1.670   6.503 -0.0421  0.1726 -0.0469
   23BDD     S134690  10.310  -1.661   6.334 -0.0142  0.1311 -0.0390
   23BDD     C534691  10.606  -1.733   6.604 -0.0841  0.0268  0.0097
   23BDD     C634692  10.333  -1.706   6.738 -0.0915  0.1576 -0.0316
   23BDD     O134693  10.222  -1.695   6.793 -0.0946  0.2114 -0.0486
   23BDD     O234694  10.718  -1.745   6.549 -0.0811 -0.0271  0.0267
   23BDD     C734695  10.457  -1.733   6.814 -0.1139  0.1104 -0.0116
   23BDD     C834696  10.587  -1.746   6.750 -0.1104  0.0479  0.0082
   23BDD     C934697  10.689  -1.770   6.838 -0.1336  0.0117  0.0249
   23BDD     S234698  10.629  -1.778   7.007 -0.1614  0.0530  0.0171
   23BDD    C1034699  10.462  -1.747   6.950 -0.1398  0.1208 -0.0095
   23BDD    C1134700  10.352  -1.733   7.058  0.2026  0.2714  0.0465
   23BDD    C1234701  10.316  -1.863   7.124  0.5886  0.2004  0.3991
   23BDD    C1334702  10.250  -1.951   7.017 -0.0944  0.0217  0.4177
   23BDD    C1434703  10.189  -2.077   7.069 -0.4769 -0.1682 -0.5545
   23BDD    C1534704  10.106  -2.158   6.973 -0.1852  0.0453 -0.6587
   23BDD    C1634705  10.038  -2.289   7.015  0.3178 -0.5092 -0.4096
   23BDD    C1734706  10.241  -1.837   7.262 -0.5396  0.6462 -0.1868
   23BDD    C1834707  10.126  -1.733   7.277 -0.7187  0.1062  0.1989
   23BDD    C1934708  10.832  -1.792   6.812 -0.0993  0.1230 -0.2058
   23BDD    C2034709  10.883  -1.937   6.838  0.2813 -0.1770 -0.3952
   23BDD    C2134710  10.906  -1.970   6.986  0.7006  0.6111  0.0420
   23BDD    C2234711  10.991  -1.899   7.082 -0.5665 -0.0262  0.4332
   23BDD    C2334712  11.130  -1.875   7.016  0.0039 -0.3831  0.4031
   23BDD    C2434713  11.231  -1.801   7.094  0.0957 -0.5442  0.0370
   23BDD    C2534714  10.811  -2.048   6.772  0.4787 -0.2440  1.3790
   23BDD    C2634715  10.823  -2.057   6.616 -0.4366 -0.0936  0.3211
   24TPM     C134716  10.573  -1.692   6.283  0.1368  0.3559  0.4441
   24TPM     C234717  10.577  -1.593   6.189  0.2887  0.5474  0.6517
   24TPM     C334718  10.683  -1.608   6.093  0.2196  0.5445  0.5754
   24TPM     C434719  10.760  -1.719   6.113  0.0149  0.3512  0.3098
   24TPM     S134720  10.704  -1.814   6.256 -0.1073  0.1558  0.1339
   25BDTP    C134721  11.194  -1.907   5.699  0.0198  0.0337 -0.0799
   25BDTP    C234722  11.172  -2.025   5.776  0.0039  0.0607 -0.0430
   25BDTP    C334723  11.081  -2.030   5.881  0.0067  0.1069 -0.0383
   25BDTP    C434724  11.009  -1.914   5.912  0.0260  0.1279 -0.0715
   25BDTP    C534725  11.031  -1.796   5.835  0.0418  0.1009 -0.1085
   25BDTP    C634726  11.121  -1.791   5.730  0.0390  0.0545 -0.1131
   25BDTP    C734727  10.910  -1.895   6.016  0.0325  0.1751 -0.0739
   25BDTP    C834728  10.857  -1.770   6.021  0.0522  0.1851 -0.1103
   25BDTP    S134729  10.926  -1.659   5.895  0.0652  0.1355 -0.1467
   25BDTP    C934730  11.292  -1.926   5.595  0.0132 -0.0138 -0.0776
   25BDTP   C1034731  11.345  -2.051   5.590 -0.0064 -0.0236 -0.0411
   25BDTP    S234732  11.277  -2.162   5.716 -0.0195  0.0260 -0.0047
   26FTM     S134733  11.031  -2.165   6.140  0.4041  0.0075  0.3267
   26FTM     C134734  11.014  -2.344   6.129  0.3833  0.0184  0.1854
   26FTM     C234735  11.028  -2.384   5.999  0.3203  0.1248  0.1456
   26FTM     C334736  11.053  -2.280   5.904  0.2853  0.2025  0.2209
   26FTM     C434737  11.057  -2.157   5.962  0.3226  0.1540  0.3215
   26FTM     F134738  11.020  -2.517   5.960  0.2906  0.1582  0.0389
   26FTM     C534739  10.972  -2.430   6.249  0.0060 -0.1700  0.4820
   26FTM     C634740  10.878  -2.384   6.358 -0.2412  0.2509  0.1756
   26FTM     C734741  10.748  -2.319   6.307 -0.8358  0.0690 -0.1136
   26FTM     C834742  10.661  -2.392   6.199  0.6816 -0.6029 -0.3836
   26FTM     C934743  10.517  -2.333   6.208 -0.1557  1.2300  0.3576
   26FTM    C1034744  10.421  -2.417   6.135  0.1777 -0.7249 -0.1222
   26FTM    C1134745  10.853  -2.506   6.450 -0.0219 -0.0748 -0.1801
   26FTM    C1234746  10.773  -2.472   6.575 -0.3531  0.0806  0.1476
   27FTM     S134747  11.029  -1.568   5.579  0.2219  0.1124  0.3434
   27FTM     C134748  11.154  -1.453   5.519  0.2766 -0.0764  0.0902
   27FTM     C234749  11.278  -1.493   5.559  0.2884 -0.2081 -0.0749
   27FTM     C334750  11.282  -1.613   5.637  0.2564 -0.1712 -0.0159
   27FTM     C434751  11.159  -1.667   5.657  0.2189 -0.0060  0.2013
   27FTM     F134752  11.394  -1.424   5.528  0.3287 -0.3698 -0.2888
   27FTM     C534753  11.116  -1.334   5.437 -0.3297 -0.4822 -0.9296
   27FTM     C634754  10.990  -1.262   5.477  0.2263 -0.4968 -0.1502
   27FTM     C734755  10.919  -1.178   5.369 -0.0770  0.2185 -0.1092
   27FTM     C834756  10.985  -1.052   5.315  0.3110 -0.0537  0.2235
   27FTM     C934757  10.898  -0.958   5.233 -0.6895  0.0711  0.2456
   27FTM    C1034758  10.980  -0.846   5.179 -0.5701 -0.1830 -0.1040
   27FTM    C1134759  10.969  -1.221   5.626 -0.6396  0.4318  0.1921
   27FTM    C1234760  10.834  -1.169   5.674 -0.0782  0.8604 -0.3765
   28TPM     C134761  11.459  -2.073   5.505  0.3426  0.0089  0.0504
   28TPM     C234762  11.548  -2.176   5.513  0.4328  0.0571 -0.3035
   28TPM     C334763  11.641  -2.181   5.403  0.0329  0.1385 -0.6469
   28TPM     C434764  11.622  -2.082   5.311 -0.3621  0.1521 -0.5549
   28TPM     S134765  11.485  -1.974   5.357 -0.2590  0.0628 -0.0230
   29BDD     C134766  11.883  -1.909   5.080  0.0872  0.0055 -0.0143
   29BDD     C234767  11.889  -2.042   5.047  0.1271 -0.0094  0.0536
   29BDD     C334768  11.797  -2.124   5.123  0.1304  0.0060  0.0745
   29BDD     C434769  11.721  -2.054   5.212  0.0931  0.0322  0.0220
   29BDD     S134770  11.760  -1.879   5.207  0.0511  0.0395 -0.0570
   29BDD     C534771  11.981  -2.097   4.945  0.1635 -0.0380  0.1022
   29BDD     C634772  11.787  -2.271   5.104  0.1705 -0.0060  0.1458
   29BDD     O134773  11.708  -2.342   5.169  0.1734  0.0073  0.1637
   29BDD     O234774  12.061  -2.026   4.880  0.1606 -0.0513  0.0842
   29BDD     C734775  11.879  -2.326   5.002  0.2069 -0.0346  0.1942
   29BDD     C834776  11.971  -2.244   4.926  0.2036 -0.0499  0.1736
   29BDD     C934777  12.047  -2.314   4.837  0.2410 -0.0762  0.2260
   29BDD     S234778  12.008  -2.489   4.842  0.2829 -0.0835  0.3050
   29BDD    C1034779  11.886  -2.459   4.970  0.2469 -0.0494  0.2624
   29BDD    C1134780  11.812  -2.581   5.015  0.9287 -0.1618 -0.3691
   29BDD    C1234781  11.735  -2.672   4.910 -0.1896 -0.2519 -1.2053
   29BDD    C1334782  11.697  -2.810   4.968 -0.1941 -1.0813  0.1329
   29BDD    C1434783  11.815  -2.897   5.001  0.0776  0.3182 -0.2976
   29BDD    C1534784  11.917  -2.935   4.901 -0.0753  0.1489 -0.1051
   29BDD    C1634785  12.032  -3.005   4.984 -0.1632  0.3389 -0.3238
   29BDD    C1734786  11.618  -2.602   4.836 -0.2347 -0.7326  0.5627
   29BDD    C1834787  11.540  -2.681   4.728 -0.0051 -0.2077 -0.0698
   29BDD    C1934788  12.172  -2.284   4.762 -0.9367 -0.0301 -0.1765
   29BDD    C2034789  12.307  -2.295   4.847  0.2025  0.4955  0.1130
   29BDD    C2134790  12.410  -2.206   4.783  0.4439  0.0000 -0.2363
   29BDD    C2234791  12.543  -2.173   4.864  0.5337 -0.0170  0.3578
   29BDD    C2334792  12.536  -2.121   5.013  0.4768  0.0890  0.3496
   29BDD    C2434793  12.433  -2.008   5.057  0.2406  0.2165  0.9284
   29BDD    C2534794  12.344  -2.433   4.900  1.0146 -0.6150 -0.6542
   29BDD    C2634795  12.382  -2.532   4.798 -0.4494 -0.2309 -0.3211
   30TPM     C134796  11.966  -1.793   5.054 -0.0811  0.2595 -0.3003
   30TPM     C234797  11.922  -1.687   4.981  0.2724  0.2334 -0.5550
   30TPM     C334798  12.026  -1.593   4.948  0.5005  0.0441 -0.3847
   30TPM     C434799  12.149  -1.628   4.996  0.3211 -0.0742  0.0005
   30TPM     S134800  12.143  -1.783   5.087 -0.1536  0.0454  0.1786
   31BDTP    C134801  12.721  -1.364   5.016 -0.1457  0.1450 -0.0858
   31BDTP    C234802  12.664  -1.300   4.902 -0.2105  0.1822 -0.0323
   31BDTP    C334803  12.535  -1.324   4.859 -0.2066  0.1333 -0.0165
   31BDTP    C434804  12.457  -1.417   4.931 -0.1355  0.0436 -0.0550
   31BDTP    C534805  12.514  -1.482   5.044 -0.0708  0.0064 -0.1085
   31BDTP    C634806  12.644  -1.457   5.088 -0.0746  0.0554 -0.1242
   31BDTP    C734807  12.321  -1.459   4.905 -0.1176 -0.0197 -0.0480
   31BDTP    C834808  12.273  -1.550   4.993 -0.0433 -0.1016 -0.0929
   31BDTP    S134809  12.394  -1.597   5.120  0.0141 -0.1101 -0.1506
   31BDTP    C934810  12.858  -1.323   5.042 -0.1638  0.2084 -0.0929
   31BDTP   C1034811  12.905  -1.231   4.954 -0.2379  0.2902 -0.0479
   31BDTP    S234812  12.784  -1.185   4.827 -0.2954  0.2986  0.0097
   32FTM     S134813  12.400  -1.089   4.786  0.3464  0.2296  0.1959
   32FTM     C134814  12.405  -1.042   4.612 -0.1420 -0.3213  0.0252
   32FTM     C234815  12.467  -1.139   4.540 -0.4633 -0.6115  0.1348
   32FTM     C334816  12.513  -1.253   4.613 -0.3520 -0.4280  0.3531
   32FTM     C434817  12.485  -1.243   4.746  0.0683  0.0177  0.4124
   32FTM     F134818  12.486  -1.131   4.402 -0.8774 -1.0612  0.0440
   32FTM     C534819  12.344  -0.914   4.562  0.2174 -0.2812  0.0616
   32FTM     C634820  12.204  -0.883   4.501  0.1498  0.4337 -0.0683
   32FTM     C734821  12.086  -0.896   4.597 -0.5507 -0.5279  0.7143
   32FTM     C834822  12.070  -0.815   4.722 -0.4428  0.0944  0.4425
   32FTM     C934823  12.070  -0.663   4.713  0.6075  0.1907 -0.1382
   32FTM    C1034824  12.063  -0.595   4.847 -0.4230  0.0044 -0.1384
   32FTM    C1134825  12.165  -0.939   4.365  0.2365  0.6535 -0.0080
   32FTM    C1234826  12.234  -0.878   4.243  0.0163  0.6725 -0.7024
   33FTM     S134827  12.702  -1.707   5.218 -0.0228 -0.1892 -0.1289
   33FTM     C134828  12.753  -1.691   5.390 -0.0118 -0.1459 -0.1362
   33FTM     C234829  12.762  -1.560   5.423  0.3516 -0.1314 -0.2779
   33FTM     C334830  12.730  -1.465   5.320  0.6366 -0.1528 -0.3865
   33FTM     C434831  12.696  -1.527   5.203  0.4867 -0.1846 -0.3264
   33FTM     F134832  12.799  -1.517   5.550  0.4477 -0.0985 -0.3173
   33FTM     C534833  12.775  -1.802   5.484  0.2392  0.5835  0.0454
   33FTM     C634834  12.649  -1.879   5.531 -0.2493  0.1963  0.3191
   33FTM     C734835  12.670  -2.011   5.612  0.0273 -0.0452 -0.0147
   33FTM     C834836  12.779  -2.116   5.584 -0.0663 -0.0808 -0.2206
   33FTM     C934837  12.755  -2.189   5.450 -0.1764 -0.9020  0.2355
   33FTM    C1034838  12.869  -2.271   5.396 -0.4265  0.0216  0.1682
   33FTM    C1134839  12.534  -1.786   5.575  0.1617 -0.0556 -0.8722
   33FTM    C1234840  12.533  -1.720   5.711 -0.0336 -0.2039 -0.4767
   34TPM     C134841  13.036  -1.178   4.957 -0.2456 -0.1381  0.1912
   34TPM     C234842  13.088  -1.061   4.911 -0.4858 -0.0758  0.0725
   34TPM     C334843  13.225  -1.040   4.949 -0.4406  0.1128 -0.1856
   34TPM     C434844  13.277  -1.141   5.025 -0.1659  0.1939 -0.2637
   34TPM     S134845  13.156  -1.271   5.053  0.0587  0.0374 -0.0153
   35BDD     C134846  13.565  -1.177   5.287 -0.1096  0.0931  0.2316
   35BDD     C234847  13.621  -1.107   5.183 -0.0852  0.0358  0.2060
   35BDD     C334848  13.527  -1.080   5.075 -0.0488 -0.0606  0.1502
   35BDD     C434849  13.402  -1.130   5.099 -0.0460 -0.0754  0.1339
   35BDD     S134850  13.392  -1.214   5.257 -0.0889  0.0305  0.1875
   35BDD     C534851  13.762  -1.063   5.179 -0.0944  0.0670  0.2321
   35BDD     C634852  13.566  -1.006   4.953 -0.0180 -0.1345  0.1150
   35BDD     O134853  13.485  -0.983   4.860  0.0134 -0.2172  0.0669
   35BDD     O234854  13.842  -1.086   5.272 -0.1258  0.1500  0.2803
   35BDD     C734855  13.706  -0.962   4.949 -0.0272 -0.1032  0.1409
   35BDD     C834856  13.800  -0.989   5.057 -0.0637 -0.0072  0.1967
   35BDD     C934857  13.925  -0.939   5.034 -0.0664  0.0076  0.2129
   35BDD     S234858  13.935  -0.855   4.876 -0.0236 -0.0980  0.1593
   35BDD    C1034859  13.762  -0.892   4.846 -0.0027 -0.1605  0.1153
   35BDD    C1134860  13.708  -0.836   4.715  0.8081  0.3670  0.0301
   35BDD    C1234861  13.686  -0.686   4.707  0.1628 -0.2043  1.0773
   35BDD    C1334862  13.578  -0.620   4.794 -0.3151 -0.2202 -0.6781
   35BDD    C1434863  13.431  -0.665   4.816 -0.1337 -0.4079 -0.3895
   35BDD    C1534864  13.346  -0.681   4.690 -0.2078 -0.4987  0.0601
   35BDD    C1634865  13.204  -0.727   4.704  0.1357  0.2060  0.2364
   35BDD    C1734866  13.817  -0.615   4.673 -0.1051  0.6004  0.4301
   35BDD    C1834867  13.812  -0.481   4.599 -0.0814  0.9151 -0.0887
   35BDD    C1934868  14.054  -0.932   5.110 -0.8022  0.7105 -0.7142
   35BDD    C2034869  14.178  -0.988   5.043 -0.0969  0.5684 -0.5795
   35BDD    C2134870  14.165  -1.125   4.971 -0.5179  0.2222 -0.2126
   35BDD    C2234871  14.290  -1.187   4.902  0.2112  0.3769  0.2271
   35BDD    C2334872  14.246  -1.290   4.802 -0.1872 -0.1196 -0.3804
   35BDD    C2434873  14.371  -1.349   4.740  0.7040 -0.1050 -0.1881
   35BDD    C2534874  14.315  -0.966   5.114 -0.0482 -0.2023 -0.8449
   35BDD    C2634875  14.331  -1.041   5.244 -0.1449  0.2678 -0.0046
   36TPM     C134876  13.608  -1.244   5.410 -0.5496  0.1770  0.0450
   36TPM     C234877  13.709  -1.204   5.492 -0.7058  0.4706  0.0941
   36TPM     C334878  13.726  -1.287   5.609 -0.4090  0.4170  0.0141
   36TPM     C434879  13.638  -1.391   5.615 -0.0264  0.0822 -0.0962
   36TPM     S134880  13.526  -1.392   5.473 -0.0112 -0.1935 -0.1074
   37BDTP    C134881  13.438  -1.815   6.033  0.1407 -0.2022 -0.1535
   37BDTP    C234882  13.399  -1.691   6.092  0.2755 -0.1862 -0.0961
   37BDTP    C334883  13.428  -1.568   6.034  0.4166 -0.1907 -0.0346
   37BDTP    C434884  13.500  -1.568   5.913  0.4256 -0.2120 -0.0293
   37BDTP    C534885  13.539  -1.692   5.855  0.2908 -0.2282 -0.0868
   37BDTP    C634886  13.510  -1.814   5.912  0.1497 -0.2237 -0.1483
   37BDTP    C734887  13.542  -1.453   5.834  0.5590 -0.2207  0.0291
   37BDTP    C834888  13.610  -1.485   5.721  0.5311 -0.2418  0.0185
   37BDTP    S134889  13.631  -1.664   5.699  0.3322 -0.2544 -0.0671
   37BDTP    C934890  13.396  -1.929   6.112  0.0074 -0.1938 -0.2120
   37BDTP   C1034891  13.328  -1.897   6.225  0.0352 -0.1725 -0.2012
   37BDTP    S234892  13.308  -1.718   6.247  0.2340 -0.1600 -0.1156
   38FTM     S134893  13.399  -1.405   6.275  0.2767  0.0220 -0.3000
   38FTM     C134894  13.356  -1.232   6.247 -0.0570 -0.0034  0.0307
   38FTM     C234895  13.331  -1.211   6.115 -0.5048  0.1135  0.1321
   38FTM     C334896  13.342  -1.326   6.030 -0.6130  0.2272 -0.0370
   38FTM     C434897  13.378  -1.438   6.099 -0.2358  0.1964 -0.2757
   38FTM     F134898  13.295  -1.088   6.064 -0.8433  0.1247  0.3841
   38FTM     C534899  13.350  -1.142   6.364  0.0121 -0.6775  0.4199
   38FTM     C634900  13.483  -1.106   6.423 -0.2919 -0.3438  0.2601
   38FTM     C734901  13.472  -0.963   6.495 -0.5357  0.7257 -0.5052
   38FTM     C834902  13.373  -0.944   6.609  0.2101 -0.4970 -0.8718
   38FTM     C934903  13.368  -0.807   6.665 -0.1083 -0.7389  0.2616
   38FTM    C1034904  13.283  -0.790   6.793  0.0846 -0.0942  0.1429
   38FTM    C1134905  13.559  -1.209   6.501  0.0910 -0.0247 -0.4277
   38FTM    C1234906  13.707  -1.204   6.538  0.1086  0.0146  0.1035
   39FTM     S134907  13.611  -2.076   5.928  0.2514  0.0611 -0.3185
   39FTM     C134908  13.609  -2.176   5.779 -0.1849  0.1039 -0.3438
   39FTM     C234909  13.565  -2.102   5.674 -0.7803  0.0519 -0.1413
   39FTM     C334910  13.532  -1.966   5.702 -0.9298 -0.0229  0.0415
   39FTM     C434911  13.550  -1.935   5.834 -0.4328 -0.0282 -0.0233
   39FTM     F134912  13.553  -2.153   5.545 -1.2252  0.0687 -0.1096
   39FTM     C534913  13.653  -2.321   5.801 -0.2340  0.2747  0.7712
   39FTM     C634914  13.579  -2.393   5.916  0.1720 -0.8777  0.5315
   39FTM     C734915  13.646  -2.514   5.975 -0.5408 -0.2960  0.1098
   39FTM     C834916  13.775  -2.495   6.055  0.5850  0.0458 -0.5563
   39FTM     C934917  13.752  -2.411   6.180  0.1274 -0.2893 -0.1143
   39FTM    C1034918  13.865  -2.420   6.273  0.0951  0.0221 -0.1507
   39FTM    C1134919  13.422  -2.398   5.898  0.3824  0.2279 -0.5554
   39FTM    C1234920  13.341  -2.413   6.032  0.0316  0.3500 -0.0586
   40TPM     C134921  13.301  -1.987   6.334  0.2697 -0.1381  0.1004
   40TPM     C234922  13.269  -1.958   6.463  0.3338 -0.1271  0.1141
   40TPM     C334923  13.251  -2.075   6.546  0.2602 -0.1229  0.1044
   40TPM     C434924  13.270  -2.193   6.480  0.1400 -0.1309  0.0833
   40TPM     S134925  13.312  -2.165   6.307  0.1102 -0.1443  0.0739
   41BDD     C134926  13.396  -2.543   6.609 -0.1072  0.1085 -0.0665
   41BDD     C234927  13.297  -2.508   6.697 -0.0442  0.1612 -0.0167
   41BDD     C334928  13.236  -2.380   6.667  0.1705  0.3045  0.1520
   41BDD     C434929  13.289  -2.319   6.557  0.2683  0.3587  0.2284
   41BDD     S134930  13.419  -2.418   6.483  0.0981  0.2346  0.0945
   41BDD     C534931  13.255  -2.592   6.812 -0.1792  0.0818 -0.1224
   41BDD     C634932  13.127  -2.323   6.749  0.2711  0.3819  0.2314
   41BDD     O134933  13.074  -2.212   6.724  0.4563  0.5054  0.3768
   41BDD     O234934  13.308  -2.702   6.838 -0.3643 -0.0417 -0.2679
   41BDD     C734935  13.086  -2.406   6.864  0.1362  0.3027  0.1254
   41BDD     C834936  13.147  -2.534   6.894 -0.0786  0.1595 -0.0433
   41BDD     C934937  13.094  -2.595   7.004 -0.1763  0.1053 -0.1198
   41BDD     S234938  12.964  -2.496   7.079 -0.0062  0.2295  0.0143
   41BDD    C1034939  12.987  -2.371   6.952  0.1991  0.3556  0.1751
   41BDD    C1134940  12.902  -2.248   6.977 -0.2846  0.0697  0.7337
   41BDD    C1234941  12.939  -2.179   7.108  0.8796  0.5606  0.6847
   41BDD    C1334942  12.924  -2.025   7.102  0.1080  0.3844 -0.0504
   41BDD    C1434943  12.984  -1.949   6.980 -0.0013 -0.0806 -0.7603
   41BDD    C1534944  13.136  -1.965   6.957  0.5338  0.2642  0.2139
   41BDD    C1634945  13.188  -1.861   6.856  0.2468 -0.0499 -0.1484
   41BDD    C1734946  12.881  -2.231   7.246 -0.3102  0.0766 -0.4779
   41BDD    C1834947  12.728  -2.246   7.265 -0.0473 -0.0133 -0.1862
   41BDD    C1934948  13.130  -2.715   7.089  0.0738 -0.0351 -0.1395
   41BDD    C2034949  13.279  -2.717   7.139  0.2317  0.1041  0.3897
   41BDD    C2134950  13.315  -2.596   7.226  1.0330  0.5067  0.0316
   41BDD    C2234951  13.243  -2.563   7.361  0.2638 -0.0057 -0.6252
   41BDD    C2334952  13.255  -2.412   7.390  0.0730  0.2111  0.0589
   41BDD    C2434953  13.155  -2.371   7.494 -0.1590  0.1713  0.2561
   41BDD    C2534954  13.326  -2.845   7.198  0.2541  0.1513 -0.1907
   41BDD    C2634955  13.318  -2.975   7.116 -0.1433 -0.0880  0.3459
   42TPM     C134956  13.492  -2.655   6.589 -0.4509  0.0766 -0.1871
   42TPM     C234957  13.463  -2.786   6.614 -0.3458  0.1000  0.0695
   42TPM     C334958  13.553  -2.878   6.550 -0.0111  0.0495  0.5985
   42TPM     C434959  13.650  -2.817   6.476  0.1387 -0.0128  0.7454
   42TPM     S134960  13.636  -2.637   6.482 -0.1330 -0.0122  0.2228
   43BDTP    C134961  14.094  -3.101   6.121  0.1069  0.1713 -0.0569
   43BDTP    C234962  14.069  -3.199   6.221  0.1950  0.1032 -0.1014
   43BDTP    C334963  13.977  -3.181   6.323  0.1816 -0.0237 -0.0899
   43BDTP    C434964  13.906  -3.059   6.327  0.0762 -0.0869 -0.0316
   43BDTP    C534965  13.931  -2.961   6.227 -0.0120 -0.0190  0.0128
   43BDTP    C634966  14.023  -2.980   6.125  0.0014  0.1080  0.0015
   43BDTP    C734967  13.807  -3.017   6.424  0.0424 -0.2178 -0.0092
   43BDTP    C834968  13.756  -2.894   6.401 -0.0656 -0.2511  0.0494
   43BDTP    S134969  13.827  -2.813   6.254 -0.1398 -0.1214  0.0842
   43BDTP    C934970  14.194  -3.143   6.024  0.1407  0.3021 -0.0794
   43BDTP   C1034971  14.244  -3.267   6.047  0.2488  0.3355 -0.1378
   43BDTP    S234972  14.173  -3.347   6.194  0.3228  0.2056 -0.1728
   44FTM     S134973  13.900  -3.274   6.587  0.0105  0.2702 -0.1358
   44FTM     C134974  13.834  -3.442   6.591 -0.1229  0.3310  0.2879
   44FTM     C234975  13.838  -3.496   6.466 -0.1518  0.0063  0.4269
   44FTM     C334976  13.892  -3.413   6.363 -0.0741 -0.3022  0.2174
   44FTM     C434977  13.930  -3.291   6.409  0.0176 -0.2104 -0.0920
   44FTM     F134978  13.793  -3.624   6.439 -0.2506 -0.0309  0.7519
   44FTM     C534979  13.755  -3.503   6.707 -0.5580  0.1188 -0.0754
   44FTM     C634980  13.623  -3.445   6.760 -0.0611 -0.0091 -0.7165
   44FTM     C734981  13.515  -3.425   6.654  0.9074  0.8326  0.0894
   44FTM     C834982  13.502  -3.282   6.600  0.2223 -0.0642  0.0923
   44FTM     C934983  13.402  -3.192   6.679  0.4423 -0.1068 -0.0688
   44FTM    C1034984  13.452  -3.125   6.812 -0.0210  0.0030  0.2160
   44FTM    C1134985  13.575  -3.521   6.880 -0.4307 -0.0324 -0.4747
   44FTM    C1234986  13.506  -3.448   6.992 -0.4389  0.1996 -0.2534
   45FTM     S134987  14.007  -2.911   5.854 -0.0472 -0.2749  0.0923
   45FTM     C134988  14.045  -2.740   5.812  0.2250 -0.3508  0.0255
   45FTM     C234989  14.080  -2.671   5.924  0.1889 -0.3251  0.0210
   45FTM     C334990  14.079  -2.746   6.047 -0.0470 -0.2470  0.0681
   45FTM     C434991  14.043  -2.876   6.027 -0.1962 -0.2113  0.1102
   45FTM     F134992  14.115  -2.537   5.923  0.3674 -0.3711 -0.0261
   45FTM     C534993  14.046  -2.685   5.673  0.1671  0.1136 -0.6541
   45FTM     C634994  14.140  -2.752   5.561  0.0018  0.2524 -0.3295
   45FTM     C734995  14.287  -2.713   5.567 -0.1904 -0.1165 -0.1296
   45FTM     C834996  14.318  -2.567   5.553  0.0445 -0.6097  0.1014
   45FTM     C934997  14.465  -2.540   5.536 -0.1343 -0.6425 -0.3910
   45FTM    C1034998  14.524  -2.403   5.485  0.1605  0.0527  0.3233
   45FTM    C1134999  14.121  -2.903   5.521 -0.0265  0.2797 -0.0291
   45FTM    C1235000  13.975  -2.932   5.490  0.8591 -0.0808  0.1845
   46TPM     C135001  14.338  -3.338   5.967 -0.0569 -0.2498 -0.0757
   46TPM     C235002  14.425  -3.299   5.869 -0.2447 -0.2636 -0.2493
   46TPM     C335003  14.508  -3.405   5.819 -0.3531 -0.2742 -0.4064
   46TPM     C435004  14.484  -3.525   5.878 -0.2479 -0.2685 -0.3527
   46TPM     S135005  14.355  -3.514   6.003 -0.0018 -0.2491 -0.0976
   47BDD     C135006  14.682  -3.861   5.925 -0.0274 -0.1271 -0.0617
   47BDD     C235007  14.718  -3.817   5.801 -0.0110 -0.0713 -0.0374
   47BDD     C335008  14.656  -3.690   5.765 -0.0029 -0.0530  0.0126
   47BDD     C435009  14.575  -3.639   5.862 -0.0135 -0.0951  0.0260
   47BDD     S135010  14.569  -3.746   6.006 -0.0341 -0.1606 -0.0234
   47BDD     C535011  14.809  -3.890   5.711 -0.0019 -0.0330 -0.0595
   47BDD     C635012  14.681  -3.624   5.635  0.0149  0.0055  0.0458
   47BDD     O135013  14.628  -3.515   5.603  0.0219  0.0213  0.0890
   47BDD     O235014  14.862  -3.999   5.742 -0.0089 -0.0489 -0.1028
   47BDD     C735015  14.772  -3.697   5.544  0.0240  0.0440  0.0236
   47BDD     C835016  14.834  -3.824   5.581  0.0159  0.0256 -0.0266
   47BDD     C935017  14.915  -3.875   5.483  0.0262  0.0677 -0.0397
   47BDD     S235018  14.921  -3.768   5.340  0.0470  0.1331  0.0096
   47BDD    C1035019  14.808  -3.653   5.420  0.0403  0.0998  0.0480
   47BDD    C1135020  14.783  -3.532   5.339  0.0309  0.3852  0.2422
   47BDD    C1235021  14.892  -3.425   5.344  0.2729  0.7039  0.0966
   47BDD    C1335022  14.879  -3.311   5.244  0.0306  0.5337 -0.7912
   47BDD    C1435023  14.845  -3.327   5.096  0.3038  0.4136  0.6423
   47BDD    C1535024  14.771  -3.210   5.037  0.2645  0.3063 -0.1685
   47BDD    C1635025  14.740  -3.242   4.892 -0.1275  0.3280  0.2580
   47BDD    C1735026  14.922  -3.388   5.487 -0.0238 -0.4997  0.1821
   47BDD    C1835027  15.073  -3.373   5.501  0.3231  1.3471  0.2030
   47BDD    C1935028  15.005  -4.001   5.481 -0.0934  0.0426 -0.2561
   47BDD    C2035029  15.001  -4.092   5.365 -0.6934 -0.3554  0.1834
   47BDD    C2135030  15.106  -4.195   5.399 -0.2528  0.0444 -0.5422
   47BDD    C2235031  15.159  -4.292   5.297 -0.2698  0.1621 -0.5157
   47BDD    C2335032  15.228  -4.421   5.344 -0.7087 -0.0621 -0.0395
   47BDD    C2435033  15.140  -4.527   5.407  0.1515  0.3718  0.1838
   47BDD    C2535034  14.863  -4.147   5.324  0.2752  0.0911  0.1062
   47BDD    C2635035  14.774  -4.243   5.402 -0.4194 -0.0278  0.2476
   48TPM     C135036  14.703  -3.984   6.004  0.2340  0.2086  0.5010
   48TPM     C235037  14.820  -4.052   6.011  0.2508  0.2820  1.0209
   48TPM     C335038  14.814  -4.168   6.097 -0.1967  0.0163  0.6438
   48TPM     C435039  14.693  -4.187   6.155 -0.5549 -0.2598 -0.1635
   48TPM     S135040  14.575  -4.060   6.106 -0.3532 -0.2049 -0.5128
   49BDTP    C135041  14.523  -4.651   6.550  0.0466 -0.1243 -0.1746
   49BDTP    C235042  14.654  -4.690   6.510  0.0422 -0.1081 -0.2043
   49BDTP    C335043  14.730  -4.617   6.419  0.0088 -0.1031 -0.2285
   49BDTP    C435044  14.674  -4.499   6.366 -0.0217 -0.1150 -0.2229
   49BDTP    C535045  14.544  -4.460   6.407 -0.0174 -0.1312 -0.1930
   49BDTP    C635046  14.468  -4.533   6.497  0.0159 -0.1362 -0.1691
   49BDTP    C735047  14.734  -4.407   6.271 -0.0587 -0.1129 -0.2442
   49BDTP    C835048  14.655  -4.302   6.239 -0.0824 -0.1267 -0.2320
   49BDTP    S135049  14.494  -4.304   6.325 -0.0608 -0.1442 -0.1918
   49BDTP    C935050  14.464  -4.743   6.645  0.0837 -0.1264 -0.1534
   49BDTP   C1035051  14.543  -4.848   6.677  0.1073 -0.1125 -0.1657
   49BDTP    S235052  14.703  -4.846   6.592  0.0855 -0.0951 -0.2058
   50FTM     S135053  14.980  -4.700   6.535 -0.0732  0.3474 -0.2772
   50FTM     C135054  15.105  -4.762   6.420 -0.2319 -0.2651 -0.1223
   50FTM     C235055  15.061  -4.748   6.292 -0.3242 -0.7631 -0.1501
   50FTM     C335056  14.931  -4.689   6.276 -0.2781 -0.7004 -0.2900
   50FTM     C435057  14.874  -4.657   6.395 -0.1463 -0.1357 -0.3719
   50FTM     F135058  15.136  -4.788   6.182 -0.4561 -1.3056 -0.0504
   50FTM     C535059  15.229  -4.841   6.457  0.5329 -0.5883  0.2751
   50FTM     C635060  15.277  -4.874   6.597 -0.2343 -0.9434 -0.3635
   50FTM     C735061  15.380  -4.986   6.624 -0.0199  0.2886  0.3261
   50FTM     C835062  15.362  -5.119   6.540  0.4299  0.0312 -0.2469
   50FTM     C935063  15.460  -5.237   6.562  0.6049 -0.1880 -0.8345
   50FTM    C1035064  15.494  -5.274   6.706  0.3293 -0.0653 -0.2110
   50FTM    C1135065  15.292  -4.753   6.690 -0.9496 -0.0247 -0.3674
   50FTM    C1235066  15.283  -4.767   6.843  0.9131  0.2163 -0.0884
   51FTM     S135067  14.193  -4.571   6.560  0.0513 -0.3297  0.0188
   51FTM     C135068  14.114  -4.436   6.649 -0.0345 -0.0938 -0.4102
   51FTM     C235069  14.202  -4.334   6.666 -0.0733 -0.0186 -0.6592
   51FTM     C335070  14.333  -4.354   6.612 -0.0396 -0.1373 -0.5348
   51FTM     C435071  14.346  -4.476   6.552  0.0276 -0.3088 -0.1789
   51FTM     F135072  14.169  -4.216   6.731 -0.1419  0.1619 -1.0148
   51FTM     C535073  13.979  -4.458   6.704  0.3066 -0.0074 -0.7042
   51FTM     C635074  13.857  -4.508   6.610 -0.4361  0.1523 -0.2286
   51FTM     C735075  13.722  -4.551   6.678 -0.3937 -0.6814 -0.2213
   51FTM     C835076  13.742  -4.656   6.790  0.4199  0.6049 -0.0834
   51FTM     C935077  13.601  -4.684   6.845 -0.0673  0.3872  0.9389
   51FTM    C1035078  13.610  -4.784   6.957  0.5685 -0.2657 -0.5204
   51FTM    C1135079  13.852  -4.455   6.465 -0.5952  0.6492  0.2005
   51FTM    C1235080  13.774  -4.538   6.364 -0.9686 -0.1820  0.0230
   52TPM     C135081  14.517  -4.957   6.765 -0.0464 -0.1414 -0.1258
   52TPM     C235082  14.549  -5.089   6.751 -0.4667 -0.2319 -0.2548
   52TPM     C335083  14.491  -5.174   6.851 -0.7557 -0.1493 -0.3506
   52TPM     C435084  14.414  -5.106   6.942 -0.5557  0.0043 -0.2950
   52TPM     S135085  14.410  -4.929   6.907  0.0175  0.0566 -0.1156
   53BDD     C135086  14.303  -5.384   7.197  0.2658  0.2615  0.2831
   53BDD     C235087  14.265  -5.266   7.256  0.1283  0.2255  0.2687
   53BDD     C335088  14.294  -5.149   7.174  0.0323  0.2530  0.2736
   53BDD     C435089  14.353  -5.180   7.055  0.0982  0.3095  0.2917
   53BDD     S135090  14.377  -5.356   7.035  0.2849  0.3321  0.3037
   53BDD     C535091  14.202  -5.257   7.389  0.0799  0.1649  0.2500
   53BDD     C635092  14.263  -5.012   7.219 -0.1210  0.2223  0.2601
   53BDD     O135093  14.288  -4.911   7.149 -0.2038  0.2459  0.2644
   53BDD     O235094  14.177  -5.358   7.458  0.1626  0.1411  0.2457
   53BDD     C735095  14.199  -5.003   7.352 -0.1694  0.1614  0.2416
   53BDD     C835096  14.170  -5.120   7.433 -0.0734  0.1341  0.2366
   53BDD     C935097  14.111  -5.089   7.552 -0.1392  0.0776  0.2184
   53BDD     S235098  14.088  -4.913   7.572 -0.3258  0.0550  0.2064
   53BDD    C1035099  14.162  -4.885   7.411 -0.3068  0.1255  0.2270
   53BDD    C1135100  14.187  -4.741   7.361 -0.0536 -0.4745 -0.7702
   53BDD    C1235101  14.051  -4.670   7.348  0.2302 -0.1395  0.2109
   53BDD    C1335102  14.041  -4.517   7.366 -0.3818 -0.3046 -0.0706
   53BDD    C1435103  14.125  -4.453   7.483  0.2472  0.0642 -0.3685
   53BDD    C1535104  14.092  -4.507   7.620  0.4038  0.4390  0.3497
   53BDD    C1635105  14.170  -4.457   7.736 -0.1605  0.3066 -0.6388
   53BDD    C1735106  13.954  -4.725   7.242  0.5751  0.2727  0.0128
   53BDD    C1835107  13.987  -4.681   7.104  0.8646  0.4785  0.1119
   53BDD    C1935108  14.049  -5.173   7.655 -0.1222 -0.1518 -0.6616
   53BDD    C2035109  14.144  -5.204   7.774  0.4182 -0.6344  0.3822
   53BDD    C2135110  14.091  -5.302   7.881 -0.3102  0.2359  0.0536
   53BDD    C2235111  14.023  -5.431   7.833  0.2012  0.0819  0.5683
   53BDD    C2335112  14.125  -5.524   7.775 -0.7155  0.4701 -0.3411
   53BDD    C2435113  14.063  -5.657   7.743  0.3296  0.8471 -0.2887
   53BDD    C2535114  14.194  -5.077   7.841 -0.4828 -0.5233 -0.8875
   53BDD    C2635115  14.320  -5.081   7.924 -0.6396  0.1929 -0.5392
   54TPM     C135116  14.297  -5.528   7.227  0.0427  0.2490 -0.2041
   54TPM     C235117  14.311  -5.621   7.128  0.2964  0.2875 -0.2071
   54TPM     C335118  14.300  -5.757   7.175  0.6276  0.2566 -0.2173
   54TPM     C435119  14.279  -5.767   7.310  0.6265  0.1945 -0.2221
   54TPM     S135120  14.270  -5.605   7.388  0.2037  0.1703 -0.2140
   55BDTP    C135121  14.271  -6.301   7.633 -0.0619 -0.0224  0.1208
   55BDTP    C235122  14.279  -6.202   7.735 -0.0998 -0.0125  0.1141
   55BDTP    C335123  14.281  -6.066   7.708 -0.1683 -0.0132  0.1060
   55BDTP    C435124  14.274  -6.025   7.574 -0.2016 -0.0244  0.1042
   55BDTP    C535125  14.266  -6.124   7.471 -0.1634 -0.0343  0.1109
   55BDTP    C635126  14.264  -6.260   7.498 -0.0949 -0.0336  0.1190
   55BDTP    C735127  14.274  -5.890   7.522 -0.2722 -0.0273  0.0961
   55BDTP    C835128  14.267  -5.882   7.387 -0.2890 -0.0389  0.0964
   55BDTP    S135129  14.258  -6.046   7.307 -0.2174 -0.0477  0.1069
   55BDTP    C935130  14.271  -6.436   7.685  0.0089 -0.0195  0.1287
   55BDTP   C1035131  14.278  -6.444   7.820  0.0255 -0.0079  0.1285
   55BDTP    S235132  14.287  -6.280   7.900 -0.0457  0.0009  0.1179
   56FTM     S135133  14.411  -5.839   7.821 -0.1207 -0.0360 -0.4070
   56FTM     C135134  14.346  -5.777   7.977  0.5909 -0.0022 -0.1152
   56FTM     C235135  14.247  -5.859   8.022  0.7486  0.0422  0.3226
   56FTM     C335136  14.217  -5.972   7.939  0.3355  0.0523  0.4545
   56FTM     C435137  14.295  -5.977   7.828 -0.1545  0.0145  0.1064
   56FTM     F135138  14.178  -5.837   8.140  1.2764  0.0762  0.6299
   56FTM     C535139  14.395  -5.642   8.027 -0.1902 -0.0289 -0.1031
   56FTM     C635140  14.495  -5.636   8.142  1.4195  0.5250 -0.4544
   56FTM     C735141  14.623  -5.718   8.133 -0.5234 -0.1171  0.1644
   56FTM     C835142  14.710  -5.689   8.010  0.0556 -1.0735  0.0315
   56FTM     C935143  14.847  -5.752   8.001 -0.2009  0.0918 -0.7498
   56FTM    C1035144  14.931  -5.689   7.888 -0.0762  0.1197 -0.0008
   56FTM    C1135145  14.522  -5.504   8.209  0.2879 -0.4362 -0.0173
   56FTM    C1235146  14.406  -5.415   8.253 -0.2803  0.0600 -0.5955
   57FTM     S135147  14.096  -6.334   7.278 -0.2474  0.1415  0.1115
   57FTM     C135148  14.141  -6.484   7.191 -0.3895  0.2569 -0.1629
   57FTM     C235149  14.251  -6.540   7.248 -0.2409  0.2291 -0.4709
   57FTM     C335150  14.306  -6.470   7.361 -0.0131  0.1190 -0.5112
   57FTM     C435151  14.235  -6.358   7.391  0.0139  0.0606 -0.2249
   57FTM     F135152  14.310  -6.657   7.202 -0.3026  0.3017 -0.7344
   57FTM     C535153  14.075  -6.525   7.069  0.4606 -0.2850  0.4953
   57FTM     C635154  13.948  -6.609   7.079  0.1464  0.0175  0.0157
   57FTM     C735155  13.963  -6.762   7.095 -0.5620  0.4462 -0.0548
   57FTM     C835156  14.038  -6.827   6.981 -0.7545 -0.8831 -0.0176
   57FTM     C935157  14.126  -6.937   7.034  0.2067 -0.2720 -0.9447
   57FTM    C1035158  14.165  -7.035   6.920 -0.4302  0.3842 -0.2839
   57FTM    C1135159  13.822  -6.533   7.146 -0.1195  0.7101  0.0766
   57FTM    C1235160  13.679  -6.589   7.126 -0.4200  0.0079 -0.3797
   58TPM     C135161  14.279  -6.557   7.905  0.3404  0.0047  0.1001
   58TPM     C235162  14.203  -6.669   7.890  0.1941  0.1028  0.1019
   58TPM     C335163  14.226  -6.770   7.990 -0.0476  0.1354  0.1925
   58TPM     C435164  14.320  -6.734   8.082 -0.0856  0.0621  0.2593
   58TPM     S135165  14.386  -6.570   8.050  0.1831 -0.0547  0.2131
   59BDD     C135166  14.545  -6.934   8.336 -0.1744 -0.1633 -0.2409
   59BDD     C235167  14.421  -6.991   8.348 -0.1457 -0.2030 -0.1290
   59BDD     C335168  14.323  -6.934   8.259 -0.2360 -0.2592 -0.0656
   59BDD     C435169  14.372  -6.833   8.181 -0.3321 -0.2616 -0.1299
   59BDD     S135170  14.546  -6.804   8.213 -0.3164 -0.1937 -0.2744
   59BDD     C535171  14.390  -7.101   8.442 -0.0345 -0.1906 -0.0765
   59BDD     C635172  14.182  -6.980   8.255 -0.2235 -0.3085  0.0565
   59BDD     O135173  14.097  -6.930   8.178 -0.3014 -0.3570  0.1111
   59BDD     O235174  14.475  -7.151   8.519  0.0434 -0.1421 -0.1311
   59BDD     C735175  14.150  -7.090   8.348 -0.1122 -0.2961  0.1087
   59BDD     C835176  14.249  -7.148   8.438 -0.0221 -0.2398  0.0453
   59BDD     C935177  14.200  -7.248   8.516  0.0740 -0.2375  0.1097
   59BDD     S235178  14.026  -7.277   8.484  0.0581 -0.3054  0.2542
   59BDD    C1035179  14.027  -7.147   8.360 -0.0838 -0.3358  0.2205
   59BDD    C1135180  13.906  -7.149   8.275  0.0250 -0.3656  0.5962
   59BDD    C1235181  13.929  -7.181   8.124  0.0675 -0.2358  0.1964
   59BDD    C1335182  13.792  -7.165   8.048 -0.2251 -0.1057  0.0260
   59BDD    C1435183  13.788  -7.185   7.900 -0.5562 -0.1104  0.6643
   59BDD    C1535184  13.650  -7.140   7.837 -0.6933 -0.2015 -0.0825
   59BDD    C1635185  13.635  -7.191   7.694 -0.1722 -0.1618 -0.2132
   59BDD    C1735186  14.003  -7.319   8.093 -0.2246 -0.1977 -0.7466
   59BDD    C1835187  13.921  -7.447   8.110  0.7470 -0.2469  0.0026
   59BDD    C1935188  14.261  -7.335   8.620 -0.5837  0.8797  0.5745
   59BDD    C2035189  14.254  -7.294   8.764  0.2641 -0.0747 -0.1886
   59BDD    C2135190  14.328  -7.381   8.867  0.0386  0.2127 -0.4536
   59BDD    C2235191  14.477  -7.393   8.854  0.0135  0.4309 -0.5280
   59BDD    C2335192  14.572  -7.277   8.879  0.6209 -0.5360 -0.0677
   59BDD    C2435193  14.707  -7.290   8.817 -0.0780 -0.2366  0.7670
   59BDD    C2535194  14.111  -7.263   8.819  0.1350  0.2135  0.0537
   59BDD    C2635195  14.013  -7.381   8.846 -0.0613  0.1099  0.6751
   60TPM     C135196  14.667  -6.935   8.413  0.1262 -0.0078 -0.4746
   60TPM     C235197  14.739  -7.050   8.422  0.2832  0.0951 -0.4029
   60TPM     C335198  14.879  -7.029   8.452  0.1918  0.2855 -0.1066
   60TPM     C435199  14.912  -6.898   8.467 -0.0351  0.3277  0.0477
   60TPM     S135200  14.770  -6.790   8.443 -0.1514  0.1287 -0.1711
    1BDTP    C135201   1.277   6.227   2.595 -0.0266  0.0564  0.0617
    1BDTP    C235202   1.406   6.189   2.550 -0.0581 -0.0403  0.0537
    1BDTP    C335203   1.507   6.148   2.636 -0.0846 -0.1206  0.0470
    1BDTP    C435204   1.479   6.145   2.774 -0.0800 -0.1048  0.0483
    1BDTP    C535205   1.350   6.183   2.819 -0.0485 -0.0080  0.0563
    1BDTP    C635206   1.249   6.224   2.733 -0.0219  0.0723  0.0630
    1BDTP    C735207   1.568   6.106   2.881 -0.1039 -0.1763  0.0424
    1BDTP    C835208   1.512   6.114   3.005 -0.0920 -0.1384  0.0455
    1BDTP    S135209   1.339   6.171   3.001 -0.0488 -0.0068  0.0564
    1BDTP    C935210   1.188   6.266   2.488 -0.0027  0.1279  0.0677
    1BDTP   C1035211   1.244   6.258   2.364 -0.0146  0.0900  0.0646
    1BDTP    S235212   1.417   6.201   2.368 -0.0577 -0.0416  0.0536
    2FTM     S135213   1.788   6.180   2.633 -0.4037 -0.0980  0.0901
    2FTM     C135214   1.880   6.079   2.515 -0.1202  0.0119  0.2160
    2FTM     C235215   1.794   6.001   2.445  0.0785 -0.1540  0.1575
    2FTM     C335216   1.655   6.014   2.477  0.0236 -0.3715  0.0145
    2FTM     C435217   1.634   6.106   2.575 -0.2251 -0.3721 -0.0380
    2FTM     F135218   1.836   5.912   2.347  0.3217 -0.1189  0.2297
    2FTM     C535219   2.031   6.104   2.504 -0.2902 -0.2912 -0.1501
    2FTM     C635220   2.132   6.003   2.560 -0.4161 -0.0368 -0.3643
    2FTM     C735221   2.277   6.042   2.535 -0.5078  0.7238  0.5528
    2FTM     C835222   2.315   6.058   2.389 -0.5120  0.0938  0.9715
    2FTM     C935223   2.462   6.094   2.377  0.0006  0.6522  0.4044
    2FTM    C1035224   2.513   6.123   2.231 -0.3313 -0.4903 -0.0185
    2FTM    C1135225   2.111   5.972   2.710 -0.6799 -0.6477  0.1873
    2FTM    C1235226   2.133   6.086   2.812  0.1760  0.1575  0.4128
    3FTM     S135227   1.029   6.414   2.755  0.0838 -0.6509 -0.3849
    3FTM     C135228   0.886   6.356   2.849 -0.0649 -0.1554 -0.3038
    3FTM     C235229   0.910   6.232   2.898 -0.2459 -0.0075  0.1708
    3FTM     C335230   1.037   6.174   2.867 -0.2793 -0.2642  0.4927
    3FTM     C435231   1.114   6.258   2.791 -0.1185 -0.6203  0.2567
    3FTM     F135232   0.817   6.162   2.974 -0.3923  0.3694  0.3421
    3FTM     C535233   0.767   6.452   2.856 -0.2589 -0.4485 -0.5178
    3FTM     C635234   0.747   6.548   2.972 -0.2034  0.0964 -0.3545
    3FTM     C735235   0.728   6.488   3.111  0.3708  0.2761 -0.1197
    3FTM     C835236   0.599   6.409   3.142  0.3765 -0.4369  0.2680
    3FTM     C935237   0.453   6.470   3.137  0.3739  0.0211 -0.4519
    3FTM    C1035238   0.348   6.371   3.100  0.0729  0.1270 -0.6276
    3FTM    C1135239   0.836   6.668   2.981 -0.1917  0.0020  0.5351
    3FTM    C1235240   0.847   6.753   2.856 -0.1377 -0.0074  0.3006
    4TPM     C135241   1.184   6.288   2.235  0.1922  0.3501  0.2678
    4TPM     C235242   1.231   6.256   2.112  0.4956  0.5898  0.3181
    4TPM     C335243   1.146   6.298   2.004  0.5846  0.4913  0.2084
    4TPM     C435244   1.034   6.364   2.045  0.3491  0.1764  0.0745
    4TPM     S135245   1.027   6.376   2.225 -0.0062 -0.0217  0.0766
    5BDD     C135246   0.861   6.574   1.766 -0.0564 -0.1314 -0.0019
    5BDD     C235247   0.761   6.498   1.819 -0.0601 -0.1127  0.0181
    5BDD     C335248   0.805   6.412   1.927 -0.0361 -0.1870 -0.0509
    5BDD     C435249   0.938   6.423   1.955 -0.0145 -0.2615 -0.1226
    5BDD     S135250   1.018   6.543   1.848 -0.0227 -0.2435 -0.1086
    5BDD     C535251   0.621   6.502   1.772 -0.0857 -0.0255  0.1014
    5BDD     C635252   0.713   6.321   1.999 -0.0355 -0.1817 -0.0432
    5BDD     O135253   0.751   6.246   2.092 -0.0149 -0.2459 -0.1027
    5BDD     O235254   0.583   6.577   1.679 -0.1063  0.0386  0.1609
    5BDD     C735255   0.573   6.325   1.952 -0.0612 -0.0947  0.0401
    5BDD     C835256   0.529   6.411   1.844 -0.0851 -0.0200  0.1091
    5BDD     C935257   0.395   6.400   1.816 -0.1067  0.0544  0.1808
    5BDD     S235258   0.316   6.280   1.923 -0.0985  0.0364  0.1668
    5BDD    C1035259   0.472   6.249   2.005 -0.0648 -0.0758  0.0602
    5BDD    C1135260   0.486   6.143   2.118  0.2157  0.5012 -0.1495
    5BDD    C1235261   0.407   6.140   2.251 -0.2650 -0.4276  0.0692
    5BDD    C1335262   0.426   6.272   2.325 -0.1979 -0.1846 -0.4012
    5BDD    C1435263   0.400   6.260   2.480 -0.4758 -0.8768 -0.0155
    5BDD    C1535264   0.424   6.394   2.553 -0.0951 -0.7010  0.2576
    5BDD    C1635265   0.415   6.387   2.706 -0.6835  0.1702  0.1511
    5BDD    C1735266   0.257   6.114   2.235 -0.5763 -0.7608  0.7109
    5BDD    C1835267   0.210   6.001   2.138 -0.6874 -0.4881 -0.1944
    5BDD    C1935268   0.304   6.457   1.710  0.3161  0.4620 -0.5212
    5BDD    C2035269   0.248   6.357   1.618 -0.1813  0.1653  0.2702
    5BDD    C2135270   0.355   6.282   1.533  0.0868 -1.0994  0.1875
    5BDD    C2235271   0.442   6.355   1.426  0.3285  0.1351  0.6157
    5BDD    C2335272   0.563   6.278   1.385 -0.8485  0.2535 -0.1566
    5BDD    C2435273   0.535   6.168   1.283 -0.3326 -0.3154  0.2658
    5BDD    C2535274   0.123   6.404   1.539 -0.3542  0.0817  0.0733
    5BDD    C2635275   0.034   6.301   1.462  0.8081 -0.0221  0.2431
    6TPM     C135276   0.877   6.678   1.658 -0.1003 -0.2554 -0.1699
    6TPM     C235277   0.824   6.665   1.533 -0.5035  0.2927 -0.0642
    6TPM     C335278   0.879   6.757   1.437 -0.5156  0.4411  0.0711
    6TPM     C435279   0.973   6.841   1.488 -0.1216  0.0061  0.0685
    6TPM     S135280   1.001   6.809   1.664  0.2985 -0.6296 -0.1063
    7BDTP    C135281   1.361   7.239   1.190  0.0213  0.0570 -0.0297
    7BDTP    C235282   1.264   7.207   1.091  0.1175 -0.1329 -0.0629
    7BDTP    C335283   1.156   7.123   1.116  0.1450 -0.1595 -0.0336
    7BDTP    C435284   1.143   7.068   1.245  0.0744  0.0087  0.0315
    7BDTP    C535285   1.240   7.100   1.344 -0.0217  0.1985  0.0647
    7BDTP    C635286   1.348   7.184   1.319 -0.0492  0.2251  0.0354
    7BDTP    C735287   1.040   6.979   1.294  0.0858  0.0178  0.0720
    7BDTP    C835288   1.055   6.943   1.424  0.0039  0.2029  0.1331
    7BDTP    S135289   1.201   7.017   1.502 -0.0992  0.3917  0.1481
    7BDTP    C935290   1.464   7.328   1.141  0.0100  0.0479 -0.0702
    7BDTP   C1035291   1.449   7.364   1.011  0.0919 -0.1372 -0.1313
    7BDTP    S235292   1.302   7.290   0.933  0.1950 -0.3260 -0.1462
    8FTM     S135293   1.074   6.928   0.921 -0.1766 -0.1060 -0.0853
    8FTM     C135294   0.937   6.976   0.816  0.1252  0.0883 -0.3951
    8FTM     C235295   0.895   7.101   0.847  0.4847  0.3004 -0.7555
    8FTM     C335296   0.967   7.167   0.952  0.5458  0.3241 -0.8115
    8FTM     C435297   1.066   7.089   1.004  0.2226  0.1237 -0.4831
    8FTM     F135298   0.791   7.165   0.782  0.7797  0.4857 -1.0563
    8FTM     C535299   0.898   6.868   0.714  0.4512 -0.4307 -0.4168
    8FTM     C635300   0.978   6.846   0.579  0.3469 -0.3856 -0.2571
    8FTM     C735301   1.117   6.788   0.601  0.0170  0.2356 -0.0680
    8FTM     C835302   1.133   6.653   0.677 -0.1181  0.0119  0.1892
    8FTM     C935303   1.267   6.600   0.698  0.2833  0.1029 -0.5126
    8FTM    C1035304   1.261   6.493   0.801 -0.5774  0.0558  0.4679
    8FTM    C1135305   0.981   6.959   0.481 -0.0534  0.2618  0.1280
    8FTM    C1235306   0.850   7.026   0.432  0.0027  0.2294  0.3736
    9FTM     S135307   1.361   7.287   1.583  0.0128  0.1013 -0.0465
    9FTM     C135308   1.517   7.268   1.671  0.0138  0.2949 -0.0060
    9FTM     C235309   1.611   7.219   1.587  0.0218  0.1415  0.0933
    9FTM     C335310   1.569   7.193   1.453  0.0275 -0.1293  0.1427
    9FTM     C435311   1.438   7.224   1.433  0.0238 -0.1851  0.0792
    9FTM     F135312   1.742   7.194   1.627  0.0245  0.2372  0.1454
    9FTM     C535313   1.533   7.319   1.811 -0.0123 -0.4298 -0.2782
    9FTM     C635314   1.590   7.463   1.845 -0.2721  0.2725  0.4163
    9FTM     C735315   1.568   7.495   1.991  0.4168  0.0881  0.2984
    9FTM     C835316   1.417   7.509   2.011  0.3494  0.3799 -0.2113
    9FTM     C935317   1.378   7.564   2.150 -0.0882 -0.0329 -0.5345
    9FTM    C1035318   1.231   7.598   2.178  0.5737 -0.1359  0.4031
    9FTM    C1135319   1.736   7.507   1.798 -0.0464 -0.0138  0.1016
    9FTM    C1235320   1.859   7.431   1.853  0.0246  0.0215 -0.5155
   10TPM     C135321   1.541   7.450   0.937  0.1543  0.0002  0.4730
   10TPM     C235322   1.506   7.505   0.817 -0.0420 -0.2000  0.4363
   10TPM     C335323   1.604   7.597   0.765 -0.0427 -0.4253  0.0319
   10TPM     C435324   1.713   7.611   0.845  0.1530 -0.3971 -0.2396
   10TPM     S135325   1.701   7.510   0.993  0.3550 -0.0808 -0.0039
   11BDD     C135326   1.941   7.875   0.660 -0.0834  0.0160 -0.1430
   11BDD     C235327   1.957   7.902   0.793 -0.0708  0.0212 -0.1456
   11BDD     C335328   1.885   7.810   0.880 -0.1054  0.0567 -0.1366
   11BDD     C435329   1.815   7.715   0.812 -0.1438  0.0779 -0.1273
   11BDD     S135330   1.835   7.732   0.634 -0.1394  0.0550 -0.1291
   11BDD     C535331   2.039   8.014   0.845 -0.0265 -0.0060 -0.1564
   11BDD     C635332   1.888   7.821   1.027 -0.0991  0.0684 -0.1376
   11BDD     O135333   1.826   7.742   1.102 -0.1289  0.0989 -0.1298
   11BDD     O235334   2.101   8.093   0.771  0.0033 -0.0367 -0.1642
   11BDD     C735335   1.970   7.933   1.080 -0.0547  0.0409 -0.1484
   11BDD     C835336   2.042   8.025   0.993 -0.0201  0.0055 -0.1574
   11BDD     C935337   2.111   8.121   1.061  0.0182 -0.0157 -0.1668
   11BDD     S235338   2.092   8.103   1.238  0.0139  0.0073 -0.1650
   11BDD    C1035339   1.986   7.960   1.213 -0.0422  0.0464 -0.1510
   11BDD    C1135340   1.921   7.897   1.336  0.3048  0.3920 -0.5070
   11BDD    C1235341   2.020   7.813   1.423  0.2184 -0.0607 -0.6407
   11BDD    C1335342   2.044   7.670   1.378  0.1290  1.4383  0.3709
   11BDD    C1435343   1.934   7.567   1.387 -0.2447  0.5905 -0.3778
   11BDD    C1535344   1.980   7.416   1.381 -0.0738 -0.2990 -0.5161
   11BDD    C1635345   2.066   7.362   1.493  0.0943  0.2991 -0.1150
   11BDD    C1735346   1.992   7.825   1.576 -0.5962  0.0124  0.7682
   11BDD    C1835347   1.996   7.973   1.618 -0.1024  0.5665 -0.1496
   11BDD    C1935348   2.214   8.222   1.019  0.2517 -0.1974  0.1994
   11BDD    C2035349   2.172   8.375   1.032 -0.1937  0.4440  0.4460
   11BDD    C2135350   2.025   8.418   1.000  0.4044  0.2836 -0.3538
   11BDD    C2235351   1.970   8.391   0.857  0.1974 -0.8172  0.0625
   11BDD    C2335352   1.818   8.421   0.855 -0.1663 -0.1880  0.7883
   11BDD    C2435353   1.762   8.417   0.718 -0.1190 -0.2633  0.4210
   11BDD    C2535354   2.285   8.457   0.967  0.3298 -0.2617 -0.5127
   11BDD    C2635355   2.277   8.608   0.975  0.0253  0.3531  0.3367
   12TPM     C135356   1.980   7.944   0.534  0.1202  0.0472  0.2685
   12TPM     C235357   2.106   7.993   0.515  0.1298  0.0367  0.3055
   12TPM     C335358   2.137   8.019   0.377  0.2089 -0.0622  0.3051
   12TPM     C435359   2.036   7.989   0.291  0.2594 -0.1272  0.2678
   12TPM     S135360   1.891   7.926   0.378  0.2108 -0.0679  0.2300
   13BDTP    C135361   2.104   8.125  -0.318  0.2127 -0.2244  0.1371
   13BDTP    C235362   1.965   8.151  -0.296  0.2162 -0.1478  0.0670
   13BDTP    C335363   1.904   8.133  -0.173  0.1528 -0.0741  0.0463
   13BDTP    C435364   1.983   8.088  -0.066  0.0827 -0.0761  0.0975
   13BDTP    C535365   2.121   8.061  -0.088  0.0793 -0.1526  0.1674
   13BDTP    C635366   2.183   8.079  -0.211  0.1426 -0.2265  0.1878
   13BDTP    C735367   1.942   8.062   0.071  0.0096 -0.0076  0.0881
   13BDTP    C835368   2.041   8.018   0.151 -0.0478 -0.0291  0.1473
   13BDTP    S135369   2.201   8.003   0.066 -0.0173 -0.1390  0.2227
   13BDTP    C935370   2.145   8.151  -0.454  0.2859 -0.2930  0.1459
   13BDTP   C1035371   2.046   8.195  -0.535  0.3433 -0.2713  0.0868
   13BDTP    S235372   1.886   8.209  -0.450  0.3128 -0.1615  0.0114
   14FTM     S135373   1.713   8.270  -0.013 -0.0901 -0.2033 -0.1258
   14FTM     C135374   1.539   8.253  -0.058 -0.1186 -0.0862 -0.0600
   14FTM     C235375   1.527   8.179  -0.171 -0.2261 -0.2961  0.0877
   14FTM     C335376   1.649   8.132  -0.229 -0.2913 -0.5553  0.1569
   14FTM     C435377   1.758   8.172  -0.158 -0.2318 -0.5426  0.0591
   14FTM     F135378   1.405   8.149  -0.229 -0.2719 -0.2663  0.1690
   14FTM     C535379   1.438   8.316   0.033 -0.5269 -1.5348  0.2437
   14FTM     C635380   1.451   8.303   0.186  0.2241 -0.4570  0.4253
   14FTM     C735381   1.464   8.168   0.256 -0.1178  0.4301  0.1427
   14FTM     C835382   1.358   8.062   0.204  0.1042 -0.9495 -0.0306
   14FTM     C935383   1.339   7.953   0.302 -0.1602  0.1128  0.2456
   14FTM    C1035384   1.243   7.847   0.250  0.0458  0.1490 -0.4857
   14FTM    C1135385   1.557   8.401   0.243  0.6529  0.2939  0.4513
   14FTM    C1235386   1.552   8.543   0.201 -0.2212 -0.4597 -0.0831
   15FTM     S135387   2.443   8.178  -0.157  0.4281 -0.2212  0.0546
   15FTM     C135388   2.578   8.068  -0.203  0.4460 -0.0477 -0.3165
   15FTM     C235389   2.529   7.956  -0.261  0.4506  0.0310 -0.4740
   15FTM     C335390   2.386   7.948  -0.273  0.4405 -0.0368 -0.3197
   15FTM     C435391   2.324   8.059  -0.223  0.4280 -0.1726 -0.0346
   15FTM     F135392   2.610   7.853  -0.307  0.4640  0.1698 -0.7675
   15FTM     C535393   2.713   8.123  -0.161 -0.1075  0.1183  0.1458
   15FTM     C635394   2.850   8.052  -0.203 -0.0060  0.8277 -0.0883
   15FTM     C735395   2.973   8.112  -0.133 -0.8158  0.0420  0.7451
   15FTM     C835396   2.977   8.128   0.016 -0.4533  0.0542 -0.1421
   15FTM     C935397   3.002   7.998   0.101 -0.4574 -0.1115  0.2768
   15FTM    C1035398   2.998   8.025   0.249 -0.4128  0.5456  0.1204
   15FTM    C1135399   2.873   8.029  -0.355 -0.0077  0.9356 -0.2117
   15FTM    C1235400   2.896   8.142  -0.457 -0.0376 -0.5099  0.2915
   16TPM     C135401   2.047   8.227  -0.677 -0.3085 -0.2104  0.1726
   16TPM     C235402   2.115   8.165  -0.778 -0.1236 -0.2673  0.3316
   16TPM     C335403   2.094   8.224  -0.907  0.3043 -0.1898  0.2952
   16TPM     C435404   2.010   8.331  -0.905  0.4458 -0.0739  0.1079
   16TPM     S135405   1.950   8.366  -0.739  0.0463 -0.0537 -0.0375
   17BDD     C135406   1.773   8.435  -1.199 -0.0104 -0.0970 -0.0011
   17BDD     C235407   1.900   8.452  -1.246 -0.0103 -0.1299 -0.0131
   17BDD     C335408   2.003   8.421  -1.149 -0.0098 -0.1180 -0.0098
   17BDD     C435409   1.953   8.379  -1.029 -0.0096 -0.0759  0.0052
   17BDD     S135410   1.774   8.377  -1.029 -0.0099 -0.0484  0.0155
   17BDD     C535411   1.931   8.499  -1.383 -0.0107 -0.1738 -0.0279
   17BDD     C635412   2.147   8.432  -1.179 -0.0097 -0.1488 -0.0210
   17BDD     O135413   2.236   8.405  -1.095 -0.0092 -0.1383 -0.0181
   17BDD     O235414   1.842   8.526  -1.467 -0.0111 -0.1843 -0.0308
   17BDD     C735415   2.178   8.479  -1.316 -0.0100 -0.1929 -0.0365
   17BDD     C835416   2.075   8.511  -1.413 -0.0105 -0.2050 -0.0398
   17BDD     C935417   2.125   8.552  -1.533 -0.0108 -0.2470 -0.0539
   17BDD     S235418   2.305   8.554  -1.533 -0.0104 -0.2745 -0.0647
   17BDD    C1035419   2.305   8.497  -1.363 -0.0099 -0.2260 -0.0482
   17BDD    C1135420   2.439   8.478  -1.297  0.1418  0.0951  0.0738
   17BDD    C1235421   2.525   8.611  -1.294  0.1370  0.5459 -0.2814
   17BDD    C1335422   2.665   8.575  -1.255 -0.6530  0.3741  0.0329
   17BDD    C1435423   2.730   8.452  -1.320 -0.2502  0.3881  0.1377
   17BDD    C1535424   2.879   8.430  -1.284 -0.2435  0.2810 -0.6234
   17BDD    C1635425   2.935   8.304  -1.345  0.1010 -0.2500 -0.2107
   17BDD    C1735426   2.465   8.739  -1.229 -0.7556  0.4489 -0.7394
   17BDD    C1835427   2.426   8.724  -1.087 -0.1186  0.6495 -0.2926
   17BDD    C1935428   2.060   8.581  -1.661  0.0759  0.6825  0.3010
   17BDD    C2035429   2.098   8.717  -1.734  0.0258  0.1008 -0.2545
   17BDD    C2135430   2.062   8.733  -1.879  0.2710  0.4235  0.1375
   17BDD    C2235431   2.113   8.630  -1.981 -0.6365 -0.6440 -0.1723
   17BDD    C2335432   2.267   8.621  -2.003  0.0319  0.0013 -0.2235
   17BDD    C2435433   2.310   8.525  -2.115 -0.0319 -0.2496 -0.1274
   17BDD    C2535434   2.077   8.836  -1.643  0.1381  0.1119  0.0922
   17BDD    C2635435   1.935   8.872  -1.601  0.2305  0.0464 -0.1393
   18TPM     C135436   1.633   8.444  -1.246  0.3367 -0.6084  0.1671
   18TPM     C235437   1.587   8.539  -1.332  0.8451 -0.8299 -0.3562
   18TPM     C335438   1.445   8.536  -1.352  0.8717 -0.4263 -0.6366
   18TPM     C435439   1.381   8.438  -1.281  0.3836  0.1036 -0.3267
   18TPM     S135440   1.498   8.342  -1.182 -0.1517  0.1334  0.3483
   19BDTP    C135441   0.783   8.282  -1.170 -0.0107  0.1085  0.0174
   19BDTP    C235442   0.784   8.294  -1.312  0.0352 -0.0844  0.0012
   19BDTP    C335443   0.898   8.329  -1.383  0.0592 -0.1850 -0.0103
   19BDTP    C435444   1.016   8.353  -1.311  0.0371 -0.0918 -0.0052
   19BDTP    C535445   1.015   8.341  -1.169 -0.0088  0.1009  0.0112
   19BDTP    C635446   0.901   8.307  -1.098 -0.0328  0.2019  0.0226
   19BDTP    C735447   1.147   8.391  -1.362  0.0550 -0.1669 -0.0147
   19BDTP    C835448   1.242   8.407  -1.267  0.0253 -0.0412 -0.0062
   19BDTP    S135449   1.180   8.378  -1.099 -0.0297  0.1898  0.0145
   19BDTP    C935450   0.653   8.245  -1.118 -0.0286  0.1838  0.0267
   19BDTP   C1035451   0.558   8.228  -1.213  0.0011  0.0582  0.0186
   19BDTP    S235452   0.620   8.258  -1.382  0.0561 -0.1729 -0.0022
   20FTM     S135453   0.987   8.461  -1.626  0.0806  0.2192 -0.1088
   20FTM     C135454   0.949   8.373  -1.778 -0.3242  0.1016  0.0574
   20FTM     C235455   0.870   8.265  -1.751 -0.0998  0.0153  0.3740
   20FTM     C335456   0.836   8.245  -1.613  0.3888  0.0343  0.5033
   20FTM     C435457   0.889   8.341  -1.532  0.5436  0.1394  0.2783
   20FTM     F135458   0.825   8.178  -1.849 -0.3234 -0.0870  0.5652
   20FTM     C535459   1.013   8.410  -1.910 -0.3688 -0.3825 -0.2423
   20FTM     C635460   1.173   8.422  -1.917  0.2336 -0.2284  0.4179
   20FTM     C735461   1.235   8.541  -1.834  0.2385  0.5208  0.2755
   20FTM     C835462   1.180   8.675  -1.885  0.2009 -0.8198 -0.3271
   20FTM     C935463   1.200   8.784  -1.786  0.4261  0.2467  0.3785
   20FTM    C1035464   1.101   8.896  -1.792  0.7535  0.1269 -0.3801
   20FTM    C1135465   1.242   8.285  -1.925  0.2821  0.3670 -0.0763
   20FTM    C1235466   1.394   8.282  -1.931  0.4228  0.2304 -0.0314
   21FTM     S135467   1.024   8.175  -0.872  0.1472 -0.3930  0.0896
   21FTM     C135468   0.974   8.242  -0.712 -0.5218 -0.0166 -0.2695
   21FTM     C235469   0.878   8.337  -0.730 -0.1632  0.2353 -0.9258
   21FTM     C335470   0.839   8.363  -0.865  0.6345  0.1533 -1.1828
   21FTM     C435471   0.907   8.285  -0.954  0.8951 -0.1721 -0.7084
   21FTM     F135472   0.821   8.407  -0.625 -0.5359  0.5555 -1.3323
   21FTM     C535473   1.047   8.197  -0.589 -0.0742 -0.5496  0.2914
   21FTM     C635474   1.110   8.057  -0.583 -0.2188 -0.0658 -0.1028
   21FTM     C735475   1.242   8.041  -0.665  0.0582 -0.5088 -0.2568
   21FTM     C835476   1.359   8.144  -0.634 -0.4405  0.4950  0.0966
   21FTM     C935477   1.455   8.149  -0.748 -0.8168 -0.4221  0.5407
   21FTM    C1035478   1.580   8.230  -0.703  0.5425  0.2899  0.3441
   21FTM    C1135479   1.018   7.933  -0.558 -0.2464  0.3740  0.0691
   21FTM    C1235480   0.903   7.937  -0.453  0.1904 -0.1642  0.1925
   22TPM     C135481   0.417   8.194  -1.194  0.0234 -0.3201  0.2037
   22TPM     C235482   0.323   8.187  -1.293  0.0217 -0.1843  0.1950
   22TPM     C335483   0.192   8.149  -1.246 -0.0362 -0.0038  0.1812
   22TPM     C435484   0.186   8.127  -1.111 -0.0786 -0.0026  0.1797
   22TPM     S135485   0.347   8.153  -1.033 -0.0486 -0.2304  0.1952
   23BDD     C135486  -0.043   7.944  -0.856  0.1233 -0.0010  0.0680
   23BDD     C235487  -0.131   8.005  -0.941  0.1183 -0.0396  0.0458
   23BDD     C335488  -0.066   8.079  -1.048  0.1125 -0.0460  0.0377
   23BDD     C435489   0.071   8.074  -1.042  0.1130 -0.0122  0.0536
   23BDD     S135490   0.127   7.976  -0.902  0.1209  0.0298  0.0803
   23BDD     C535491  -0.278   7.996  -0.929  0.1185 -0.0719  0.0312
   23BDD     C635492  -0.141   8.152  -1.152  0.1066 -0.0851  0.0141
   23BDD     O135493  -0.085   8.216  -1.243  0.1016 -0.0906  0.0072
   23BDD     O235494  -0.334   7.932  -0.837  0.1235 -0.0664  0.0384
   23BDD     C735495  -0.288   8.144  -1.139  0.1068 -0.1175 -0.0005
   23BDD     C835496  -0.353   8.070  -1.033  0.1128 -0.1111  0.0076
   23BDD     C935497  -0.490   8.075  -1.039  0.1123 -0.1450 -0.0081
   23BDD     S235498  -0.546   8.173  -1.178  0.1041 -0.1867 -0.0347
   23BDD    C1035499  -0.376   8.205  -1.225  0.1023 -0.1562 -0.0224
   23BDD    C1135500  -0.360   8.296  -1.349 -0.0028  0.9678  0.4092
   23BDD    C1235501  -0.432   8.433  -1.350  0.7820  0.4843 -0.4513
   23BDD    C1335502  -0.419   8.513  -1.473 -0.3121 -0.2006  0.1747
   23BDD    C1435503  -0.437   8.453  -1.617  0.3762 -0.4254 -0.7280
   23BDD    C1535504  -0.488   8.548  -1.732 -0.9777  0.6778  0.0570
   23BDD    C1635505  -0.589   8.659  -1.711  0.2587  0.5250 -0.2571
   23BDD    C1735506  -0.399   8.524  -1.230  0.3047  0.0277  0.5551
   23BDD    C1835507  -0.257   8.575  -1.199 -0.2256  0.4044  0.1929
   23BDD    C1935508  -0.602   8.033  -0.952  0.1807  0.3002 -0.3750
   23BDD    C2035509  -0.651   7.893  -0.958  0.0858  0.0392 -0.0665
   23BDD    C2135510  -0.701   7.843  -1.098  0.2149 -0.4587  0.0850
   23BDD    C2235511  -0.843   7.891  -1.139  0.3768  0.1004  0.7139
   23BDD    C2335512  -0.863   7.853  -1.286  0.3581 -0.3649 -0.5363
   23BDD    C2435513  -0.991   7.914  -1.336 -0.2026  0.4598  0.6395
   23BDD    C2535514  -0.737   7.828  -0.848  0.3815 -0.3964 -0.2433
   23BDD    C2635515  -0.687   7.862  -0.703  0.4441  0.5828 -0.8983
   24TPM     C135516  -0.050   7.866  -0.726  0.1467 -0.1732 -0.1486
   24TPM     C235517  -0.132   7.757  -0.718 -0.2093  0.0949 -0.0815
   24TPM     C335518  -0.119   7.684  -0.594 -0.5460  0.2040  0.0200
   24TPM     C435519  -0.027   7.737  -0.508 -0.4473  0.0190  0.0300
   24TPM     S135520   0.050   7.885  -0.577  0.0834 -0.3098 -0.0881
   25BDTP    C135521   0.099   7.664   0.103 -0.2005  0.1487  0.3306
   25BDTP    C235522  -0.042   7.645   0.098 -0.1833  0.0532  0.1941
   25BDTP    C335523  -0.114   7.649  -0.021 -0.0677 -0.0206  0.1223
   25BDTP    C435524  -0.043   7.671  -0.141  0.0360  0.0005  0.1876
   25BDTP    C535525   0.098   7.689  -0.135  0.0190  0.0958  0.3240
   25BDTP    C635526   0.170   7.686  -0.016 -0.0967  0.1697  0.3961
   25BDTP    C735527  -0.095   7.678  -0.276  0.1650 -0.0642  0.1335
   25BDTP    C835528  -0.001   7.701  -0.370  0.2444 -0.0224  0.2222
   25BDTP    S135529   0.167   7.716  -0.302  0.1671  0.1048  0.3858
   25BDTP    C935530   0.151   7.656   0.238 -0.3293  0.2133  0.3844
   25BDTP   C1035531   0.057   7.633   0.333 -0.4087  0.1713  0.2962
   25BDTP    S235532  -0.111   7.618   0.265 -0.3316  0.0444  0.1324
   26FTM     S135533  -0.370   7.760  -0.077  0.1727  0.0913  0.0040
   26FTM     C135534  -0.507   7.643  -0.083  0.3505 -0.1145 -0.0326
   26FTM     C235535  -0.463   7.519  -0.048  0.5860 -0.1048 -0.2873
   26FTM     C335536  -0.323   7.508  -0.015  0.6413  0.0592 -0.4652
   26FTM     C435537  -0.259   7.628  -0.026  0.4414  0.1790 -0.3426
   26FTM     F135538  -0.546   7.408  -0.043  0.7653 -0.2439 -0.3748
   26FTM     C535539  -0.645   7.704  -0.108 -0.3925 -0.2986 -0.0358
   26FTM     C635540  -0.698   7.733  -0.251 -0.1153 -0.3352 -0.2025
   26FTM     C735541  -0.718   7.606  -0.348 -0.3055 -0.0421  0.2211
   26FTM     C835542  -0.833   7.514  -0.298  0.0291  0.8517 -0.1530
   26FTM     C935543  -0.972   7.584  -0.306  0.2686  1.0065  0.0888
   26FTM    C1035544  -1.085   7.482  -0.320  0.0308 -0.6835 -0.6397
   26FTM    C1135545  -0.649   7.861  -0.335  0.2754 -0.2073 -0.0552
   26FTM    C1235546  -0.632   7.997  -0.267 -0.8251  0.2453  0.3854
   27FTM     S135547   0.428   7.581   0.047  0.5557  0.0399  0.0853
   27FTM     C135548   0.566   7.696   0.028  0.3244  0.3287  0.1491
   27FTM     C235549   0.521   7.815  -0.019  0.1127  0.1982  0.0207
   27FTM     C335550   0.380   7.824  -0.044  0.1174 -0.1268 -0.1314
   27FTM     C435551   0.315   7.708  -0.014  0.3399 -0.2489 -0.1191
   27FTM     F135552   0.604   7.923  -0.044 -0.0978  0.3650  0.0334
   27FTM     C535553   0.707   7.652   0.069 -0.4038 -0.3238 -0.3031
   27FTM     C635554   0.808   7.570  -0.006 -0.0323  0.5761  0.2868
   27FTM     C735555   0.759   7.435  -0.051 -1.0690 -0.6712  0.5504
   27FTM     C835556   0.715   7.325   0.045 -0.8776  0.0856  0.4327
   27FTM     C935557   0.811   7.294   0.161  1.0730  0.4653 -0.1706
   27FTM    C1035558   0.957   7.259   0.123 -0.2760  0.0021  0.1098
   27FTM    C1135559   0.904   7.637  -0.111  0.1287 -0.3649  0.3930
   27FTM    C1235560   0.982   7.756  -0.053  0.1605 -0.7759 -0.0254
   28TPM     C135561   0.067   7.634   0.474  0.6161  0.0908 -0.3026
   28TPM     C235562  -0.029   7.592   0.562  0.3829  0.1223 -0.5383
   28TPM     C335563   0.010   7.605   0.700  0.0597  0.0733 -0.4416
   28TPM     C435564   0.135   7.657   0.717  0.0466  0.0046 -0.1322
   28TPM     S135565   0.214   7.694   0.559  0.4444 -0.0037  0.0626
   29BDD     C135566   0.183   7.631   1.107  0.0788  0.0326 -0.2168
   29BDD     C235567   0.305   7.600   1.054  0.0999  0.0036 -0.1514
   29BDD     C335568   0.310   7.612   0.909  0.1435 -0.1211 -0.1603
   29BDD     C435569   0.191   7.652   0.854  0.1549 -0.1856 -0.2322
   29BDD     S135570   0.065   7.678   0.979  0.1120 -0.0942 -0.2939
   29BDD     C535571   0.422   7.558   1.134  0.0808  0.0895 -0.0784
   29BDD     C635572   0.431   7.582   0.831  0.1721 -0.1721 -0.0970
   29BDD     O135573   0.435   7.592   0.706  0.2096 -0.2797 -0.1046
   29BDD     O235574   0.418   7.548   1.259  0.0432  0.1972 -0.0708
   29BDD     C735575   0.548   7.541   0.911  0.1530 -0.0862 -0.0240
   29BDD     C835576   0.544   7.529   1.055  0.1094  0.0386 -0.0152
   29BDD     C935577   0.662   7.489   1.111  0.0979  0.1030  0.0568
   29BDD     S235578   0.788   7.463   0.985  0.1408  0.0117  0.1184
   29BDD    C1035579   0.670   7.509   0.858  0.1740 -0.1152  0.0413
   29BDD    C1135580   0.722   7.517   0.714 -0.6174  0.4658 -0.4534
   29BDD    C1235581   0.804   7.642   0.672  0.1609 -0.0365 -0.4178
   29BDD    C1335582   0.864   7.633   0.530 -0.2084 -0.0239  0.0372
   29BDD    C1435583   0.944   7.503   0.496  0.2878 -0.6557 -0.3302
   29BDD    C1535584   1.099   7.524   0.519 -0.3030  0.0899  0.0611
   29BDD    C1635585   1.174   7.401   0.464 -0.4061 -0.0619  0.1349
   29BDD    C1735586   0.732   7.777   0.707 -0.7511  0.1534 -0.4523
   29BDD    C1835587   0.809   7.901   0.657  0.3653 -0.3043 -0.8979
   29BDD    C1935588   0.709   7.472   1.255  0.0819  0.6299  0.1165
   29BDD    C2035589   0.750   7.325   1.287 -0.5730 -0.1343 -0.0789
   29BDD    C2135590   0.626   7.231   1.293  0.1289 -0.4467 -0.2376
   29BDD    C2235591   0.641   7.081   1.287 -0.0165  0.4150 -0.4914
   29BDD    C2335592   0.657   7.010   1.155  0.2304  0.5058  0.1177
   29BDD    C2435593   0.556   7.040   1.035  0.6587 -0.6839  0.2005
   29BDD    C2535594   0.841   7.301   1.402 -0.0177  0.2746  0.7193
   29BDD    C2635595   0.976   7.379   1.390  0.7942 -0.1821 -0.2851
   30TPM     C135596   0.129   7.635   1.240 -0.0385 -0.1494 -0.3306
   30TPM     C235597   0.124   7.520   1.313 -0.1958 -0.2896 -0.5587
   30TPM     C335598   0.025   7.522   1.418 -0.1785 -0.3539 -0.5408
   30TPM     C435599  -0.045   7.639   1.424 -0.0081 -0.2629 -0.2989
   30TPM     S135600   0.009   7.756   1.298  0.1450 -0.0877 -0.0734
   31BDTP    C135601  -0.556   7.706   1.783  0.3440 -0.0650  0.1315
   31BDTP    C235602  -0.531   7.841   1.743  0.1912 -0.0905 -0.0513
   31BDTP    C335603  -0.425   7.877   1.661  0.0842 -0.0964 -0.1926
   31BDTP    C435604  -0.339   7.775   1.616  0.1292 -0.0764 -0.1520
   31BDTP    C535605  -0.364   7.640   1.655  0.2820 -0.0510  0.0308
   31BDTP    C635606  -0.470   7.605   1.738  0.3892 -0.0452  0.1721
   31BDTP    C735607  -0.223   7.788   1.530  0.0384 -0.0777 -0.2754
   31BDTP    C835608  -0.160   7.671   1.504  0.1147 -0.0551 -0.1952
   31BDTP    S135609  -0.239   7.528   1.584  0.3123 -0.0285  0.0480
   31BDTP    C935610  -0.672   7.694   1.869  0.4351 -0.0637  0.2549
   31BDTP   C1035611  -0.735   7.811   1.895  0.3586 -0.0865  0.1747
   31BDTP    S235612  -0.656   7.953   1.815  0.1610 -0.1131 -0.0685
   32FTM     S135613  -0.432   8.056   1.435 -0.1154  0.0062 -0.0832
   32FTM     C135614  -0.407   8.231   1.471  0.1370 -0.0101 -0.1701
   32FTM     C235615  -0.398   8.249   1.606  0.3614  0.0179 -0.1893
   32FTM     C335616  -0.409   8.131   1.686  0.3510  0.0532 -0.1390
   32FTM     C435617  -0.427   8.019   1.611  0.1104  0.0521 -0.0792
   32FTM     F135618  -0.379   8.374   1.663  0.5896  0.0136 -0.2537
   32FTM     C535619  -0.408   8.331   1.366  0.3597 -0.6027  0.1115
   32FTM     C635620  -0.270   8.368   1.306 -0.1318 -0.1240  0.3254
   32FTM     C735621  -0.174   8.255   1.253 -0.0627 -0.7492  0.1847
   32FTM     C835622  -0.225   8.160   1.147  0.0178  0.2084  0.2929
   32FTM     C935623  -0.114   8.104   1.061  0.1249 -0.7098 -0.4135
   32FTM    C1035624  -0.160   7.976   0.995 -0.1726  0.3835  0.4593
   32FTM    C1135625  -0.268   8.501   1.227 -0.3004  0.8072 -0.0866
   32FTM    C1235626  -0.136   8.553   1.181 -0.1992 -0.0793  0.1242
   33FTM     S135627  -0.372   7.388   1.884 -0.0358  0.2356  0.0258
   33FTM     C135628  -0.447   7.229   1.849  0.3916  0.1197 -0.3798
   33FTM     C235629  -0.548   7.244   1.759  0.5543  0.0315 -0.5777
   33FTM     C335630  -0.572   7.377   1.713  0.3610  0.0483 -0.4297
   33FTM     C435631  -0.487   7.467   1.770  0.0401  0.1528 -0.1078
   33FTM     F135632  -0.624   7.137   1.713  0.8876 -0.0699 -0.9048
   33FTM     C535633  -0.398   7.097   1.901 -0.0390  0.3283  0.0904
   33FTM     C635634  -0.253   7.062   1.940 -0.1685 -0.0460  0.5218
   33FTM     C735635  -0.190   7.118   2.068 -0.1590  0.0473  0.2121
   33FTM     C835636  -0.239   7.060   2.199 -0.1924 -0.1247 -0.4233
   33FTM     C935637  -0.155   7.127   2.308 -0.1631  0.4027 -0.9660
   33FTM    C1035638  -0.171   7.054   2.443  0.3971  0.1606  0.3839
   33FTM    C1135639  -0.162   7.076   1.819 -0.5017 -0.2730 -0.5091
   33FTM    C1235640  -0.030   6.991   1.841 -0.2591 -0.1734  0.6853
   34TPM     C135641  -0.852   7.830   1.978 -0.3965  0.2449 -0.2981
   34TPM     C235642  -0.922   7.943   2.010 -0.6742  0.1224 -0.4672
   34TPM     C335643  -1.041   7.917   2.086 -0.6592 -0.0643 -0.5048
   34TPM     C435644  -1.063   7.785   2.113 -0.3698 -0.0840 -0.3644
   34TPM     S135645  -0.932   7.682   2.043 -0.0918  0.1334 -0.1722
   35BDD     C135646  -1.419   7.693   2.238 -0.1156 -0.2836  0.0100
   35BDD     C235647  -1.332   7.648   2.334 -0.0908 -0.2005  0.0262
   35BDD     C335648  -1.193   7.675   2.301 -0.1111 -0.0442  0.0646
   35BDD     C435649  -1.176   7.739   2.182 -0.1514 -0.0105  0.0771
   35BDD     S135650  -1.333   7.771   2.101 -0.1662 -0.1721  0.0415
   35BDD     C535651  -1.373   7.580   2.458 -0.0477 -0.2614  0.0072
   35BDD     C635652  -1.081   7.635   2.390 -0.0899  0.0662  0.0877
   35BDD     O135653  -0.961   7.658   2.363 -0.1073  0.2010  0.1208
   35BDD     O235654  -1.493   7.557   2.486 -0.0300 -0.3964 -0.0260
   35BDD     C735655  -1.123   7.566   2.515 -0.0467  0.0050  0.0686
   35BDD     C835656  -1.262   7.540   2.547 -0.0265 -0.1513  0.0302
   35BDD     C935657  -1.279   7.476   2.666  0.0136 -0.1849  0.0178
   35BDD     S235658  -1.122   7.444   2.747  0.0286 -0.0233  0.0533
   35BDD    C1035659  -1.036   7.522   2.610 -0.0217  0.0883  0.0849
   35BDD    C1135660  -0.889   7.508   2.626 -0.5948 -0.3970 -0.3603
   35BDD    C1235661  -0.814   7.410   2.538 -0.5058  0.3092  0.7961
   35BDD    C1335662  -0.659   7.405   2.558  0.4960  0.1043  0.7290
   35BDD    C1435663  -0.569   7.375   2.438 -0.0008  0.7303 -0.0458
   35BDD    C1535664  -0.584   7.440   2.296  0.0738 -0.0865 -0.4341
   35BDD    C1635665  -0.481   7.384   2.197  1.0224  0.0733  0.8474
   35BDD    C1735666  -0.876   7.271   2.523  0.2989  0.5109  0.3651
   35BDD    C1835667  -0.896   7.171   2.633 -0.5027 -0.2470  0.0469
   35BDD    C1935668  -1.398   7.461   2.753  0.6918  0.7628 -0.0615
   35BDD    C2035669  -1.490   7.341   2.713 -0.2467  0.0181 -0.7025
   35BDD    C2135670  -1.425   7.202   2.722 -0.5742  0.2634 -0.6645
   35BDD    C2235671  -1.376   7.160   2.864  0.7526  0.2051 -0.0702
   35BDD    C2335672  -1.293   7.033   2.869  1.0419  0.2077 -0.7580
   35BDD    C2435673  -1.246   7.005   3.010 -0.0797 -0.1609  0.2654
   35BDD    C2535674  -1.621   7.356   2.791 -0.0202 -0.5548  0.6873
   35BDD    C2635675  -1.739   7.275   2.723 -0.2007  0.0783 -0.1627
   36TPM     C135676  -1.563   7.699   2.213  0.0012 -0.0102 -0.1439
   36TPM     C235677  -1.652   7.718   2.314  0.2003  0.0721  0.0161
   36TPM     C335678  -1.788   7.732   2.270  0.1450  0.2962  0.2525
   36TPM     C435679  -1.803   7.723   2.135 -0.0965  0.3848  0.2728
   36TPM     S135680  -1.645   7.696   2.052 -0.2740  0.1906 -0.0074
   37BDTP    C135681  -2.374   7.736   1.871 -0.2806 -0.1683 -0.0964
   37BDTP    C235682  -2.297   7.666   1.774 -0.2155 -0.0266 -0.1477
   37BDTP    C335683  -2.161   7.642   1.790 -0.1941  0.0838 -0.1632
   37BDTP    C435684  -2.098   7.689   1.906 -0.2389  0.0530 -0.1265
   37BDTP    C535685  -2.175   7.760   2.003 -0.3039 -0.0887 -0.0752
   37BDTP    C635686  -2.311   7.784   1.988 -0.3254 -0.1989 -0.0597
   37BDTP    C735687  -1.959   7.677   1.944 -0.2280  0.1495 -0.1336
   37BDTP    C835688  -1.928   7.733   2.064 -0.2810  0.0879 -0.0907
   37BDTP    S135689  -2.072   7.811   2.145 -0.3524 -0.1010 -0.0352
   37BDTP    C935690  -2.513   7.749   1.833 -0.2917 -0.2646 -0.0893
   37BDTP   C1035691  -2.544   7.693   1.714 -0.2384 -0.2030 -0.1323
   37BDTP    S235692  -2.400   7.615   1.633 -0.1671 -0.0142 -0.1877
   38FTM     S135693  -2.097   7.665   1.517 -0.0398 -0.1476  0.1770
   38FTM     C135694  -1.985   7.544   1.444  0.0788  0.0736 -0.0093
   38FTM     C235695  -1.944   7.455   1.539  0.1656 -0.0333 -0.1453
   38FTM     C335696  -1.997   7.475   1.671  0.1457 -0.2874 -0.1138
   38FTM     C435697  -2.080   7.583   1.677  0.0402 -0.3781  0.0518
   38FTM     F135698  -1.857   7.351   1.512  0.2683  0.0927 -0.3065
   38FTM     C535699  -1.943   7.529   1.303 -0.5241 -0.2438  0.7175
   38FTM     C635700  -1.955   7.637   1.193  0.0187  0.0394 -0.3340
   38FTM     C735701  -1.871   7.612   1.067 -0.0148  0.1911  0.6312
   38FTM     C835702  -1.722   7.651   1.084  0.0240  0.6530 -0.5934
   38FTM     C935703  -1.636   7.614   0.971 -0.3309 -0.4758  0.1348
   38FTM    C1035704  -1.510   7.701   0.960  0.4088 -0.0708 -0.1111
   38FTM    C1135705  -2.079   7.724   1.175 -0.2145  0.3207 -0.9844
   38FTM    C1235706  -2.073   7.852   1.098  0.2522  0.4002 -0.3014
   39FTM     S135707  -2.522   7.972   2.052 -0.1905 -0.0236  0.0474
   39FTM     C135708  -2.552   7.989   2.229 -0.1042 -0.3011  0.0896
   39FTM     C235709  -2.461   7.915   2.299 -0.0110 -0.3359 -0.0670
   39FTM     C335710  -2.365   7.843   2.221 -0.0014 -0.1534 -0.2257
   39FTM     C435711  -2.383   7.862   2.087 -0.0900  0.0271 -0.1893
   39FTM     F135712  -2.460   7.909   2.437  0.0712 -0.5350 -0.0761
   39FTM     C535713  -2.656   8.087   2.285  0.1427 -0.3443  0.6316
   39FTM     C635714  -2.767   8.159   2.212  0.2804  0.6488  0.3708
   39FTM     C735715  -2.720   8.242   2.094 -0.0112 -0.5329 -0.2890
   39FTM     C835716  -2.817   8.289   1.985  0.2293 -0.0976 -0.4127
   39FTM     C935717  -2.895   8.190   1.913  0.1037  0.2010 -0.0744
   39FTM    C1035718  -2.813   8.070   1.859 -0.1074 -0.5520  0.1908
   39FTM    C1135719  -2.859   8.234   2.308  0.0046  0.4007 -0.4233
   39FTM    C1235720  -2.983   8.157   2.370  0.0322 -0.1316  0.4559
   40TPM     C135721  -2.668   7.690   1.643  0.1683 -0.0538  0.5599
   40TPM     C235722  -2.697   7.653   1.515  0.6422  0.0665  0.4157
   40TPM     C335723  -2.835   7.670   1.480  0.8453  0.4913 -0.2151
   40TPM     C435724  -2.912   7.719   1.581  0.5260  0.6951 -0.5518
   40TPM     S135725  -2.815   7.748   1.730 -0.0603  0.3634 -0.0949
   41BDD     C135726  -3.199   7.980   1.530 -0.2898  0.0658  0.0805
   41BDD     C235727  -3.245   7.864   1.472 -0.2426  0.0756  0.0223
   41BDD     C335728  -3.153   7.753   1.486 -0.2165  0.0949  0.0047
   41BDD     C435729  -3.038   7.784   1.553 -0.2441  0.0997  0.0498
   41BDD     S135730  -3.037   7.956   1.604 -0.3047  0.0800  0.1172
   41BDD     C535731  -3.375   7.853   1.403 -0.2199  0.0675 -0.0192
   41BDD     C635732  -3.183   7.618   1.431 -0.1650  0.1082 -0.0561
   41BDD     O135733  -3.104   7.522   1.443 -0.1423  0.1249 -0.0713
   41BDD     O235734  -3.454   7.949   1.392 -0.2426  0.0508 -0.0041
   41BDD     C735735  -3.313   7.607   1.362 -0.1423  0.1001 -0.0977
   41BDD     C835736  -3.405   7.719   1.349 -0.1684  0.0808 -0.0800
   41BDD     C935737  -3.520   7.687   1.282 -0.1410  0.0763 -0.1251
   41BDD     S235738  -3.521   7.515   1.231 -0.0803  0.0956 -0.1925
   41BDD    C1035739  -3.359   7.492   1.305 -0.0952  0.1099 -0.1559
   41BDD    C1135740  -3.302   7.350   1.302 -0.1745  0.3404 -0.4414
   41BDD    C1235741  -3.378   7.224   1.248  0.1747  0.0394  0.3192
   41BDD    C1335742  -3.387   7.230   1.095  0.4692  0.3343  0.4282
   41BDD    C1435743  -3.496   7.139   1.026 -0.5319  0.0718 -0.6698
   41BDD    C1535744  -3.490   7.133   0.873  0.4014  0.4707 -0.3175
   41BDD    C1635745  -3.565   7.256   0.817 -0.5957 -0.4143 -0.9536
   41BDD    C1735746  -3.329   7.088   1.302 -0.2649 -0.7040  0.6378
   41BDD    C1835747  -3.184   7.039   1.283  0.0077 -0.3261  0.4913
   41BDD    C1935748  -3.640   7.779   1.248 -0.0873 -0.3984  0.0633
   41BDD    C2035749  -3.617   7.857   1.119  0.2911  0.4678  0.1102
   41BDD    C2135750  -3.624   7.766   0.995  0.0177 -0.7130 -0.2666
   41BDD    C2235751  -3.566   7.832   0.868  0.6024 -0.5602 -0.3518
   41BDD    C2335752  -3.576   7.730   0.762 -0.1746  0.0164 -0.2532
   41BDD    C2435753  -3.515   7.771   0.630  0.5449  0.2796  0.0178
   41BDD    C2535754  -3.706   7.985   1.094  0.1946  0.2687  0.2882
   41BDD    C2635755  -3.711   8.103   1.185  0.4187 -0.4333 -0.2623
   42TPM     C135756  -3.250   8.116   1.553 -0.0439 -0.1550 -0.6801
   42TPM     C235757  -3.209   8.179   1.666 -0.0656 -0.5119 -0.4734
   42TPM     C335758  -3.269   8.308   1.687 -0.0910 -0.5863 -0.0629
   42TPM     C435759  -3.356   8.344   1.589 -0.0884 -0.2855  0.0433
   42TPM     S135760  -3.369   8.217   1.462 -0.0538  0.1176 -0.3701
   43BDTP    C135761  -3.690   8.878   1.608 -0.0323  0.1872  0.1067
   43BDTP    C235762  -3.726   8.825   1.481  0.1740  0.3128 -0.0040
   43BDTP    C335763  -3.675   8.706   1.431  0.2422  0.3536 -0.0321
   43BDTP    C435764  -3.584   8.635   1.511  0.1000  0.2666  0.0527
   43BDTP    C535765  -3.548   8.687   1.639 -0.1066  0.1411  0.1635
   43BDTP    C635766  -3.599   8.806   1.688 -0.1745  0.1004  0.1916
   43BDTP    C735767  -3.518   8.509   1.481  0.1347  0.2870  0.0437
   43BDTP    C835768  -3.435   8.465   1.579 -0.0336  0.1841  0.1410
   43BDTP    S135769  -3.429   8.577   1.723 -0.2599  0.0472  0.2578
   43BDTP    C935770  -3.756   9.003   1.638 -0.0671  0.1671  0.1158
   43BDTP   C1035771  -3.838   9.047   1.541  0.1013  0.2697  0.0185
   43BDTP    S235772  -3.844   8.936   1.397  0.3276  0.4067 -0.0982
   44FTM     S135773  -3.687   8.747   1.148 -0.2680  0.2971  0.0503
   44FTM     C135774  -3.760   8.614   1.051 -0.2193  0.2342  0.0992
   44FTM     C235775  -3.800   8.513   1.133  0.0173  0.1533  0.1166
   44FTM     C335776  -3.777   8.532   1.273  0.1714  0.1357  0.0935
   44FTM     C435777  -3.717   8.652   1.299  0.0488  0.2054  0.0572
   44FTM     F135778  -3.860   8.397   1.087  0.1084  0.0901  0.1546
   44FTM     C535779  -3.754   8.618   0.903 -0.4197 -0.1842 -0.4442
   44FTM     C635780  -3.855   8.691   0.815 -0.0059  0.2739 -0.0814
   44FTM     C735781  -4.008   8.684   0.840 -0.2749 -0.3969 -0.4759
   44FTM     C835782  -4.049   8.739   0.977  0.4677 -0.2538 -0.2116
   44FTM     C935783  -4.194   8.776   0.983 -0.3525  0.2302  0.3085
   44FTM    C1035784  -4.243   8.812   1.122  0.5402 -0.2068 -0.4177
   44FTM    C1135785  -3.803   8.695   0.667  0.2115 -0.1307 -0.4870
   44FTM    C1235786  -3.848   8.811   0.572  0.0289 -0.4185 -0.6323
   45FTM     S135787  -3.374   8.884   1.840  0.0715  0.2452 -0.0502
   45FTM     C135788  -3.405   8.963   1.999  0.0529  0.1805 -0.0214
   45FTM     C235789  -3.539   8.969   2.022  0.0613 -0.0999  0.1028
   45FTM     C335790  -3.623   8.914   1.921  0.0824 -0.2770  0.1813
   45FTM     C435791  -3.552   8.864   1.816  0.0903 -0.1277  0.1150
   45FTM     F135792  -3.592   9.025   2.138  0.0503 -0.2127  0.1529
   45FTM     C535793  -3.282   9.015   2.067 -0.2078  0.2943  0.5775
   45FTM     C635794  -3.282   9.128   2.168 -0.0110 -0.1544 -0.3655
   45FTM     C735795  -3.144   9.142   2.246 -0.3702  0.0506 -0.2590
   45FTM     C835796  -3.014   9.110   2.172  0.1583 -0.7050 -0.1505
   45FTM     C935797  -2.903   9.095   2.268  0.0100  0.4385  0.0348
   45FTM    C1035798  -2.774   9.055   2.203 -0.2814 -0.0345 -0.2850
   45FTM    C1135799  -3.337   9.257   2.102 -0.2788  0.1295 -0.5931
   45FTM    C1235800  -3.345   9.381   2.203  0.6375  0.7524  0.6746
   46TPM     C135801  -3.916   9.161   1.549 -0.0041 -0.3899 -0.0553
   46TPM     C235802  -3.943   9.231   1.662 -0.0457 -0.6449  0.0943
   46TPM     C335803  -4.032   9.343   1.642 -0.0021 -0.5715  0.3029
   46TPM     C435804  -4.073   9.357   1.513  0.0729 -0.2600  0.3125
   46TPM     S135805  -4.002   9.231   1.406  0.0945 -0.0339  0.0567
   47BDD     C135806  -4.328   9.666   1.504  0.1294  0.3112 -0.3415
   47BDD     C235807  -4.374   9.582   1.406  0.0947  0.2093 -0.2380
   47BDD     C335808  -4.295   9.461   1.393 -0.0495  0.0865  0.0185
   47BDD     C435809  -4.190   9.454   1.481 -0.1225  0.0961  0.1068
   47BDD     S135810  -4.183   9.599   1.586 -0.0161  0.2601 -0.1251
   47BDD     C535811  -4.492   9.610   1.322  0.1928  0.2215 -0.3710
   47BDD     C635812  -4.327   9.356   1.294 -0.1093 -0.0362  0.1667
   47BDD     O135813  -4.259   9.251   1.283 -0.2335 -0.1423  0.3879
   47BDD     O235814  -4.560   9.715   1.333  0.3170  0.3278 -0.5922
   47BDD     C735815  -4.445   9.384   1.209 -0.0112 -0.0238  0.0337
   47BDD     C835816  -4.523   9.505   1.223  0.1328  0.0989 -0.2228
   47BDD     C935817  -4.628   9.512   1.135  0.2059  0.0894 -0.3111
   47BDD     S235818  -4.635   9.367   1.030  0.0993 -0.0747 -0.0792
   47BDD    C1035819  -4.490   9.300   1.112 -0.0460 -0.1256  0.1372
   47BDD    C1135820  -4.440   9.164   1.066  0.0755 -0.0742  0.5117
   47BDD    C1235821  -4.378   9.152   0.922 -0.1082  0.3967 -0.0197
   47BDD    C1335822  -4.281   9.263   0.881 -0.1340 -0.4248  0.0282
   47BDD    C1435823  -4.152   9.283   0.955 -0.5812 -0.2176  0.0687
   47BDD    C1535824  -4.086   9.416   0.917 -0.5970 -0.5021 -0.1661
   47BDD    C1635825  -3.990   9.465   1.025  0.2629  0.6913  0.0579
   47BDD    C1735826  -4.476   9.124   0.807  0.4040  0.1383 -0.1840
   47BDD    C1835827  -4.544   8.986   0.828 -0.0488 -0.5247 -0.2206
   47BDD    C1935828  -4.742   9.608   1.108 -0.3728 -0.1928 -0.0186
   47BDD    C2035829  -4.722   9.704   0.984  1.4179  0.7824 -0.1025
   47BDD    C2135830  -4.834   9.814   0.987 -0.3612 -0.2344  0.3991
   47BDD    C2235831  -4.837   9.926   1.084  0.4132  0.1551 -0.2668
   47BDD    C2335832  -4.714  10.017   1.086  0.4546  0.5606 -0.2151
   47BDD    C2435833  -4.721  10.120   1.193  0.0614 -0.6908 -0.0266
   47BDD    C2535834  -4.697   9.633   0.848  0.7604  0.1787 -0.5380
   47BDD    C2635835  -4.814   9.573   0.772 -0.4980 -0.1305  0.2310
   48TPM     C135836  -4.348   9.803   1.536 -0.2357 -0.1223  0.7734
   48TPM     C235837  -4.243   9.890   1.532  0.0690 -0.4500  1.5198
   48TPM     C335838  -4.277  10.024   1.570  0.2953 -0.4143  1.5993
   48TPM     C435839  -4.408  10.041   1.602  0.1631 -0.0594  0.9136
   48TPM     S135840  -4.500   9.886   1.587 -0.2608  0.2598  0.1079
   49BDTP    C135841  -4.737  10.557   1.758  0.0255 -0.0966  0.3619
   49BDTP    C235842  -4.609  10.583   1.816  0.0687 -0.1557  0.2949
   49BDTP    C335843  -4.502  10.495   1.806  0.0393 -0.1796  0.1905
   49BDTP    C435844  -4.522  10.375   1.736 -0.0361 -0.1437  0.1501
   49BDTP    C535845  -4.649  10.349   1.677 -0.0790 -0.0846  0.2171
   49BDTP    C635846  -4.756  10.437   1.687 -0.0499 -0.0607  0.3216
   49BDTP    C735847  -4.426  10.269   1.712 -0.0787 -0.1587  0.0447
   49BDTP    C835848  -4.475  10.165   1.640 -0.1508 -0.1144  0.0295
   49BDTP    S135849  -4.649  10.188   1.591 -0.1748 -0.0473  0.1466
   49BDTP    C935850  -4.832  10.663   1.782  0.0682 -0.0815  0.4673
   49BDTP   C1035851  -4.783  10.767   1.854  0.1402 -0.1259  0.4825
   49BDTP    S235852  -4.610  10.744   1.902  0.1642 -0.1929  0.3654
   50FTM     S135853  -4.237  10.594   1.786 -0.0030  0.0801  0.1155
   50FTM     C135854  -4.138  10.586   1.936  0.0021 -0.2684  0.0951
   50FTM     C235855  -4.213  10.536   2.038 -0.0318 -0.3867  0.0129
   50FTM     C335856  -4.348  10.502   2.007 -0.0631 -0.2176 -0.0378
   50FTM     C435857  -4.378  10.526   1.876 -0.0528  0.0385  0.0069
   50FTM     F135858  -4.162  10.518   2.166 -0.0366 -0.6552 -0.0210
   50FTM     C535859  -3.999  10.648   1.950  0.1380  0.7475  0.4000
   50FTM     C635860  -3.968  10.799   1.937 -0.1178 -0.6880 -0.0613
   50FTM     C735861  -4.048  10.891   1.844 -0.3448  0.4427  0.6773
   50FTM     C835862  -4.187  10.917   1.898 -0.2849  0.1932  0.3604
   50FTM     C935863  -4.274  11.017   1.817 -0.1048  0.4073 -0.4518
   50FTM    C1035864  -4.414  11.016   1.871 -0.2947 -0.0588  0.8067
   50FTM    C1135865  -3.817  10.829   1.954  0.0531 -0.3664 -0.4777
   50FTM    C1235866  -3.743  10.769   2.075  0.1403  0.8604  1.0125
   51FTM     S135867  -4.923  10.476   1.465 -0.0599 -0.1592 -0.0237
   51FTM     C135868  -5.093  10.418   1.481 -0.0184 -0.2812 -0.0270
   51FTM     C235869  -5.108  10.350   1.597 -0.0170 -0.1369  0.0577
   51FTM     C335870  -4.991  10.339   1.680 -0.0471  0.0723  0.1285
   51FTM     C435871  -4.884  10.401   1.624 -0.0725  0.0887  0.0971
   51FTM     F135872  -5.229  10.293   1.637  0.0118 -0.1856  0.0760
   51FTM     C535873  -5.192  10.448   1.376  0.0168 -0.0162  0.3966
   51FTM     C635874  -5.188  10.384   1.243  0.1308  1.0126 -0.4427
   51FTM     C735875  -5.302  10.443   1.152 -0.0498  0.1373  0.4916
   51FTM     C835876  -5.283  10.581   1.095 -0.7074  0.0962 -0.1522
   51FTM     C935877  -5.163  10.588   1.008 -0.0957 -0.1152  0.2116
   51FTM    C1035878  -5.168  10.718   0.926  0.2565 -0.0541  0.1282
   51FTM    C1135879  -5.193  10.228   1.245 -0.6715 -0.2072 -0.1113
   51FTM    C1235880  -5.158  10.148   1.123 -0.2538 -0.5813 -0.2821
   52TPM     C135881  -4.852  10.882   1.894 -0.3108 -0.4414  0.2421
   52TPM     C235882  -4.851  10.933   2.021 -0.6840 -0.5375  0.2874
   52TPM     C335883  -4.937  11.047   2.038 -0.5872 -0.4295  0.0662
   52TPM     C435884  -5.004  11.083   1.925 -0.1403 -0.2510 -0.1478
   52TPM     S135885  -4.963  10.974   1.786  0.1955 -0.2051 -0.0859
   53BDD     C135886  -5.132  11.431   1.794  0.0733 -0.2001 -0.0385
   53BDD     C235887  -5.193  11.415   1.915  0.1044 -0.1186 -0.0121
   53BDD     C335888  -5.157  11.290   1.981  0.2381 -0.0064  0.1291
   53BDD     C435889  -5.070  11.213   1.909  0.3065 -0.0040  0.2083
   53BDD     S135890  -5.027  11.291   1.753  0.2086 -0.1420  0.1116
   53BDD     C535891  -5.285  11.513   1.975  0.0131 -0.1409 -0.1156
   53BDD     C635892  -5.211  11.252   2.114  0.2930  0.0943  0.1804
   53BDD     O135893  -5.180  11.145   2.170  0.4081  0.1910  0.3021
   53BDD     O235894  -5.316  11.620   1.919 -0.1020 -0.2376 -0.2374
   53BDD     C735895  -5.303  11.351   2.174  0.2013  0.0720  0.0768
   53BDD     C835896  -5.339  11.475   2.108  0.0678 -0.0402 -0.0644
   53BDD     C935897  -5.425  11.552   2.180 -0.0007 -0.0426 -0.1436
   53BDD     S235898  -5.469  11.474   2.336  0.0972  0.0954 -0.0468
   53BDD    C1035899  -5.363  11.335   2.295  0.2327  0.1535  0.1032
   53BDD    C1135900  -5.356  11.229   2.398  0.3653 -0.0242 -0.8561
   53BDD    C1235901  -5.249  11.242   2.508  0.6073  0.2352  0.0620
   53BDD    C1335902  -5.102  11.275   2.472 -0.1643  0.4067 -0.1555
   53BDD    C1435903  -5.001  11.299   2.582 -0.1575  0.4130  0.1349
   53BDD    C1535904  -4.866  11.359   2.560  0.8553 -0.7035 -0.3436
   53BDD    C1635905  -4.805  11.386   2.693  0.1296  0.3771 -0.1961
   53BDD    C1735906  -5.271  11.116   2.598  0.0885 -0.2043  0.1833
   53BDD    C1835907  -5.401  11.107   2.680  0.1263 -0.1002 -0.0363
   53BDD    C1935908  -5.505  11.682   2.149 -0.1751  0.0551  0.0129
   53BDD    C2035909  -5.595  11.674   2.013  0.1175  0.3361 -0.1293
   53BDD    C2135910  -5.685  11.555   1.998  0.3660  0.2686 -0.1412
   53BDD    C2235911  -5.730  11.498   1.860 -0.5573  0.2720 -0.7391
   53BDD    C2335912  -5.616  11.462   1.765  0.3234  0.0256 -0.5137
   53BDD    C2435913  -5.662  11.403   1.634 -0.2335  0.3874  0.0242
   53BDD    C2535914  -5.650  11.811   1.965  0.9022  0.1336  0.3720
   53BDD    C2635915  -5.555  11.925   1.949 -0.4908 -0.3906  0.1554
   54TPM     C135916  -5.122  11.536   1.685 -0.4186 -0.0195 -0.0456
   54TPM     C235917  -5.222  11.619   1.646 -0.2500  0.1351 -0.1512
   54TPM     C335918  -5.192  11.696   1.528  0.0383  0.1776 -0.0517
   54TPM     C435919  -5.068  11.670   1.476  0.0896  0.0554  0.1299
   54TPM     S135920  -4.980  11.546   1.574 -0.2246 -0.1243  0.1897
   55BDTP    C135921  -4.812  11.943   0.974  0.0544  0.1743  0.1797
   55BDTP    C235922  -4.718  11.842   1.006 -0.0685  0.0536  0.1597
   55BDTP    C335923  -4.735  11.755   1.114 -0.2123  0.0008  0.0946
   55BDTP    C435924  -4.851  11.770   1.193 -0.2363  0.0702  0.0469
   55BDTP    C535925  -4.945  11.872   1.160 -0.1134  0.1910  0.0670
   55BDTP    C635926  -4.928  11.958   1.053  0.0305  0.2438  0.1321
   55BDTP    C735927  -4.890  11.692   1.309 -0.3751  0.0350 -0.0234
   55BDTP    C835928  -5.008  11.730   1.364 -0.3625  0.1223 -0.0566
   55BDTP    S135929  -5.085  11.870   1.277 -0.1732  0.2614 -0.0036
   55BDTP    C935930  -4.773  12.021   0.858  0.1932  0.2096  0.2500
   55BDTP   C1035931  -4.655  11.983   0.803  0.1806  0.1223  0.2833
   55BDTP    S235932  -4.578  11.843   0.890 -0.0088 -0.0169  0.2303
   56FTM     S135933  -4.652  11.507   1.245 -0.1862 -0.2808  0.1256
   56FTM     C135934  -4.476  11.470   1.237 -0.1570 -0.1120 -0.0131
   56FTM     C235935  -4.411  11.568   1.168 -0.3080 -0.0603 -0.0816
   56FTM     C335936  -4.493  11.675   1.118 -0.4522 -0.1468 -0.0317
   56FTM     C435937  -4.624  11.658   1.151 -0.4102 -0.2688  0.0787
   56FTM     F135938  -4.274  11.567   1.146 -0.3247  0.0684 -0.1936
   56FTM     C535939  -4.425  11.342   1.293 -0.2179 -0.6491  0.6159
   56FTM     C635940  -4.312  11.335   1.398  0.1834 -0.5186 -0.0793
   56FTM     C735941  -4.273  11.193   1.426 -0.1218 -0.6180 -0.5399
   56FTM     C835942  -4.165  11.142   1.326  0.2239 -0.2983 -0.0990
   56FTM     C935943  -4.091  11.017   1.371 -0.2073  0.1329  0.4442
   56FTM    C1035944  -3.988  10.974   1.261  0.2495  0.3905  0.2698
   56FTM    C1135945  -4.334  11.418   1.527  0.1228  0.5148  0.4796
   56FTM    C1235946  -4.232  11.412   1.639 -0.2870 -0.1719  0.3847
   57FTM     S135947  -5.049  12.188   1.154 -0.3200 -0.0416  0.3029
   57FTM     C135948  -5.161  12.282   1.048 -0.2352 -0.2279  0.0474
   57FTM     C235949  -5.174  12.219   0.928  0.2272 -0.1960 -0.0243
   57FTM     C335950  -5.100  12.097   0.912  0.5362 -0.0287  0.1117
   57FTM     C435951  -5.028  12.066   1.023  0.3029  0.0707  0.2935
   57FTM     F135952  -5.254  12.268   0.826  0.3979 -0.3163 -0.2175
   57FTM     C535953  -5.239  12.407   1.093 -0.2358  0.6275 -0.6281
   57FTM     C635954  -5.360  12.389   1.189 -0.5333  0.0408  1.0220
   57FTM     C735955  -5.492  12.340   1.122  0.1994 -0.2204 -0.0913
   57FTM     C835956  -5.545  12.438   1.023  0.5717 -0.4805 -0.1286
   57FTM     C935957  -5.671  12.385   0.961  0.0482  0.0232  0.4935
   57FTM    C1035958  -5.747  12.483   0.867  0.0497 -0.1967  0.3666
   57FTM    C1135959  -5.344  12.328   1.330  0.3045  0.0762 -0.2061
   57FTM    C1235960  -5.242  12.368   1.429  0.3310  0.5741  0.1367
   58TPM     C135961  -4.582  12.046   0.692  0.0922  0.2917  0.0708
   58TPM     C235962  -4.448  12.032   0.672  0.0910  0.2801  0.0706
   58TPM     C335963  -4.393  12.125   0.576  0.1123  0.3249  0.1262
   58TPM     C435964  -4.486  12.209   0.523  0.1298  0.3707  0.1687
   58TPM     S135965  -4.651  12.178   0.590  0.1205  0.3608  0.1416
   59BDD     C135966  -4.284  12.439   0.278 -0.0179  0.1721  0.1961
   59BDD     C235967  -4.413  12.482   0.265 -0.0440  0.0595  0.0706
   59BDD     C335968  -4.508  12.409   0.347 -0.0811 -0.1153 -0.1277
   59BDD     C435969  -4.449  12.310   0.422 -0.0827 -0.1334 -0.1505
   59BDD     S135970  -4.272  12.302   0.394 -0.0378  0.0672  0.0747
   59BDD     C535971  -4.455  12.594   0.177 -0.0358  0.1084  0.1284
   59BDD     C635972  -4.652  12.439   0.349 -0.1135 -0.2581 -0.2873
   59BDD     O135973  -4.734  12.375   0.420 -0.1454 -0.4089 -0.4583
   59BDD     O235974  -4.373  12.657   0.106 -0.0039  0.2593  0.2994
   59BDD     C735975  -4.694  12.550   0.261 -0.1053 -0.2092 -0.2296
   59BDD     C835976  -4.599  12.624   0.179 -0.0682 -0.0343 -0.0313
   59BDD     C935977  -4.658  12.723   0.105 -0.0665 -0.0162 -0.0085
   59BDD     S235978  -4.835  12.730   0.133 -0.1114 -0.2168 -0.2337
   59BDD    C1035979  -4.823  12.593   0.248 -0.1312 -0.3218 -0.3551
   59BDD    C1135980  -4.958  12.555   0.304 -0.5070 -0.4350 -0.3252
   59BDD    C1235981  -5.011  12.642   0.417  1.2725 -0.3424 -0.5728
   59BDD    C1335982  -4.906  12.687   0.514 -0.1547 -0.0607 -0.0228
   59BDD    C1435983  -4.938  12.797   0.618 -0.4053  0.5813  0.4680
   59BDD    C1535984  -4.855  12.775   0.744 -0.9299  0.3845  0.2000
   59BDD    C1635985  -4.884  12.884   0.846  0.2668  0.1491 -0.0703
   59BDD    C1735986  -5.138  12.584   0.479 -0.0360  0.1287  0.1583
   59BDD    C1835987  -5.258  12.539   0.402 -0.2209  0.5201  0.1384
   59BDD    C1935988  -4.621  12.802  -0.022 -0.0841  0.7694  0.0064
   59BDD    C2035989  -4.578  12.946   0.002  0.1609 -0.9019  0.3146
   59BDD    C2135990  -4.430  12.968   0.049  0.3027  0.6135 -0.1609
   59BDD    C2235991  -4.318  12.938  -0.047 -0.3708  0.4414  0.4180
   59BDD    C2335992  -4.177  12.961   0.003 -0.4261 -0.3387  0.7252
   59BDD    C2435993  -4.082  12.887  -0.095 -0.1182 -0.8122 -0.2391
   59BDD    C2535994  -4.631  13.048  -0.102 -0.4740 -0.3564  0.0703
   59BDD    C2635995  -4.615  13.202  -0.080  0.1507 -0.2515 -0.2127
   60TPM     C135996  -4.151  12.481   0.222  0.1242  0.6178 -0.4895
   60TPM     C235997  -4.130  12.520   0.093  0.3947  1.1300 -0.2966
   60TPM     C335998  -3.992  12.539   0.060  0.4995  0.8139 -0.0557
   60TPM     C435999  -3.906  12.515   0.163  0.3089  0.0606 -0.0648
   60TPM     S136000  -3.995  12.465   0.312 -0.0202 -0.3108 -0.3809
    1BDTP    C136001   6.762   0.516   6.518 -0.0309  0.0783 -0.1066
    1BDTP    C236002   6.655   0.610   6.517 -0.0486  0.0594 -0.0367
    1BDTP    C336003   6.522   0.571   6.521 -0.0415  0.0305 -0.0768
    1BDTP    C436004   6.492   0.434   6.527 -0.0160  0.0198 -0.1911
    1BDTP    C536005   6.599   0.340   6.529  0.0019  0.0388 -0.2609
    1BDTP    C636006   6.733   0.378   6.524 -0.0051  0.0677 -0.2209
    1BDTP    C736007   6.362   0.371   6.532 -0.0042 -0.0092 -0.2515
    1BDTP    C836008   6.366   0.235   6.537  0.0211 -0.0129 -0.3619
    1BDTP    S136009   6.536   0.169   6.537  0.0340  0.0199 -0.4048
    1BDTP    C936010   6.892   0.579   6.513 -0.0424  0.1074 -0.0463
    1BDTP   C1036011   6.888   0.714   6.508 -0.0679  0.1111  0.0643
    1BDTP    S236012   6.719   0.781   6.509 -0.0805  0.0783  0.1071
    2FTM     S136013   6.288   0.679   6.643 -0.2731  0.1458  0.3824
    2FTM     C136014   6.205   0.813   6.556 -0.4463 -0.0101  0.3055
    2FTM     C236015   6.275   0.846   6.445 -0.4891  0.0159  0.2861
    2FTM     C336016   6.395   0.771   6.420 -0.3920  0.1552  0.3291
    2FTM     C436017   6.417   0.677   6.517 -0.2711  0.2387  0.3828
    2FTM     F136018   6.235   0.947   6.357 -0.6187 -0.0851  0.2288
    2FTM     C536019   6.081   0.886   6.613 -0.7535  0.0324 -0.0170
    2FTM     C636020   5.937   0.832   6.581  0.3946 -0.3039 -0.1704
    2FTM     C736021   5.910   0.696   6.653  0.5684  0.3129 -0.1581
    2FTM     C836022   5.923   0.685   6.805 -0.2307 -0.0054  0.0898
    2FTM     C936023   5.815   0.768   6.883 -0.2727  0.1132  0.2632
    2FTM    C1036024   5.853   0.780   7.030  0.2243 -0.2015  0.1786
    2FTM    C1136025   5.902   0.835   6.432 -0.8809 -0.0792 -0.3037
    2FTM    C1236026   5.854   0.964   6.371  0.8884  0.0038  0.1596
    3FTM     S136027   6.841   0.182   6.704 -0.2335 -0.2351 -0.2636
    3FTM     C136028   6.996   0.105   6.656 -0.2449 -0.4046 -0.0312
    3FTM     C236029   7.037   0.153   6.536  0.1041 -0.2807  0.1343
    3FTM     C336030   6.952   0.251   6.475  0.3942 -0.0519  0.0920
    3FTM     C436031   6.842   0.279   6.552  0.2634  0.0011 -0.1130
    3FTM     F136032   7.154   0.112   6.474  0.1810 -0.3671  0.3346
    3FTM     C536033   7.058  -0.005   6.738 -0.0672 -0.2446  1.0303
    3FTM     C636034   7.105   0.035   6.875  0.3020 -0.0983  0.0477
    3FTM     C736035   7.206   0.151   6.895  0.1140  0.0638 -0.0342
    3FTM     C836036   7.353   0.136   6.864  0.4986  0.0537  0.7768
    3FTM     C936037   7.377   0.127   6.709 -0.6877 -0.0084 -0.1463
    3FTM    C1036038   7.525   0.114   6.676 -0.3313 -0.4149 -0.5053
    3FTM    C1136039   6.993   0.034   6.980 -0.9106 -0.4976 -0.5131
    3FTM    C1236040   7.020   0.040   7.127 -0.4874 -0.2548 -1.0760
    4TPM     C136041   6.995   0.805   6.488 -0.0530  0.0984 -0.4352
    4TPM     C236042   6.988   0.939   6.510 -0.3471  0.1048 -0.5685
    4TPM     C336043   7.103   1.012   6.463 -0.2927  0.2503 -0.2123
    4TPM     C436044   7.198   0.933   6.406  0.0432  0.3550  0.1924
    4TPM     S136045   7.150   0.760   6.406  0.3185  0.2772  0.1551
    5BDD     C136046   7.490   1.160   6.270  0.0406 -0.0197  0.0978
    5BDD     C236047   7.551   1.047   6.318  0.0418 -0.0255  0.0826
    5BDD     C336048   7.458   0.950   6.374  0.0483 -0.0082  0.1234
    5BDD     C436049   7.328   0.990   6.368  0.0519  0.0105  0.1689
    5BDD     S136050   7.312   1.152   6.292  0.0476  0.0078  0.1639
    5BDD     C536051   7.697   1.025   6.314  0.0373 -0.0471  0.0302
    5BDD     C636052   7.502   0.822   6.431  0.0505 -0.0109  0.1155
    5BDD     O136053   7.422   0.738   6.479  0.0559  0.0041  0.1507
    5BDD     O236054   7.777   1.108   6.266  0.0317 -0.0620 -0.0049
    5BDD     C736055   7.648   0.799   6.427  0.0459 -0.0325  0.0632
    5BDD     C836056   7.741   0.896   6.372  0.0396 -0.0498  0.0225
    5BDD     C936057   7.872   0.856   6.378  0.0360 -0.0685 -0.0232
    5BDD     S236058   7.888   0.694   6.454  0.0403 -0.0657 -0.0182
    5BDD    C1036059   7.710   0.686   6.475  0.0471 -0.0382  0.0479
    5BDD    C1136060   7.660   0.552   6.518 -0.5498 -0.2882  0.7317
    5BDD    C1236061   7.677   0.431   6.417 -0.1414  0.2969  0.4780
    5BDD    C1336062   7.606   0.453   6.279 -0.4793 -0.2325 -0.0604
    5BDD    C1436063   7.620   0.345   6.168 -0.5190  0.2273  0.0081
    5BDD    C1536064   7.517   0.228   6.175 -0.8950 -0.1753  0.7094
    5BDD    C1636065   7.372   0.274   6.190  0.3759 -0.2511  0.1296
    5BDD    C1736066   7.813   0.352   6.413  0.2079 -0.2691 -0.1789
    5BDD    C1836067   7.864   0.303   6.545 -0.0969  0.3364  0.0591
    5BDD    C1936068   8.003   0.921   6.337 -0.1942 -0.3386  0.1531
    5BDD    C2036069   8.093   0.961   6.455  0.1299 -0.4429  0.0472
    5BDD    C2136070   8.241   0.987   6.420 -0.3426  0.5962  0.1930
    5BDD    C2236071   8.314   0.878   6.338 -0.3701  0.1565 -0.0846
    5BDD    C2336072   8.447   0.925   6.285  0.2864 -0.3102 -0.0073
    5BDD    C2436073   8.506   0.834   6.177  0.6488  0.4850  0.0114
    5BDD    C2536074   8.033   1.070   6.544  0.7301 -0.1915  0.6728
    5BDD    C2636075   8.027   1.215   6.483  0.1035  0.6093 -0.4359
    6TPM     C136076   7.528   1.288   6.214 -0.0337  0.0481 -0.2442
    6TPM     C236077   7.644   1.352   6.246 -0.1498  0.0963  0.0877
    6TPM     C336078   7.649   1.488   6.199 -0.2151  0.2115  0.4091
    6TPM     C436079   7.538   1.527   6.132 -0.1487  0.2513  0.3221
    6TPM     S136080   7.416   1.394   6.122  0.0027  0.1453 -0.1762
    7BDTP    C136081   7.425   2.067   5.830  0.2397 -0.1348 -0.2249
    7BDTP    C236082   7.552   2.090   5.890  0.1832 -0.0153 -0.1500
    7BDTP    C336083   7.616   1.995   5.969  0.1943  0.0710 -0.0539
    7BDTP    C436084   7.551   1.871   5.989  0.2646  0.0380 -0.0308
    7BDTP    C536085   7.424   1.849   5.929  0.3213 -0.0815 -0.1057
    7BDTP    C636086   7.360   1.944   5.850  0.3099 -0.1678 -0.2019
    7BDTP    C736087   7.598   1.758   6.066  0.2892  0.1117  0.0633
    7BDTP    C836088   7.513   1.652   6.067  0.3605  0.0541  0.0623
    7BDTP    S136089   7.362   1.682   5.970  0.4067 -0.1018 -0.0576
    7BDTP    C936090   7.378   2.181   5.753  0.2152 -0.2086 -0.3190
    7BDTP   C1036091   7.463   2.286   5.753  0.1439 -0.1509 -0.3182
    7BDTP    S236092   7.614   2.256   5.850  0.0976  0.0050 -0.1982
    8FTM     S136093   7.775   2.181   6.123  0.2825 -0.0027 -0.0004
    8FTM     C136094   7.944   2.133   6.161  0.2627 -0.0888 -0.0229
    8FTM     C236095   7.970   2.010   6.108  0.1302 -0.1892  0.1439
    8FTM     C336096   7.862   1.948   6.037  0.0381 -0.2050  0.2955
    8FTM     C436097   7.750   2.025   6.035  0.1024 -0.1136  0.2433
    8FTM     F136098   8.092   1.947   6.121  0.0839 -0.2730  0.1688
    8FTM     C536099   8.034   2.217   6.237 -0.3203 -0.4018 -0.4623
    8FTM     C636100   8.116   2.336   6.172 -0.1844  0.0728  0.1870
    8FTM     C736101   8.037   2.460   6.110 -0.0536  0.4079  0.1938
    8FTM     C836102   7.979   2.559   6.204  0.1120  0.1260 -0.5397
    8FTM     C936103   7.857   2.503   6.266 -0.2126  0.0610 -0.0982
    8FTM    C1036104   7.802   2.592   6.376 -0.6305  1.1089 -0.3240
    8FTM    C1136105   8.238   2.303   6.080  0.1419  0.1199  0.0540
    8FTM    C1236106   8.342   2.197   6.134 -0.0335 -0.0789  0.2326
    9FTM     S136107   7.103   2.050   5.793  0.0486  0.0796 -0.0712
    9FTM     C136108   6.981   1.939   5.720 -0.3107  0.5529 -0.2065
    9FTM     C236109   7.033   1.814   5.710 -0.6359  0.4399 -0.5497
    9FTM     C336110   7.167   1.797   5.758 -0.6256 -0.0107 -0.7241
    9FTM     C436111   7.220   1.913   5.806 -0.2817 -0.2505 -0.5075
    9FTM     F136112   6.963   1.707   5.657 -0.9621  0.7377 -0.7265
    9FTM     C536113   6.864   2.007   5.654  0.4480 -0.3441  0.0950
    9FTM     C636114   6.780   2.096   5.751  0.0957  0.2214  0.3669
    9FTM     C736115   6.696   2.197   5.670  0.2389  1.1756  0.4021
    9FTM     C836116   6.770   2.285   5.572  0.3648 -0.4289  0.2855
    9FTM     C936117   6.678   2.376   5.487 -0.3729 -0.1923  0.5507
    9FTM    C1036118   6.751   2.487   5.412 -0.1951 -0.4612 -0.1016
    9FTM    C1136119   6.711   2.023   5.865 -0.8963  0.6665 -0.7122
    9FTM    C1236120   6.631   2.097   5.967  0.6338  0.1281 -0.1026
   10TPM     C136121   7.448   2.408   5.677 -0.2501 -0.3861  0.0386
   10TPM     C236122   7.495   2.532   5.709 -0.3279 -0.4110  0.2505
   10TPM     C336123   7.482   2.628   5.603 -0.4261 -0.2269  0.4295
   10TPM     C436124   7.425   2.578   5.490 -0.4230 -0.0614  0.3539
   10TPM     S136125   7.383   2.404   5.509 -0.2951 -0.1260  0.0488
   11BDD     C136126   7.199   2.770   5.229  0.0852 -0.1601 -0.0163
   11BDD     C236127   7.316   2.840   5.233  0.0461 -0.0916 -0.0591
   11BDD     C336128   7.414   2.783   5.324  0.1225 -0.0508 -0.1156
   11BDD     C436129   7.370   2.671   5.388  0.2189 -0.0890 -0.1152
   11BDD     S136130   7.202   2.628   5.339  0.2204 -0.1785 -0.0439
   11BDD     C536131   7.343   2.961   5.153 -0.0628 -0.0610 -0.0498
   11BDD     C636132   7.548   2.842   5.344  0.0974  0.0244 -0.1683
   11BDD     O136133   7.633   2.793   5.422  0.1634  0.0595 -0.2171
   11BDD     O236134   7.259   3.010   5.074 -0.1287 -0.0962 -0.0011
   11BDD     C736135   7.575   2.963   5.264 -0.0117  0.0549 -0.1588
   11BDD     C836136   7.477   3.020   5.172 -0.0881  0.0141 -0.1022
   11BDD     C936137   7.522   3.132   5.108 -0.1844  0.0522 -0.1030
   11BDD     S236138   7.689   3.174   5.157 -0.1859  0.1417 -0.1742
   11BDD    C1036139   7.693   3.033   5.267 -0.0508  0.1234 -0.2018
   11BDD    C1136140   7.823   3.012   5.344 -0.1015  0.2941 -0.0838
   11BDD    C1236141   7.939   2.944   5.283  0.4783 -0.0785  0.5748
   11BDD    C1336142   8.060   2.963   5.372 -0.2641  0.1448  0.4281
   11BDD    C1436143   8.196   2.938   5.297  0.8105  0.0071  0.1449
   11BDD    C1536144   8.309   2.983   5.383 -0.2608  0.3014  0.2356
   11BDD    C1636145   8.447   2.953   5.318  0.8458 -0.2333  0.4874
   11BDD    C1736146   7.910   2.823   5.196 -0.0571 -0.0501 -0.6756
   11BDD    C1836147   7.899   2.677   5.255  0.6462 -0.1325 -0.2209
   11BDD    C1936148   7.457   3.220   4.999 -0.1534 -0.3680 -0.1561
   11BDD    C2036149   7.420   3.368   5.032  0.5280  0.4089 -0.0854
   11BDD    C2136150   7.288   3.388   5.113 -0.0106 -1.3313  0.1383
   11BDD    C2236151   7.158   3.325   5.070 -0.7166  1.2530  0.0186
   11BDD    C2336152   7.119   3.343   4.926 -0.7273 -0.5375  0.1847
   11BDD    C2436153   6.972   3.369   4.920 -0.3620  0.0071 -0.0272
   11BDD    C2536154   7.531   3.462   5.097  0.1015  0.9365  0.7303
   11BDD    C2636155   7.641   3.485   4.995 -0.0436  0.1724  0.3806
   12TPM     C136156   7.068   2.783   5.161 -0.2105 -0.2549 -0.0870
   12TPM     C236157   6.986   2.674   5.157  0.0242 -0.4180 -0.7621
   12TPM     C336158   6.876   2.688   5.066  0.1431 -0.1975 -0.8746
   12TPM     C436159   6.873   2.807   5.000 -0.0011  0.1337 -0.2850
   12TPM     S136160   7.012   2.912   5.048 -0.3003  0.1934  0.4633
   13BDTP    C136161   6.483   2.889   4.511  0.2172 -0.3027 -0.2025
   13BDTP    C236162   6.575   2.996   4.494  0.1632 -0.2448 -0.1290
   13BDTP    C336163   6.680   3.019   4.582  0.0952 -0.1949 -0.0604
   13BDTP    C436164   6.695   2.931   4.692  0.0795 -0.2024 -0.0644
   13BDTP    C536165   6.602   2.824   4.708  0.1333 -0.2602 -0.1376
   13BDTP    C636166   6.497   2.802   4.620  0.2012 -0.3102 -0.2064
   13BDTP    C736167   6.795   2.935   4.796  0.0130 -0.1573 -0.0010
   13BDTP    C836168   6.783   2.836   4.888  0.0143 -0.1784 -0.0235
   13BDTP    S136169   6.642   2.726   4.857  0.0998 -0.2581 -0.1272
   13BDTP    C936170   6.382   2.886   4.407  0.2835 -0.3477 -0.2655
   13BDTP   C1036171   6.394   2.984   4.314  0.2823 -0.3267 -0.2433
   13BDTP    S236172   6.535   3.095   4.346  0.1966 -0.2469 -0.1396
   14FTM     S136173   6.940   3.119   4.520  0.0896  0.1827 -0.0839
   14FTM     C136174   6.961   3.297   4.509  0.1403  0.1579 -0.3923
   14FTM     C236175   6.843   3.360   4.537  0.1421  0.2379 -0.5630
   14FTM     C336176   6.732   3.275   4.568  0.1047  0.3213 -0.4663
   14FTM     C436177   6.766   3.143   4.564  0.0736  0.3047 -0.2139
   14FTM     F136178   6.829   3.498   4.535  0.1775  0.2403 -0.8166
   14FTM     C536179   7.083   3.345   4.438  0.3678 -0.4585 -0.1397
   14FTM     C636180   7.093   3.374   4.291 -0.1039  0.7906 -0.4261
   14FTM     C736181   6.989   3.469   4.222  0.2091 -0.3682 -0.2935
   14FTM     C836182   6.991   3.619   4.254 -0.1417  0.4582 -0.0567
   14FTM     C936183   7.127   3.677   4.273  0.2270 -0.1824 -0.3692
   14FTM    C1036184   7.107   3.817   4.325 -0.0610  0.0557 -0.0960
   14FTM    C1136185   7.128   3.253   4.201  0.5734  0.3335 -0.3892
   14FTM    C1236186   7.258   3.175   4.239 -0.3045 -0.3453 -0.2079
   15FTM     S136187   6.235   2.675   4.638  0.1130 -0.2625  0.1871
   15FTM     C136188   6.234   2.496   4.618  0.1127 -0.2225 -0.1762
   15FTM     C236189   6.362   2.450   4.607  0.0987 -0.1589 -0.6738
   15FTM     C336190   6.465   2.549   4.615  0.0876 -0.1379 -0.8003
   15FTM     C436191   6.416   2.675   4.631  0.0933 -0.1871 -0.3855
   15FTM     F136192   6.392   2.316   4.591  0.0949 -0.1159 -1.0448
   15FTM     C536193   6.107   2.414   4.601  0.2891 -0.0108  0.3415
   15FTM     C636194   5.972   2.455   4.656  0.2478  0.0728  0.2435
   15FTM     C736195   5.891   2.569   4.591  0.1529 -0.3944  0.5366
   15FTM     C836196   5.859   2.563   4.437 -0.2943  0.2643 -0.3794
   15FTM     C936197   5.785   2.435   4.389  0.1581  0.0539  0.3495
   15FTM    C1036198   5.748   2.461   4.237 -0.3737 -0.6277  0.1814
   15FTM    C1136199   5.956   2.460   4.809 -0.1871  0.0762  0.6087
   15FTM    C1236200   6.014   2.348   4.905  0.1239 -1.1658  0.4429
   16TPM     C136201   6.310   3.025   4.197 -0.2968  0.2363 -0.0897
   16TPM     C236202   6.326   3.132   4.114 -0.6639  0.3021 -0.0814
   16TPM     C336203   6.230   3.138   4.007 -0.6447 -0.0571 -0.1211
   16TPM     C436204   6.141   3.035   4.008 -0.2631 -0.3967 -0.1596
   16TPM     S136205   6.171   2.922   4.146  0.1045 -0.2884 -0.1486
   17BDD     C136206   5.774   2.970   3.887  0.2626 -0.3051 -0.0650
   17BDD     C236207   5.838   3.023   3.778  0.2341 -0.1733 -0.0174
   17BDD     C336208   5.976   3.058   3.804  0.1540  0.0851  0.0774
   17BDD     C436209   6.017   3.030   3.931  0.1228  0.1464  0.1007
   17BDD     S136210   5.883   2.959   4.028  0.1913 -0.1149  0.0055
   17BDD     C536211   5.773   3.045   3.647  0.2794 -0.2800 -0.0572
   17BDD     C636212   6.064   3.117   3.700  0.1117  0.2615  0.1415
   17BDD     O136213   6.184   3.146   3.722  0.0427  0.4842  0.2232
   17BDD     O236214   5.654   3.015   3.625  0.3483 -0.5027 -0.1390
   17BDD     C736215   6.000   3.138   3.569  0.1571  0.1549  0.1016
   17BDD     C836216   5.861   3.104   3.544  0.2371 -0.1034  0.0068
   17BDD     C936217   5.821   3.131   3.416  0.2685 -0.1648 -0.0165
   17BDD     S236218   5.954   3.202   3.319  0.1999  0.0964  0.0787
   17BDD    C1036219   6.063   3.191   3.460  0.1286  0.2866  0.1493
   17BDD    C1136220   6.196   3.234   3.426  0.0352  0.3028  0.8659
   17BDD    C1236221   6.257   3.369   3.452  0.0315  0.2764  0.1605
   17BDD    C1336222   6.235   3.418   3.592 -0.5130  0.0485 -0.4160
   17BDD    C1436223   6.261   3.568   3.620  0.2860 -0.1490 -0.6094
   17BDD    C1536224   6.163   3.670   3.567  0.0913  0.2823 -0.4168
   17BDD    C1636225   6.214   3.814   3.569  0.0382  0.0360  0.3737
   17BDD    C1736226   6.396   3.403   3.396  0.6437 -0.4545  0.1965
   17BDD    C1836227   6.517   3.337   3.449 -0.1462 -0.1920 -0.0271
   17BDD    C1936228   5.690   3.111   3.334  0.3398  0.2926  0.6296
   17BDD    C2036229   5.696   2.986   3.239  0.0247 -0.5887 -0.7326
   17BDD    C2136230   5.664   2.855   3.309  0.6031 -0.1661 -0.2446
   17BDD    C2236231   5.688   2.721   3.238  0.0890 -0.6406 -0.9237
   17BDD    C2336232   5.613   2.601   3.304 -0.0876 -0.0877  0.1133
   17BDD    C2436233   5.626   2.476   3.217 -0.0037 -0.3292 -0.0738
   17BDD    C2536234   5.638   3.007   3.104  0.5265 -0.5093  0.1887
   17BDD    C2636235   5.673   3.127   3.011 -0.1723 -0.4176 -0.1042
   18TPM     C136236   5.640   2.930   3.927 -0.2406 -0.0019  0.2427
   18TPM     C236237   5.619   2.833   4.020 -0.3545 -0.0651  0.1527
   18TPM     C336238   5.482   2.793   4.034 -0.3343 -0.2819 -0.2478
   18TPM     C436239   5.397   2.860   3.951 -0.2049 -0.3840 -0.4631
   18TPM     S136240   5.485   2.979   3.848 -0.0978 -0.2129 -0.1746
   19BDTP    C136241   4.769   2.802   3.934  0.0994  0.1107 -0.1152
   19BDTP    C236242   4.794   2.898   3.832  0.1220  0.1165 -0.1041
   19BDTP    C336243   4.922   2.940   3.799  0.1293  0.1173 -0.0744
   19BDTP    C436244   5.031   2.886   3.870  0.1137  0.1120 -0.0545
   19BDTP    C536245   5.005   2.790   3.972  0.0911  0.1062 -0.0656
   19BDTP    C636246   4.878   2.747   4.005  0.0836  0.1054 -0.0952
   19BDTP    C736247   5.172   2.915   3.854  0.1173  0.1117 -0.0228
   19BDTP    C836248   5.253   2.847   3.938  0.0989  0.1059 -0.0097
   19BDTP    S136249   5.162   2.736   4.050  0.0741  0.1002 -0.0355
   19BDTP    C936250   4.628   2.773   3.950  0.0957  0.1110 -0.1469
   19BDTP   C1036251   4.547   2.841   3.866  0.1142  0.1167 -0.1600
   19BDTP    S236252   4.638   2.952   3.755  0.1388  0.1225 -0.1341
   20FTM     S136253   4.882   3.003   3.524 -0.0623 -0.1298  0.0940
   20FTM     C136254   4.944   3.164   3.474 -0.5323  0.1060  0.2635
   20FTM     C236255   4.998   3.228   3.582 -0.5213  0.0589  0.2860
   20FTM     C336256   4.994   3.157   3.706 -0.1554 -0.1582  0.1758
   20FTM     C436257   4.936   3.035   3.694  0.1227 -0.2813  0.0650
   20FTM     F136258   5.053   3.355   3.574 -0.8417  0.2096  0.4081
   20FTM     C536259   4.962   3.208   3.335  0.2803  0.2281  0.5003
   20FTM     C636260   4.853   3.286   3.264 -0.0115 -0.1152 -0.2323
   20FTM     C736261   4.805   3.420   3.325 -0.3892  0.0997  0.2746
   20FTM     C836262   4.923   3.523   3.315  0.3982 -0.3253 -0.3684
   20FTM     C936263   4.890   3.671   3.338 -0.0105  0.1574  0.1370
   20FTM    C1036264   4.956   3.759   3.233  0.2126  0.3162 -0.0869
   20FTM    C1136265   4.743   3.206   3.206  0.9161  0.3735 -0.2442
   20FTM    C1236266   4.638   3.140   3.303  0.3909 -0.1044 -0.4194
   21FTM     S136267   4.832   2.676   4.272  0.2014 -0.0385  0.1589
   21FTM     C136268   4.808   2.501   4.308 -0.1869 -0.0240 -0.0126
   21FTM     C236269   4.822   2.428   4.195 -0.5372  0.0711 -0.1204
   21FTM     C336270   4.852   2.501   4.075 -0.5252  0.1368 -0.0772
   21FTM     C436271   4.860   2.635   4.098 -0.1534  0.0906  0.0684
   21FTM     F136272   4.810   2.290   4.192 -0.8893  0.1042 -0.2645
   21FTM     C536273   4.773   2.444   4.445  0.2511  0.2511 -0.3370
   21FTM     C636274   4.892   2.411   4.543  0.1861 -0.7085 -0.1611
   21FTM     C736275   4.989   2.295   4.510  0.0578 -0.4115 -0.1812
   21FTM     C836276   4.929   2.164   4.486 -0.1989 -0.3394  0.0235
   21FTM     C936277   5.011   2.033   4.498  0.3696 -0.5547 -0.0514
   21FTM    C1036278   4.927   1.912   4.457 -0.5559  0.1680  0.2893
   21FTM    C1136279   4.976   2.538   4.595 -0.1291 -0.0305  0.3378
   21FTM    C1236280   4.908   2.663   4.654  0.3763  0.4137 -0.1728
   22TPM     C136281   4.405   2.826   3.841  0.0712  0.1677 -0.0635
   22TPM     C236282   4.332   2.872   3.734  0.0707  0.0113 -0.1305
   22TPM     C336283   4.192   2.839   3.741  0.0889 -0.0662 -0.1315
   22TPM     C436284   4.158   2.768   3.852  0.1030  0.0311 -0.0652
   22TPM     S136285   4.300   2.738   3.958  0.0948  0.2298  0.0041
   23BDD     C136286   3.778   2.677   3.831  0.1347  0.0583  0.2424
   23BDD     C236287   3.837   2.570   3.891  0.1454  0.0259  0.1744
   23BDD     C336288   3.980   2.584   3.908  0.1795 -0.0675 -0.0221
   23BDD     C436289   4.029   2.703   3.861  0.1942 -0.1050 -0.1011
   23BDD     S136290   3.898   2.805   3.792  0.1665 -0.0259  0.0650
   23BDD     C536291   3.764   2.449   3.935  0.1247  0.0796  0.2876
   23BDD     C636292   4.064   2.480   3.971  0.1960 -0.1161 -0.1242
   23BDD     O136293   4.188   2.493   3.986  0.2253 -0.1965 -0.2937
   23BDD     O236294   3.640   2.436   3.920  0.0954  0.1601  0.4570
   23BDD     C736295   3.991   2.360   4.015  0.1754 -0.0624 -0.0110
   23BDD     C836296   3.848   2.345   3.998  0.1413  0.0309  0.1855
   23BDD     C936297   3.799   2.226   4.046  0.1265  0.0684  0.2645
   23BDD     S236298   3.930   2.125   4.115  0.1542 -0.0106  0.0986
   23BDD    C1036299   4.050   2.252   4.076  0.1860 -0.0948 -0.0789
   23BDD    C1136300   4.187   2.213   4.123 -0.4095  0.1193  0.0489
   23BDD    C1236301   4.220   2.220   4.276 -0.3920  0.7589 -0.0426
   23BDD    C1336302   4.346   2.146   4.305 -0.1074  0.9587 -0.0096
   23BDD    C1436303   4.359   1.994   4.267  0.3296 -0.1897 -0.8309
   23BDD    C1536304   4.508   1.939   4.275 -0.3189  0.2636  0.2777
   23BDD    C1636305   4.619   2.003   4.185 -0.3075 -0.0531  0.5335
   23BDD    C1736306   4.211   2.355   4.353  0.5019 -0.0071  0.7861
   23BDD    C1836307   4.314   2.463   4.322 -0.5783  0.3057  0.2536
   23BDD    C1936308   3.668   2.156   4.064  0.1621 -0.2846  0.5906
   23BDD    C2036309   3.604   2.086   3.941  0.7267 -0.7708  0.6529
   23BDD    C2136310   3.461   2.044   3.956 -0.0406  0.4160 -0.1215
   23BDD    C2236311   3.352   2.149   3.957 -0.2975  0.4506 -0.2066
   23BDD    C2336312   3.343   2.252   3.840 -0.2393  0.7353  0.1037
   23BDD    C2436313   3.270   2.382   3.878 -0.3419  0.2085  0.1979
   23BDD    C2536314   3.691   1.972   3.900 -0.3469  1.0912  0.7982
   23BDD    C2636315   3.667   1.897   3.769  0.7235 -0.0450 -0.8720
   24TPM     C136316   3.647   2.702   3.775  0.0388 -0.0033  0.0894
   24TPM     C236317   3.532   2.707   3.849 -0.2117 -0.6804 -0.2347
   24TPM     C336318   3.420   2.764   3.778 -0.2046 -0.8373 -0.3737
   24TPM     C436319   3.449   2.802   3.651  0.0514 -0.2797 -0.1557
   24TPM     S136320   3.621   2.769   3.609  0.3053  0.4926  0.2453
   25BDTP    C136321   3.134   3.107   3.198  0.0350 -0.0595  0.1186
   25BDTP    C236322   3.036   3.016   3.246  0.0229 -0.0429  0.1252
   25BDTP    C336323   3.060   2.928   3.350  0.0031 -0.0212  0.1484
   25BDTP    C436324   3.188   2.929   3.410 -0.0051 -0.0156  0.1659
   25BDTP    C536325   3.286   3.020   3.361  0.0071 -0.0321  0.1594
   25BDTP    C636326   3.261   3.109   3.257  0.0269 -0.0538  0.1363
   25BDTP    C736327   3.236   2.847   3.519 -0.0252  0.0059  0.1910
   25BDTP    C836328   3.365   2.872   3.554 -0.0287  0.0061  0.2034
   25BDTP    S136329   3.442   3.003   3.454 -0.0070 -0.0206  0.1851
   25BDTP    C936330   3.085   3.189   3.089  0.0552 -0.0808  0.0936
   25BDTP   C1036331   2.957   3.164   3.053  0.0587 -0.0811  0.0811
   25BDTP    S236332   2.879   3.034   3.153  0.0369 -0.0544  0.0995
   26FTM     S136333   2.797   2.874   3.467  0.1033 -0.0261 -0.2104
   26FTM     C136334   2.747   2.701   3.456  0.3268 -0.1103  0.0717
   26FTM     C236335   2.848   2.628   3.402  0.3563 -0.0367  0.0255
   26FTM     C336336   2.967   2.699   3.367  0.2106  0.0867 -0.2260
   26FTM     C436337   2.957   2.832   3.395  0.0646  0.1083 -0.3773
   26FTM     F136338   2.838   2.491   3.381  0.5170 -0.0768  0.2082
   26FTM     C536339   2.608   2.647   3.494 -0.2171 -0.1413 -0.4521
   26FTM     C636340   2.569   2.604   3.641 -0.1193 -0.2285  0.5988
   26FTM     C736341   2.623   2.696   3.753  0.8877  0.7806  0.2501
   26FTM     C836342   2.745   2.656   3.831 -0.6675  0.7462 -0.1193
   26FTM     C936343   2.741   2.526   3.914  0.6768  0.2698 -0.1022
   26FTM    C1036344   2.851   2.503   4.022  0.0582  0.4123  0.0878
   26FTM    C1136345   2.426   2.556   3.648  0.3013 -0.4690  0.4978
   26FTM    C1236346   2.387   2.462   3.756 -0.5968  0.4916 -0.3716
   27FTM     S136347   3.420   3.211   3.033  0.0854 -0.0192 -0.0383
   27FTM     C136348   3.536   3.341   3.078  0.0254 -0.0519  0.2134
   27FTM     C236349   3.526   3.368   3.211 -0.2437 -0.0609  0.1965
   27FTM     C336350   3.430   3.291   3.284 -0.4153 -0.0433 -0.0083
   27FTM     C436351   3.364   3.202   3.205 -0.2731 -0.0201 -0.1530
   27FTM     F136352   3.603   3.464   3.274 -0.3505 -0.0855  0.3656
   27FTM     C536353   3.632   3.396   2.980 -0.3108  0.3481 -0.2610
   27FTM     C636354   3.648   3.546   2.936  0.0090 -0.1015 -0.6864
   27FTM     C736355   3.713   3.639   3.046  0.1937 -0.0634 -0.6901
   27FTM     C836356   3.848   3.603   3.106 -0.3200 -0.3379 -0.0689
   27FTM     C936357   3.967   3.556   3.017  0.2718  0.2899 -0.4025
   27FTM    C1036358   4.029   3.675   2.956 -0.0091 -0.2445  1.1535
   27FTM    C1136359   3.517   3.606   2.879  0.6148  0.4359 -0.0764
   27FTM    C1236360   3.520   3.744   2.812  0.3879  0.6521 -0.2058
   28TPM     C136361   2.888   3.226   2.940  0.3159  0.1180  0.1475
   28TPM     C236362   2.944   3.285   2.831  0.5766  0.3895  0.4234
   28TPM     C336363   2.850   3.316   2.727  0.8101  0.7220  0.3082
   28TPM     C436364   2.722   3.281   2.757  0.7277  0.7041 -0.0557
   28TPM     S136365   2.710   3.205   2.920  0.3456  0.2625 -0.2828
   29BDD     C136366   2.378   3.219   2.570  0.0907 -0.1349 -0.2954
   29BDD     C236367   2.433   3.326   2.506  0.0116 -0.0469 -0.2160
   29BDD     C336368   2.563   3.364   2.558 -0.0734  0.0921 -0.1018
   29BDD     C436369   2.606   3.284   2.661 -0.0579  0.1081 -0.0958
   29BDD     S136370   2.485   3.157   2.700  0.0641 -0.0498 -0.2326
   29BDD     C536371   2.368   3.399   2.395  0.0113 -0.0873 -0.2422
   29BDD     C636372   2.641   3.477   2.504 -0.1669  0.2041 -0.0029
   29BDD     O136373   2.754   3.509   2.549 -0.2402  0.3240  0.0955
   29BDD     O236374   2.256   3.366   2.350  0.0846 -0.2072 -0.3407
   29BDD     C736375   2.576   3.549   2.393 -0.1673  0.1636 -0.0291
   29BDD     C836376   2.446   3.512   2.341 -0.0822  0.0246 -0.1433
   29BDD     C936377   2.404   3.592   2.238 -0.0977  0.0085 -0.1493
   29BDD     S236378   2.524   3.719   2.200 -0.2197  0.1664 -0.0126
   29BDD    C1036379   2.632   3.657   2.329 -0.2463  0.2515  0.0502
   29BDD    C1136380   2.766   3.730   2.337  0.5169 -0.2212 -0.0579
   29BDD    C1236381   2.870   3.684   2.227 -0.0981  0.0584 -0.5566
   29BDD    C1336382   2.906   3.535   2.211  0.4844  0.1972  0.5493
   29BDD    C1436383   2.984   3.478   2.088  0.3106 -0.3475  0.1020
   29BDD    C1536384   2.901   3.499   1.961 -0.3260  0.1850  0.4683
   29BDD    C1636385   2.956   3.429   1.835  0.0008  0.1383 -0.1665
   29BDD    C1736386   2.978   3.784   2.191 -0.9075 -0.4034 -0.7383
   29BDD    C1836387   2.935   3.923   2.154  0.3129  0.0399  0.8888
   29BDD    C1936388   2.281   3.604   2.151 -0.0724  0.3625 -0.3560
   29BDD    C2036389   2.201   3.725   2.154  0.0345 -0.4182 -0.3684
   29BDD    C2136390   2.134   3.744   2.288  0.6518 -0.3791  0.7382
   29BDD    C2236391   2.077   3.880   2.333 -0.2996  0.0729  0.4612
   29BDD    C2336392   2.188   3.985   2.348 -0.7113  0.5730  0.3473
   29BDD    C2436393   2.157   4.124   2.398 -0.6178 -0.2588  0.0587
   29BDD    C2536394   2.133   3.747   2.017 -0.0229  0.2743  0.1053
   29BDD    C2636395   2.065   3.881   1.984  0.0253 -0.3690 -0.3106
   30TPM     C136396   2.253   3.145   2.562 -0.0756 -0.1773 -0.6604
   30TPM     C236397   2.131   3.197   2.531 -0.2419 -0.4299 -0.4371
   30TPM     C336398   2.023   3.102   2.542 -0.0858 -0.5460  0.1642
   30TPM     C436399   2.063   2.978   2.582  0.1995 -0.3821  0.3995
   30TPM     S136400   2.241   2.971   2.608  0.2938 -0.0658 -0.1242
   31BDTP    C136401   1.748   2.438   2.660  0.2947  0.0285  0.1489
   31BDTP    C236402   1.670   2.505   2.562  0.2447  0.0189  0.1819
   31BDTP    C336403   1.703   2.630   2.512  0.1941  0.0342  0.1864
   31BDTP    C436404   1.819   2.692   2.562  0.1927  0.0603  0.1572
   31BDTP    C536405   1.897   2.625   2.661  0.2427  0.0699  0.1242
   31BDTP    C636406   1.864   2.500   2.710  0.2933  0.0546  0.1196
   31BDTP    C736407   1.874   2.822   2.526  0.1453  0.0799  0.1556
   31BDTP    C836408   1.988   2.854   2.592  0.1571  0.1034  0.1234
   31BDTP    S136409   2.042   2.726   2.709  0.2300  0.1041  0.0905
   31BDTP    C936410   1.694   2.309   2.697  0.3421  0.0089  0.1505
   31BDTP   C1036411   1.580   2.276   2.631  0.3302 -0.0146  0.1827
   31BDTP    S236412   1.526   2.404   2.514  0.2573 -0.0154  0.2155
   32FTM     S136413   1.427   2.711   2.465  0.1879  0.0133  0.2013
   32FTM     C136414   1.401   2.822   2.326  0.2008  0.0810  0.2526
   32FTM     C236415   1.519   2.846   2.263  0.1287 -0.2865 -0.0265
   32FTM     C336416   1.634   2.780   2.318  0.0605 -0.6346 -0.2909
   32FTM     C436417   1.603   2.704   2.426  0.0812 -0.5304 -0.2118
   32FTM     F136418   1.530   2.928   2.151  0.1200 -0.3293 -0.0591
   32FTM     C536419   1.259   2.845   2.288 -0.0309  0.6948 -0.3445
   32FTM     C636420   1.184   2.978   2.326 -0.0930  0.1528  0.0316
   32FTM     C736421   1.195   3.025   2.478 -0.6426  0.2406  0.0732
   32FTM     C836422   1.322   3.090   2.526  0.0017  0.4659 -0.3568
   32FTM     C936423   1.340   3.238   2.483  0.1097  0.3552  0.6156
   32FTM    C1036424   1.448   3.315   2.544  0.3018  0.3372 -0.9507
   32FTM    C1136425   1.036   2.987   2.276  0.4216 -0.4398  0.3761
   32FTM    C1236426   1.001   2.931   2.139  0.3524 -0.4683  0.0343
   33FTM     S136427   1.852   2.406   2.976 -0.1853 -0.2855 -0.4118
   33FTM     C136428   2.007   2.345   3.045 -0.0726  0.3723 -0.0670
   33FTM     C236429   2.106   2.354   2.953 -0.0004  0.4023  0.0135
   33FTM     C336430   2.069   2.408   2.825 -0.0275 -0.0728 -0.1834
   33FTM     C436431   1.937   2.441   2.820 -0.1237 -0.4800 -0.4225
   33FTM     F136432   2.236   2.314   2.978  0.0948  0.8619  0.2702
   33FTM     C536433   2.018   2.317   3.193 -0.1665  0.2264 -0.0183
   33FTM     C636434   2.086   2.190   3.257  0.4169 -0.2546  0.4884
   33FTM     C736435   2.055   2.055   3.193 -0.3148 -0.1473 -0.1061
   33FTM     C836436   1.910   2.023   3.143 -0.4901 -0.5478  0.3810
   33FTM     C936437   1.899   1.889   3.069  0.6615 -0.4808 -0.0585
   33FTM    C1036438   1.763   1.810   3.066 -0.2011  0.0935 -0.2221
   33FTM    C1136439   2.079   2.199   3.411 -0.8720  0.2596 -0.3138
   33FTM    C1236440   2.190   2.118   3.480  0.2253 -0.1847 -0.2657
   34TPM     C136441   1.503   2.153   2.646 -0.0023 -0.0295 -0.1619
   34TPM     C236442   1.554   2.031   2.678 -0.0775 -0.1335 -0.4271
   34TPM     C336443   1.457   1.925   2.672 -0.1553 -0.0522 -0.6130
   34TPM     C436444   1.333   1.965   2.633 -0.1395  0.1139 -0.4895
   34TPM     S136445   1.328   2.143   2.603 -0.0242  0.1810 -0.1260
   35BDD     C136446   0.964   1.842   2.645  0.0716  0.1177 -0.0419
   35BDD     C236447   1.035   1.726   2.662  0.0540  0.1166  0.0254
   35BDD     C336448   1.179   1.747   2.657  0.0578  0.1001  0.0677
   35BDD     C436449   1.215   1.877   2.637  0.0782  0.0889  0.0320
   35BDD     S136450   1.071   1.983   2.622  0.0941  0.0982 -0.0569
   35BDD     C536451   0.974   1.593   2.683  0.0331  0.1306  0.0532
   35BDD     C636452   1.276   1.636   2.673  0.0410  0.0961  0.1419
   35BDD     O136453   1.400   1.653   2.669  0.0443  0.0820  0.1783
   35BDD     O236454   0.851   1.576   2.687  0.0299  0.1448  0.0167
   35BDD     C736455   1.215   1.503   2.695  0.0201  0.1102  0.1697
   35BDD     C836456   1.071   1.483   2.699  0.0163  0.1266  0.1274
   35BDD     C936457   1.035   1.352   2.720 -0.0041  0.1378  0.1631
   35BDD     S236458   1.179   1.246   2.735 -0.0200  0.1285  0.2520
   35BDD    C1036459   1.286   1.388   2.712  0.0025  0.1091  0.2370
   35BDD    C1136460   1.432   1.350   2.727 -0.0357 -0.5004 -0.0009
   35BDD    C1236461   1.524   1.348   2.600  0.0053 -0.0690 -0.0794
   35BDD    C1336462   1.486   1.244   2.494 -0.0644  0.2521  0.4633
   35BDD    C1436463   1.501   1.088   2.512  0.4792  0.0755 -0.1777
   35BDD    C1536464   1.635   1.013   2.505 -0.4420 -0.5231  0.2179
   35BDD    C1636465   1.699   1.017   2.367 -0.4336 -0.3729 -0.0838
   35BDD    C1736466   1.674   1.381   2.621 -0.1123  0.1743 -0.1766
   35BDD    C1836467   1.704   1.500   2.704  0.5494 -0.2762 -0.2615
   35BDD    C1936468   0.911   1.276   2.745 -0.4638 -0.0019 -0.2161
   35BDD    C2036469   0.892   1.220   2.893  0.3604  0.2673  0.3362
   35BDD    C2136470   0.780   1.119   2.904 -0.0600  0.1856 -0.3182
   35BDD    C2236471   0.800   0.982   2.829  0.0701  0.7450 -0.2166
   35BDD    C2336472   0.915   0.894   2.877  0.6964 -0.1895 -0.0603
   35BDD    C2436473   0.946   0.812   2.763 -0.4276  0.1167  0.7622
   35BDD    C2536474   0.900   1.321   3.015  0.4590  0.6993  0.3885
   35BDD    C2636475   0.787   1.429   3.034 -0.4398  0.6105 -0.2745
   36TPM     C136476   0.824   1.876   2.618  0.0947 -0.2978 -0.6609
   36TPM     C236477   0.714   1.810   2.662  0.2853 -0.8509 -0.9825
   36TPM     C336478   0.590   1.872   2.624  0.0962 -1.1057 -0.7926
   36TPM     C436479   0.606   1.986   2.551 -0.2384 -0.7470 -0.3263
   36TPM     S136480   0.780   2.023   2.523 -0.3416 -0.0540 -0.0889
   37BDTP    C136481   0.201   2.381   2.265 -0.0796  0.1202  0.1901
   37BDTP    C236482   0.123   2.264   2.281 -0.0300  0.0881  0.1981
   37BDTP    C336483   0.172   2.148   2.341  0.0125  0.1196  0.2238
   37BDTP    C436484   0.305   2.149   2.387  0.0057  0.1858  0.2425
   37BDTP    C536485   0.383   2.267   2.370 -0.0439  0.2179  0.2344
   37BDTP    C636486   0.334   2.382   2.311 -0.0863  0.1863  0.2087
   37BDTP    C736487   0.378   2.042   2.452  0.0439  0.2284  0.2701
   37BDTP    C836488   0.505   2.073   2.485  0.0256  0.2902  0.2831
   37BDTP    S136489   0.551   2.243   2.438 -0.0426  0.3030  0.2620
   37BDTP    C936490   0.128   2.488   2.200 -0.1177  0.0775  0.1624
   37BDTP   C1036491   0.000   2.457   2.167 -0.0992  0.0157  0.1495
   37BDTP    S236492  -0.046   2.288   2.214 -0.0313  0.0030  0.1706
   38FTM     S136493   0.113   1.853   2.347  0.0925 -0.1485  0.2160
   38FTM     C136494  -0.034   1.818   2.445  0.1068  0.0264  0.3016
   38FTM     C236495  -0.094   1.934   2.483  0.0515  0.0922  0.0113
   38FTM     C336496  -0.031   2.055   2.438 -0.0043  0.0126 -0.2884
   38FTM     C436497   0.081   2.030   2.365  0.0090 -0.1184 -0.2253
   38FTM     F136498  -0.210   1.937   2.559  0.0477  0.2284 -0.0004
   38FTM     C536499  -0.072   1.677   2.481  0.4993 -0.0090  0.1137
   38FTM     C636500  -0.077   1.607   2.625 -0.2007 -0.7521 -0.4194
   38FTM     C736501  -0.147   1.472   2.617 -0.1982  0.6647 -0.5945
   38FTM     C836502  -0.280   1.459   2.539 -0.0489 -0.2039 -0.2012
   38FTM     C936503  -0.336   1.315   2.531 -0.3863  0.5665 -0.0094
   38FTM    C1036504  -0.457   1.289   2.456  0.3006  0.1270  1.1228
   38FTM    C1136505   0.047   1.605   2.716  0.1585 -0.0016 -0.2683
   38FTM    C1236506   0.108   1.738   2.754  0.2984 -0.6762 -0.0776
   39FTM     S136507   0.473   2.591   2.445  0.2774 -0.2064 -0.1404
   39FTM     C136508   0.561   2.707   2.340 -0.3041  0.4480  0.0807
   39FTM     C236509   0.539   2.677   2.209 -0.7001  1.0126  0.0091
   39FTM     C336510   0.455   2.564   2.184 -0.5786  0.9717 -0.2168
   39FTM     C436511   0.410   2.506   2.299 -0.0729  0.3557 -0.3214
   39FTM     F136512   0.595   2.750   2.105 -1.1963  1.5999  0.1436
   39FTM     C536513   0.658   2.801   2.404 -0.3536  0.1547  0.3755
   39FTM     C636514   0.593   2.937   2.454 -0.1697 -0.0949  0.1748
   39FTM     C736515   0.488   2.941   2.567  0.1384 -0.0646  0.0710
   39FTM     C836516   0.542   2.878   2.693 -1.1163 -0.2297  0.4879
   39FTM     C936517   0.456   2.884   2.818  0.5484  0.6451 -0.0796
   39FTM    C1036518   0.533   2.848   2.945  0.1130  0.1289  0.2125
   39FTM    C1136519   0.552   3.030   2.335 -0.4249 -0.5770  0.0228
   39FTM    C1236520   0.671   3.098   2.259 -0.2213  0.1525 -0.3083
   40TPM     C136521  -0.091   2.537   2.099  0.0695  0.1671  0.3060
   40TPM     C236522  -0.224   2.518   2.072  0.0103  0.2288  0.5487
   40TPM     C336523  -0.279   2.617   1.983 -0.0529  0.1265  0.4749
   40TPM     C436524  -0.189   2.710   1.942 -0.0417 -0.0131  0.1758
   40TPM     S136525  -0.026   2.681   2.013  0.0501 -0.0264 -0.0374
   41BDD     C136526  -0.373   2.994   1.741  0.0378  0.0051 -0.1392
   41BDD     C236527  -0.240   3.010   1.712  0.0548  0.0242 -0.0524
   41BDD     C336528  -0.155   2.909   1.774  0.0188 -0.0195 -0.0740
   41BDD     C436529  -0.225   2.818   1.849 -0.0249 -0.0712 -0.1769
   41BDD     S136530  -0.401   2.852   1.848 -0.0243 -0.0687 -0.2538
   41BDD     C536531  -0.186   3.118   1.627  0.1047  0.0832  0.0534
   41BDD     C636532  -0.009   2.907   1.756  0.0291 -0.0085  0.0082
   41BDD     O136533   0.064   2.820   1.809 -0.0019 -0.0461 -0.0104
   41BDD     O236534  -0.259   3.205   1.574  0.1359  0.1209  0.0721
   41BDD     C736535   0.045   3.015   1.671  0.0789  0.0506  0.1141
   41BDD     C836536  -0.040   3.116   1.609  0.1152  0.0944  0.1357
   41BDD     C936537   0.030   3.207   1.534  0.1585  0.1460  0.2385
   41BDD     S236538   0.206   3.172   1.536  0.1579  0.1436  0.3155
   41BDD    C1036539   0.178   3.031   1.642  0.0956  0.0696  0.2008
   41BDD    C1136540   0.305   2.958   1.685  0.9090 -0.3436 -0.1112
   41BDD    C1236541   0.388   3.036   1.792 -0.1463  0.1874 -0.1329
   41BDD    C1336542   0.320   3.088   1.926  0.1159 -0.1532  0.3557
   41BDD    C1436543   0.277   2.977   2.022  0.5519  0.3358 -0.2543
   41BDD    C1536544   0.192   3.014   2.140 -0.4174  0.4999 -0.1591
   41BDD    C1636545   0.177   2.923   2.257 -0.5391 -0.0233 -0.5402
   41BDD    C1736546   0.523   2.959   1.805  0.8987  0.4441  0.3015
   41BDD    C1836547   0.635   3.037   1.870  0.2206  0.5694  0.8398
   41BDD    C1936548  -0.001   3.341   1.476  0.2576 -0.0832  0.3459
   41BDD    C2036549   0.021   3.346   1.324  0.1769  0.0847 -0.9771
   41BDD    C2136550   0.002   3.494   1.275  0.0844 -0.3528 -0.3613
   41BDD    C2236551   0.042   3.523   1.127 -0.2375 -0.0859 -0.1331
   41BDD    C2336552   0.187   3.482   1.082 -0.2056 -0.3314  0.2863
   41BDD    C2436553   0.219   3.534   0.938  0.7248 -0.3354 -0.5198
   41BDD    C2536554  -0.031   3.229   1.242  0.0631 -0.4601  0.5415
   41BDD    C2636555  -0.185   3.225   1.228 -0.3009  0.2744 -0.7148
   42TPM     C136556  -0.497   3.070   1.723  0.1511 -0.2120  0.2550
   42TPM     C236557  -0.546   3.101   1.599  0.1271 -0.0350  0.3089
   42TPM     C336558  -0.688   3.125   1.597  0.1404  0.0542  0.3862
   42TPM     C436559  -0.748   3.111   1.719  0.1748 -0.0548  0.3913
   42TPM     S136560  -0.628   3.067   1.847  0.1929 -0.2803  0.2981
   43BDTP    C136561  -1.374   3.077   1.794 -0.1264 -0.4758  0.2494
   43BDTP    C236562  -1.326   3.072   1.928  0.0238 -0.3339  0.2009
   43BDTP    C336563  -1.191   3.079   1.959  0.0610 -0.3324  0.0413
   43BDTP    C436564  -1.099   3.090   1.854 -0.0551 -0.4776 -0.0761
   43BDTP    C536565  -1.147   3.095   1.720 -0.2048 -0.6195 -0.0276
   43BDTP    C636566  -1.282   3.088   1.688 -0.2417 -0.6210  0.1320
   43BDTP    C736567  -0.955   3.099   1.861 -0.0436 -0.5055 -0.2485
   43BDTP    C836568  -0.893   3.109   1.741 -0.1755 -0.6595 -0.3307
   43BDTP    S136569  -1.009   3.110   1.601 -0.3333 -0.7910 -0.2013
   43BDTP    C936570  -1.519   3.068   1.786 -0.1376 -0.4480  0.4219
   43BDTP   C1036571  -1.581   3.058   1.907 -0.0052 -0.2939  0.5040
   43BDTP    S236572  -1.464   3.057   2.046  0.1524 -0.1625  0.3745
   44FTM     S136573  -1.025   2.978   2.154 -0.3025 -0.2000  0.0188
   44FTM     C136574  -1.037   3.042   2.322 -0.2951 -0.2596  0.0422
   44FTM     C236575  -1.136   3.135   2.329 -0.2873 -0.2540  0.0775
   44FTM     C336576  -1.206   3.163   2.207 -0.2868 -0.2043  0.0884
   44FTM     C436577  -1.160   3.087   2.103 -0.2945 -0.1706  0.0605
   44FTM     F136578  -1.168   3.202   2.446 -0.2801 -0.2937  0.1021
   44FTM     C536579  -0.927   2.998   2.420  0.2096  0.1810 -0.4908
   44FTM     C636580  -0.876   3.101   2.524  0.9802  0.0217 -0.5275
   44FTM     C736581  -0.797   3.040   2.643 -0.0023  0.3977  0.3068
   44FTM     C836582  -0.888   2.975   2.746 -0.5997  0.0681  0.1629
   44FTM     C936583  -0.801   2.919   2.857 -0.2969  0.2414  0.0577
   44FTM    C1036584  -0.885   2.876   2.970  0.0602  0.1848  0.4293
   44FTM    C1136585  -0.834   3.239   2.471  0.1439 -0.2446  0.1776
   44FTM    C1236586  -0.815   3.348   2.575  0.3130 -0.0812 -0.6209
   45FTM     S136587  -1.264   3.007   1.415 -0.0693  0.0622  0.1082
   45FTM     C136588  -1.357   3.108   1.298  0.0404  0.2495  0.1795
   45FTM     C236589  -1.430   3.201   1.365 -0.0043  0.1584  0.2578
   45FTM     C336590  -1.419   3.200   1.508 -0.1235 -0.0574  0.2668
   45FTM     C436591  -1.334   3.103   1.552 -0.1720 -0.1339  0.1931
   45FTM     F136592  -1.513   3.292   1.300  0.0601  0.2649  0.3259
   45FTM     C536593  -1.341   3.071   1.154  0.1403  0.4552  0.6122
   45FTM     C636594  -1.234   3.128   1.062 -0.4450  0.5087  0.1423
   45FTM     C736595  -1.241   3.277   1.029 -0.2051 -0.2648  0.3510
   45FTM     C836596  -1.354   3.315   0.936  0.2379 -0.2518  0.1618
   45FTM     C936597  -1.358   3.463   0.890 -0.2406 -0.3976 -0.3900
   45FTM    C1036598  -1.472   3.495   0.797  0.2334 -0.3077  0.1386
   45FTM    C1136599  -1.090   3.070   1.063 -0.5394  0.0386 -0.0059
   45FTM    C1236600  -1.056   2.922   1.058  0.1826 -0.0121  0.2039
   46TPM     C136601  -1.716   3.014   1.923  0.1919 -0.0026 -0.0230
   46TPM     C236602  -1.765   2.943   2.028  0.4081 -0.2928 -0.1134
   46TPM     C336603  -1.906   2.913   2.017  0.4728 -0.6154 -0.0975
   46TPM     C436604  -1.963   2.962   1.903  0.3058 -0.5714  0.0048
   46TPM     S136605  -1.844   3.049   1.800  0.0521 -0.1155  0.0899
   47BDD     C136606  -2.267   2.790   1.716 -0.1615  0.1310 -0.2520
   47BDD     C236607  -2.313   2.820   1.842 -0.0894  0.0998 -0.2186
   47BDD     C336608  -2.214   2.886   1.925 -0.0219  0.0244 -0.2390
   47BDD     C436609  -2.094   2.905   1.861 -0.0436 -0.0010 -0.2877
   47BDD     S136610  -2.098   2.843   1.693 -0.1500  0.0679 -0.3114
   47BDD     C536611  -2.449   2.788   1.890 -0.0799  0.1384 -0.1667
   47BDD     C636612  -2.241   2.927   2.064  0.0615 -0.0197 -0.2095
   47BDD     O136613  -2.155   2.984   2.135  0.1197 -0.0847 -0.2272
   47BDD     O236614  -2.534   2.732   1.818 -0.1380  0.2034 -0.1491
   47BDD     C736615  -2.377   2.895   2.112  0.0709  0.0188 -0.1576
   47BDD     C836616  -2.476   2.829   2.029  0.0036  0.0942 -0.1372
   47BDD     C936617  -2.596   2.810   2.093  0.0253  0.1196 -0.0885
   47BDD     S236618  -2.592   2.872   2.261  0.1316  0.0507 -0.0648
   47BDD    C1036619  -2.422   2.925   2.238  0.1432 -0.0122 -0.1242
   47BDD    C1136620  -2.357   2.976   2.367 -0.2654  0.4364  0.3593
   47BDD    C1236621  -2.402   3.113   2.416 -0.2312 -0.3136  0.7004
   47BDD    C1336622  -2.403   3.230   2.317  0.1003  0.3200 -0.1644
   47BDD    C1436623  -2.268   3.302   2.289 -0.1552 -0.3561 -0.6432
   47BDD    C1536624  -2.296   3.423   2.209 -0.4077 -0.2936  0.5932
   47BDD    C1636625  -2.175   3.498   2.167 -0.0637 -0.2457  0.5426
   47BDD    C1736626  -2.357   3.118   2.556 -0.4363 -0.2835 -0.5205
   47BDD    C1836627  -2.418   3.225   2.643 -0.0449 -0.4818  0.3808
   47BDD    C1936628  -2.727   2.745   2.046  0.1355  0.4638 -0.2379
   47BDD    C2036629  -2.820   2.825   1.951  0.0604  0.0909 -0.2615
   47BDD    C2136630  -2.863   2.964   1.985  0.0934 -0.8605  0.1891
   47BDD    C2236631  -2.758   3.077   1.990 -0.2532  0.1961  0.0718
   47BDD    C2336632  -2.674   3.101   1.865 -0.3108  0.0065 -0.0823
   47BDD    C2436633  -2.546   3.177   1.895 -0.5964  0.3280  0.0937
   47BDD    C2536634  -2.920   2.737   1.883 -0.2944  0.5556 -0.0401
   47BDD    C2636635  -2.956   2.778   1.744  0.0263 -0.3167  0.4487
   48TPM     C136636  -2.315   2.709   1.605 -0.0214  0.1457 -0.0954
   48TPM     C236637  -2.258   2.716   1.481 -0.1339 -0.1082 -0.1625
   48TPM     C336638  -2.326   2.636   1.382 -0.2832 -0.2345  0.0390
   48TPM     C436639  -2.434   2.569   1.430 -0.2849 -0.0771  0.2597
   48TPM     S136640  -2.459   2.601   1.606 -0.0963  0.2455  0.2299
   49BDTP    C136641  -2.805   2.173   1.116 -0.0222  0.1947 -0.0096
   49BDTP    C236642  -2.864   2.179   1.246  0.0358 -0.0098  0.0272
   49BDTP    C336643  -2.815   2.259   1.348  0.0632 -0.1474  0.1227
   49BDTP    C436644  -2.701   2.337   1.321  0.0321 -0.0805  0.1848
   49BDTP    C536645  -2.641   2.331   1.191 -0.0257  0.1240  0.1480
   49BDTP    C636646  -2.691   2.251   1.090 -0.0532  0.2615  0.0526
   49BDTP    C736647  -2.631   2.428   1.410  0.0515 -0.1952  0.2863
   49BDTP    C836648  -2.524   2.489   1.355  0.0114 -0.0881  0.3269
   49BDTP    S136649  -2.496   2.441   1.182 -0.0565  0.1732  0.2424
   49BDTP    C936650  -2.874   2.083   1.027 -0.0415  0.3095 -0.1110
   49BDTP   C1036651  -2.982   2.021   1.082 -0.0012  0.2024 -0.1516
   49BDTP    S236652  -3.010   2.069   1.255  0.0666 -0.0589 -0.0671
   50FTM     S136653  -2.879   2.104   1.575 -0.0503 -0.1274 -0.1540
   50FTM     C136654  -2.961   2.189   1.711 -0.1193 -0.4389  0.0010
   50FTM     C236655  -2.975   2.321   1.681 -0.2558 -0.4022  0.2252
   50FTM     C336656  -2.925   2.363   1.554 -0.3139 -0.1361  0.2886
   50FTM     C436657  -2.870   2.260   1.483 -0.2187  0.0364  0.1070
   50FTM     F136658  -3.035   2.411   1.768 -0.3364 -0.6074  0.3864
   50FTM     C536659  -3.001   2.112   1.830 -0.5058 -0.1014 -0.0454
   50FTM     C636660  -3.150   2.119   1.876 -0.2910 -0.9552 -0.2191
   50FTM     C736661  -3.256   2.097   1.770 -0.9580 -0.3947  0.2787
   50FTM     C836662  -3.256   1.966   1.683 -0.6516 -0.6017  0.0213
   50FTM     C936663  -3.357   1.965   1.577  0.2829 -1.1090  0.4220
   50FTM    C1036664  -3.327   1.857   1.481  0.2923  0.4573  0.7162
   50FTM    C1136665  -3.188   2.242   1.971 -1.1579  0.0643 -0.4497
   50FTM    C1236666  -3.111   2.273   2.106  0.8149 -0.3629  0.0463
   51FTM     S136667  -2.518   2.090   0.929  0.0674 -0.0891  0.0814
   51FTM     C136668  -2.467   2.160   0.771 -0.0103 -0.1958  0.0087
   51FTM     C236669  -2.521   2.285   0.756  0.1986 -0.0971  0.0699
   51FTM     C336670  -2.603   2.331   0.864  0.4264  0.0638  0.1746
   51FTM     C436671  -2.612   2.240   0.965  0.3905  0.0889  0.1941
   51FTM     F136672  -2.499   2.363   0.644  0.1961 -0.1464  0.0349
   51FTM     C536673  -2.376   2.070   0.691 -0.5852  0.1259 -0.4453
   51FTM     C636674  -2.400   2.053   0.535 -0.2368  0.5211 -0.1205
   51FTM     C736675  -2.539   2.015   0.476  0.0576  0.0010 -0.6206
   51FTM     C836676  -2.634   1.928   0.558 -0.4429  0.4706  0.8915
   51FTM     C936677  -2.772   1.924   0.507 -0.1808  0.0912  0.1436
   51FTM    C1036678  -2.864   1.827   0.591 -0.6770 -0.3761  0.2599
   51FTM    C1136679  -2.276   2.001   0.451 -0.4079 -0.1745  0.2511
   51FTM    C1236680  -2.264   1.846   0.426 -0.0235 -0.3063  0.3119
   52TPM     C136681  -3.077   1.925   1.033  0.1296 -0.0604 -0.3179
   52TPM     C236682  -3.057   1.839   0.929  0.3192 -0.6275  0.1757
   52TPM     C336683  -3.151   1.730   0.925  0.4551 -0.7706  0.7104
   52TPM     C436684  -3.243   1.732   1.026  0.3692 -0.3125  0.6246
   52TPM     S136685  -3.218   1.874   1.135  0.1079  0.3401 -0.1442
   53BDD     C136686  -3.469   1.452   1.172  0.1132 -0.0713 -0.1745
   53BDD     C236687  -3.515   1.472   1.045  0.0455 -0.0243 -0.1422
   53BDD     C336688  -3.441   1.574   0.972 -0.0306  0.0444 -0.1233
   53BDD     C436689  -3.340   1.630   1.045 -0.0201  0.0487 -0.1413
   53BDD     S136690  -3.330   1.559   1.209  0.0861 -0.0329 -0.1833
   53BDD     C536691  -3.629   1.399   0.985  0.0484 -0.0407 -0.1277
   53BDD     C636692  -3.474   1.613   0.834 -0.1113  0.1032 -0.0879
   53BDD     O136693  -3.411   1.701   0.771 -0.1769  0.1624 -0.0715
   53BDD     O236694  -3.692   1.311   1.048  0.1141 -0.0999 -0.1441
   53BDD     C736695  -3.588   1.539   0.774 -0.1084  0.0868 -0.0734
   53BDD     C836696  -3.662   1.437   0.847 -0.0323  0.0181 -0.0924
   53BDD     C936697  -3.763   1.381   0.774 -0.0428  0.0138 -0.0743
   53BDD     S236698  -3.773   1.453   0.610 -0.1490  0.0954 -0.0323
   53BDD    C1036699  -3.634   1.560   0.647 -0.1760  0.1338 -0.0411
   53BDD    C1136700  -3.587   1.642   0.520  0.1747  0.3552 -0.7361
   53BDD    C1236701  -3.439   1.648   0.488 -0.2024  0.2447 -0.5220
   53BDD    C1336702  -3.386   1.503   0.478 -0.6613  0.1632  0.4213
   53BDD    C1436703  -3.233   1.489   0.447  0.0101  0.3548  0.3527
   53BDD    C1536704  -3.192   1.344   0.444 -0.4651  0.2270 -0.1631
   53BDD    C1636705  -3.047   1.341   0.412 -0.2682  0.5981  0.1930
   53BDD    C1736706  -3.401   1.742   0.366  0.0635 -0.1527 -0.4601
   53BDD    C1836707  -3.409   1.894   0.387  0.0907  0.5773 -0.1654
   53BDD    C1936708  -3.864   1.278   0.814  0.5369  0.6327  0.0961
   53BDD    C2036709  -4.017   1.318   0.806 -0.8333 -0.0034 -0.1403
   53BDD    C2136710  -4.040   1.447   0.891  0.7538  0.3354 -0.1301
   53BDD    C2236711  -4.170   1.539   0.894 -0.3422  0.5516 -0.4413
   53BDD    C2336712  -4.231   1.581   0.760  0.0710  0.7622 -0.2560
   53BDD    C2436713  -4.369   1.650   0.776  0.0788  0.7130 -0.6374
   53BDD    C2536714  -4.116   1.204   0.825 -0.0608 -0.1651  0.1424
   53BDD    C2636715  -4.143   1.119   0.955 -0.5553  0.1155 -0.4664
   54TPM     C136716  -3.499   1.358   1.285 -0.0583  0.1080  0.2933
   54TPM     C236717  -3.403   1.338   1.379 -0.0889  0.4973  0.4099
   54TPM     C336718  -3.437   1.237   1.476  0.1566  0.4323  0.4304
   54TPM     C436719  -3.559   1.180   1.455  0.3745 -0.0066  0.3294
   54TPM     S136720  -3.641   1.250   1.311  0.2860 -0.3748  0.1996
   55BDTP    C136721  -3.773   0.693   1.784  0.0294 -0.0110  0.0384
   55BDTP    C236722  -3.874   0.711   1.686  0.0896 -0.1321 -0.0463
   55BDTP    C336723  -3.871   0.814   1.593  0.0856 -0.1759 -0.0951
   55BDTP    C436724  -3.763   0.903   1.597  0.0188 -0.0969 -0.0588
   55BDTP    C536725  -3.662   0.886   1.695 -0.0416  0.0242  0.0260
   55BDTP    C636726  -3.665   0.783   1.788 -0.0374  0.0680  0.0748
   55BDTP    C736727  -3.738   1.018   1.511  0.0014 -0.1218 -0.0969
   55BDTP    C836728  -3.625   1.085   1.540 -0.0681 -0.0266 -0.0456
   55BDTP    S136729  -3.533   1.014   1.680 -0.1215  0.1082  0.0583
   55BDTP    C936730  -3.797   0.579   1.870  0.0467  0.0139  0.0766
   55BDTP   C1036731  -3.911   0.511   1.841  0.1163 -0.0813  0.0253
   55BDTP    S236732  -4.003   0.582   1.701  0.1697 -0.2160 -0.0786
   56FTM     S136733  -4.091   0.985   1.493 -0.3698  0.0083  0.1900
   56FTM     C136734  -4.175   0.923   1.347 -0.2750  0.0430  0.1203
   56FTM     C236735  -4.122   0.803   1.311 -0.0554  0.1886 -0.0463
   56FTM     C336736  -4.016   0.754   1.393  0.0497  0.2798 -0.1280
   56FTM     C436737  -3.986   0.839   1.495 -0.0938  0.2015 -0.0204
   56FTM     F136738  -4.167   0.730   1.202  0.0633  0.2479 -0.1348
   56FTM     C536739  -4.280   1.008   1.292 -0.2104 -1.1047 -0.4407
   56FTM     C636740  -4.427   0.988   1.316  1.0514  0.2359  0.1707
   56FTM     C736741  -4.474   0.846   1.274  0.0745 -0.1749  0.3370
   56FTM     C836742  -4.521   0.831   1.125  0.3240 -0.0527 -0.1765
   56FTM     C936743  -4.635   0.916   1.073 -0.4744 -0.6255 -0.1504
   56FTM    C1036744  -4.767   0.909   1.150  0.1323  0.3406  0.0666
   56FTM    C1136745  -4.473   1.019   1.461 -0.5710 -0.7003 -0.6603
   56FTM    C1236746  -4.449   1.167   1.507  0.0261  0.3878 -0.2193
   57FTM     S136747  -3.545   0.885   2.037  0.3479  0.0537 -0.0516
   57FTM     C136748  -3.405   0.788   2.096  0.1754 -0.2102 -0.0721
   57FTM     C236749  -3.379   0.687   2.010 -0.2345 -0.4608  0.0888
   57FTM     C336750  -3.463   0.678   1.894 -0.4342 -0.4628  0.2342
   57FTM     C436751  -3.558   0.776   1.892 -0.1688 -0.2053  0.1830
   57FTM     F136752  -3.276   0.595   2.030 -0.4528 -0.7033  0.1140
   57FTM     C536753  -3.325   0.831   2.221 -0.4741 -0.4533 -0.0010
   57FTM     C636754  -3.203   0.930   2.215  0.1657 -0.0863  0.1664
   57FTM     C736755  -3.235   1.070   2.173  0.0443 -0.8612  0.3972
   57FTM     C836756  -3.318   1.140   2.280 -0.2446 -0.5048  0.5120
   57FTM     C936757  -3.363   1.282   2.247 -0.2133 -0.7922 -0.2366
   57FTM    C1036758  -3.444   1.350   2.362  0.3699  0.5986 -0.5067
   57FTM    C1136759  -3.073   0.890   2.150 -0.0938  0.5317 -0.4542
   57FTM    C1236760  -3.016   0.745   2.188 -0.1238 -0.6787  0.5349
   58TPM     C136761  -3.963   0.389   1.902 -0.5759 -0.0160  0.1033
   58TPM     C236762  -4.019   0.288   1.829 -0.6009 -0.1258  0.2719
   58TPM     C336763  -4.045   0.169   1.905 -0.2379 -0.1413  0.3780
   58TPM     C436764  -4.010   0.178   2.037  0.0638 -0.0433  0.2902
   58TPM     S136765  -3.939   0.340   2.075 -0.0883  0.0770  0.0650
   59BDD     C136766  -4.063  -0.179   2.185  0.1613 -0.0219 -0.0196
   59BDD     C236767  -4.103  -0.091   2.282  0.1671 -0.0072 -0.0305
   59BDD     C336768  -4.082   0.048   2.247  0.1744 -0.0129 -0.0487
   59BDD     C436769  -4.027   0.065   2.123  0.1741 -0.0320 -0.0514
   59BDD     S136770  -3.996  -0.093   2.043  0.1645 -0.0441 -0.0314
   59BDD     C536771  -4.162  -0.132   2.411  0.1663  0.0126 -0.0245
   59BDD     C636772  -4.119   0.160   2.336  0.1817  0.0007 -0.0628
   59BDD     O136773  -4.101   0.280   2.306  0.1879 -0.0043 -0.0785
   59BDD     O236774  -4.180  -0.252   2.442  0.1600  0.0179 -0.0088
   59BDD     C736775  -4.178   0.119   2.465  0.1806  0.0207 -0.0568
   59BDD     C836776  -4.198  -0.020   2.501  0.1733  0.0265 -0.0386
   59BDD     C936777  -4.254  -0.037   2.625  0.1738  0.0453 -0.0359
   59BDD     S236778  -4.285   0.121   2.705  0.1832  0.0575 -0.0559
   59BDD    C1036779  -4.218   0.206   2.562  0.1866  0.0353 -0.0678
   59BDD    C1136780  -4.210   0.361   2.567  0.8346  0.3725 -0.3765
   59BDD    C1236781  -4.317   0.436   2.484  0.2318  0.6457 -0.7511
   59BDD    C1336782  -4.462   0.397   2.523 -0.3657  0.0697 -0.0041
   59BDD    C1436783  -4.553   0.420   2.405 -0.5184 -0.8415  0.4419
   59BDD    C1536784  -4.702   0.422   2.434  0.5929 -0.3088 -0.4649
   59BDD    C1636785  -4.749   0.551   2.505 -0.0192 -0.1423  0.1545
   59BDD    C1736786  -4.300   0.591   2.481 -0.4835 -0.1992  0.2797
   59BDD    C1836787  -4.165   0.649   2.443  0.3111  0.0282  0.0344
   59BDD    C1936788  -4.265  -0.149   2.723  0.4612 -0.2608 -0.1089
   59BDD    C2036789  -4.376  -0.251   2.688  0.3308 -0.1334 -0.6059
   59BDD    C2136790  -4.520  -0.185   2.684 -0.4072 -0.2480  0.1559
   59BDD    C2236791  -4.635  -0.273   2.639  0.0602 -0.1306  0.3961
   59BDD    C2336792  -4.648  -0.293   2.490 -0.6328  0.3411 -0.0684
   59BDD    C2436793  -4.755  -0.399   2.465  0.1766 -0.2044 -0.0169
   59BDD    C2536794  -4.369  -0.376   2.777 -0.4775 -0.3645  0.5293
   59BDD    C2636795  -4.246  -0.461   2.780 -0.4652 -0.3802 -0.4851
   60TPM     C136796  -4.061  -0.320   2.165 -0.2117 -0.1958  0.0076
   60TPM     C236797  -4.179  -0.388   2.166 -0.1279 -0.3388  0.1155
   60TPM     C336798  -4.170  -0.519   2.106 -0.0645 -0.2599 -0.0497
   60TPM     C436799  -4.046  -0.550   2.059 -0.0997 -0.0562 -0.2836
   60TPM     S136800  -3.929  -0.415   2.087 -0.2168  0.0520 -0.3134
    1BDTP    C136801   5.488   5.238   8.252 -0.1279 -0.1898 -0.0746
    1BDTP    C236802   5.455   5.370   8.296 -0.0319 -0.1144 -0.2253
    1BDTP    C336803   5.328   5.424   8.282  0.0135 -0.0300 -0.3076
    1BDTP    C436804   5.229   5.346   8.221 -0.0379 -0.0192 -0.2379
    1BDTP    C536805   5.262   5.214   8.176 -0.1339 -0.0944 -0.0868
    1BDTP    C636806   5.388   5.160   8.191 -0.1793 -0.1791 -0.0051
    1BDTP    C736807   5.091   5.381   8.195 -0.0060  0.0616 -0.3000
    1BDTP    C836808   5.019   5.283   8.134 -0.0725  0.0507 -0.2046
    1BDTP    S136809   5.116   5.133   8.101 -0.1849 -0.0634 -0.0226
    1BDTP    C936810   5.626   5.203   8.277 -0.1599 -0.2705 -0.0124
    1BDTP   C1036811   5.698   5.301   8.338 -0.0932 -0.2596 -0.1078
    1BDTP    S236812   5.600   5.451   8.371  0.0190 -0.1456 -0.2899
    2FTM     S136813   5.229   5.694   8.241  0.1945  0.0235 -0.2654
    2FTM     C136814   5.226   5.801   8.386 -0.1644  0.1954 -0.3960
    2FTM     C236815   5.268   5.732   8.495 -0.3436  0.3507 -0.2275
    2FTM     C336816   5.304   5.595   8.473 -0.2155  0.3457  0.0079
    2FTM     C436817   5.289   5.558   8.343  0.0706  0.1810  0.0197
    2FTM     F136818   5.277   5.788   8.621 -0.6341  0.5068 -0.2759
    2FTM     C536819   5.173   5.939   8.378 -0.7531 -0.1284 -0.1308
    2FTM     C636820   5.066   5.991   8.282 -0.5983  0.8715  0.1477
    2FTM     C736821   4.920   5.952   8.325 -0.4873  0.3723 -0.0407
    2FTM     C836822   4.863   6.012   8.448  0.0193 -0.0667 -0.2117
    2FTM     C936823   4.878   6.163   8.450 -0.5012 -0.1001 -0.0353
    2FTM    C1036824   4.798   6.231   8.559 -1.1834  0.1206  0.4476
    2FTM    C1136825   5.088   5.986   8.130  0.2218  0.3213 -0.1854
    2FTM    C1236826   4.990   6.067   8.039  0.1518  0.0197  0.0113
    3FTM     S136827   5.566   4.989   8.038  0.0031 -0.1287  0.4056
    3FTM     C136828   5.522   4.815   8.023 -0.2582 -0.0196 -0.1545
    3FTM     C236829   5.405   4.791   8.087 -0.4873  0.0193 -0.5507
    3FTM     C336830   5.344   4.904   8.151 -0.4742 -0.0319 -0.4466
    3FTM     C436831   5.416   5.018   8.134 -0.2268 -0.1128  0.0465
    3FTM     F136832   5.346   4.666   8.093 -0.7229  0.1037 -1.0324
    3FTM     C536833   5.623   4.709   7.971  0.9739  0.0415 -0.3857
    3FTM     C636834   5.733   4.662   8.060 -0.0295 -0.4374 -0.1061
    3FTM     C736835   5.824   4.773   8.113  0.7411  0.1755  0.6244
    3FTM     C836836   5.926   4.836   8.025  0.0681 -0.3487  0.0817
    3FTM     C936837   5.939   4.978   8.074 -0.3856  0.0010  0.4651
    3FTM    C1036838   6.073   5.036   8.025  0.3854  0.5490 -0.4945
    3FTM    C1136839   5.692   4.558   8.167  0.6217  0.2845  0.8199
    3FTM    C1236840   5.790   4.483   8.250 -0.9641  0.0727 -0.0290
    4TPM     C136841   5.840   5.303   8.368  0.0073  0.1091 -0.0174
    4TPM     C236842   5.938   5.210   8.352 -0.1261 -0.0240 -0.0596
    4TPM     C336843   6.068   5.253   8.396 -0.0418 -0.1898 -0.1419
    4TPM     C436844   6.069   5.380   8.446  0.1559 -0.1832 -0.1619
    4TPM     S136845   5.905   5.455   8.441  0.2518  0.0347 -0.0782
    5BDD     C136846   6.347   5.651   8.418 -0.0945 -0.0520 -0.2013
    5BDD     C236847   6.409   5.542   8.473 -0.0932 -0.0441 -0.1874
    5BDD     C336848   6.320   5.430   8.496 -0.0970 -0.0333 -0.1495
    5BDD     C436849   6.191   5.455   8.458 -0.1012 -0.0330 -0.1353
    5BDD     S136850   6.172   5.620   8.391 -0.1006 -0.0465 -0.1681
    5BDD     C536851   6.553   5.538   8.507 -0.0883 -0.0464 -0.2079
    5BDD     C636852   6.365   5.303   8.555 -0.0966 -0.0236 -0.1287
    5BDD     O136853   6.288   5.206   8.575 -0.0998 -0.0142 -0.0961
    5BDD     O236854   6.630   5.634   8.487 -0.0850 -0.0557 -0.2406
    5BDD     C736855   6.509   5.298   8.589 -0.0917 -0.0257 -0.1497
    5BDD     C836856   6.599   5.410   8.566 -0.0877 -0.0366 -0.1876
    5BDD     C936857   6.728   5.386   8.604 -0.0836 -0.0368 -0.2017
    5BDD     S236858   6.746   5.220   8.671 -0.0843 -0.0236 -0.1689
    5BDD    C1036859   6.571   5.190   8.644 -0.0905 -0.0179 -0.1357
    5BDD    C1136860   6.524   5.054   8.679  0.1541  0.3361 -0.0968
    5BDD    C1236861   6.563   4.979   8.810  0.2163 -0.4172 -0.3039
    5BDD    C1336862   6.527   4.833   8.803 -0.5071  0.2722 -0.3374
    5BDD    C1436863   6.564   4.727   8.908  0.4084 -0.0030  0.7811
    5BDD    C1536864   6.716   4.711   8.938 -0.0400  0.1799  0.2249
    5BDD    C1636865   6.740   4.592   9.026  0.6373 -0.2933  0.2164
    5BDD    C1736866   6.534   5.057   8.938 -0.1783  0.3479  0.3149
    5BDD    C1836867   6.389   5.088   8.969  0.4447 -0.0921 -0.6082
    5BDD    C1936868   6.856   5.468   8.613  0.0187  0.4382 -0.3478
    5BDD    C2036869   6.904   5.506   8.758  0.0027 -0.1868 -0.3763
    5BDD    C2136870   6.796   5.576   8.846 -0.4477 -0.2020  0.7906
    5BDD    C2236871   6.740   5.712   8.795  0.2332  0.3063  0.2779
    5BDD    C2336872   6.827   5.835   8.773 -0.4342  0.9132  0.1234
    5BDD    C2436873   6.761   5.954   8.708 -0.7641 -0.2357 -0.5291
    5BDD    C2536874   6.990   5.408   8.829  0.0788  0.3900  0.4752
    5BDD    C2636875   7.121   5.364   8.761  0.4156  0.0071 -0.0308
    6TPM     C136876   6.389   5.778   8.358 -0.0193 -0.5733 -0.2706
    6TPM     C236877   6.454   5.870   8.435  0.2073 -0.9025 -0.0610
    6TPM     C336878   6.445   6.005   8.384  0.3504 -0.7300  0.3598
    6TPM     C436879   6.372   6.015   8.269  0.2330 -0.2691  0.4707
    6TPM     S136880   6.310   5.854   8.215 -0.0697 -0.0154  0.0490
    7BDTP    C136881   6.121   6.497   7.952  0.1612  0.0633  0.1582
    7BDTP    C236882   6.210   6.565   8.040  0.1503  0.0694  0.1645
    7BDTP    C336883   6.291   6.498   8.131  0.1905  0.0715  0.1304
    7BDTP    C436884   6.284   6.358   8.135  0.2443  0.0676  0.0877
    7BDTP    C536885   6.195   6.290   8.047  0.2553  0.0614  0.0811
    7BDTP    C636886   6.114   6.357   7.957  0.2151  0.0591  0.1154
    7BDTP    C736887   6.358   6.267   8.221  0.2924  0.0686  0.0467
    7BDTP    C836888   6.329   6.136   8.201  0.3387  0.0637  0.0105
    7BDTP    S136889   6.204   6.109   8.072  0.3275  0.0569  0.0231
    7BDTP    C936890   6.047   6.588   7.867  0.1129  0.0622  0.1987
    7BDTP   C1036891   6.076   6.719   7.886  0.0666  0.0672  0.2348
    7BDTP    S236892   6.201   6.746   8.015  0.0780  0.0740  0.2227
    8FTM     S136893   6.339   6.577   8.396  0.1830  0.2811 -0.0045
    8FTM     C136894   6.473   6.692   8.430  0.2694  0.1696  0.0343
    8FTM     C236895   6.535   6.727   8.314  0.2608  0.2046  0.0401
    8FTM     C336896   6.483   6.668   8.195  0.1881  0.3172  0.0155
    8FTM     C436897   6.378   6.585   8.220  0.1397  0.3704 -0.0098
    8FTM     F136898   6.642   6.815   8.310  0.3181  0.1364  0.0682
    8FTM     C536899   6.513   6.740   8.566  0.1905 -0.1252 -0.0068
    8FTM     C636900   6.432   6.849   8.637  0.5434 -0.3685  0.3925
    8FTM     C736901   6.460   6.867   8.790  0.1195 -0.1617  0.6373
    8FTM     C836902   6.594   6.903   8.844  0.1602 -0.1951 -0.5653
    8FTM     C936903   6.587   6.901   8.992 -0.4659 -0.5213 -0.3253
    8FTM    C1036904   6.722   6.909   9.057  0.4971 -0.4286 -0.1568
    8FTM    C1136905   6.412   6.982   8.553  0.0240  0.4039 -0.4216
    8FTM    C1236906   6.522   7.070   8.501 -0.4824 -0.6491  0.4796
    9FTM     S136907   5.964   6.338   7.708  0.3571 -0.1601  0.0460
    9FTM     C136908   5.847   6.202   7.690  0.2060 -0.0533  0.2219
    9FTM     C236909   5.849   6.125   7.802  0.0703  0.1268  0.3508
    9FTM     C336910   5.940   6.165   7.906  0.0755  0.1910  0.3209
    9FTM     C436911   6.009   6.278   7.872  0.2198  0.0557  0.1644
    9FTM     F136912   5.769   6.012   7.818 -0.0666  0.2440  0.5031
    9FTM     C536913   5.762   6.183   7.563  0.5530 -0.4034 -0.1838
    9FTM     C636914   5.820   6.117   7.440 -0.6390  0.0804 -0.5563
    9FTM     C736915   5.731   6.106   7.319  0.0044 -1.2067 -0.0198
    9FTM     C836916   5.716   6.236   7.230 -0.2781  0.3402 -0.1587
    9FTM     C936917   5.654   6.204   7.096 -0.1772  0.4138 -0.3682
    9FTM    C1036918   5.698   6.292   6.983  0.0002 -0.1116 -0.2323
    9FTM    C1136919   5.898   5.990   7.466  0.7099  0.4283  0.3131
    9FTM    C1236920   5.817   5.876   7.530  0.9482  0.1443  0.5849
   10TPM     C136921   6.008   6.834   7.821 -0.3262  0.6033  0.1537
   10TPM     C236922   6.029   6.965   7.851 -0.5252  0.7298 -0.2511
   10TPM     C336923   5.945   7.055   7.777 -0.5591  0.3839 -0.6413
   10TPM     C436924   5.860   6.993   7.690 -0.3860 -0.0065 -0.5344
   10TPM     S136925   5.879   6.814   7.696 -0.1648  0.0330  0.0725
   11BDD     C136926   5.561   7.226   7.600 -0.1633  0.1386 -0.0931
   11BDD     C236927   5.615   7.186   7.481 -0.1093  0.1493 -0.0725
   11BDD     C336928   5.727   7.094   7.496 -0.0896  0.1801 -0.0290
   11BDD     C436929   5.756   7.066   7.627 -0.1292  0.1929 -0.0173
   11BDD     S136930   5.647   7.152   7.740 -0.1936  0.1669 -0.0596
   11BDD     C536931   5.566   7.230   7.349 -0.0736  0.1311 -0.0919
   11BDD     C636932   5.799   7.038   7.381 -0.0324  0.1960 -0.0008
   11BDD     O136933   5.896   6.959   7.394 -0.0154  0.2228  0.0367
   11BDD     O236934   5.469   7.309   7.336 -0.0905  0.1044 -0.1293
   11BDD     C736935   5.750   7.082   7.249  0.0032  0.1780 -0.0201
   11BDD     C836936   5.638   7.174   7.234 -0.0165  0.1471 -0.0637
   11BDD     C936937   5.609   7.202   7.103  0.0230  0.1343 -0.0755
   11BDD     S236938   5.718   7.115   6.990  0.0876  0.1604 -0.0329
   11BDD    C1036939   5.804   7.041   7.130  0.0573  0.1885  0.0005
   11BDD    C1136940   5.930   6.963   7.089  0.1599 -0.3561  0.3779
   11BDD    C1236941   6.031   7.025   6.986  0.7477  0.2652  0.6701
   11BDD    C1336942   6.140   6.936   6.923 -0.4621 -0.2380 -0.5175
   11BDD    C1436943   6.103   6.794   6.873  0.3053  0.4166 -0.5180
   11BDD    C1536944   6.014   6.805   6.750 -0.1284  0.6095 -0.1384
   11BDD    C1636945   5.987   6.667   6.673  0.8306 -0.7378  0.3486
   11BDD    C1736946   6.069   7.177   7.002 -0.7718  0.9843 -0.2987
   11BDD    C1836947   6.157   7.241   6.886 -0.1383  0.0059  0.0697
   11BDD    C1936948   5.493   7.281   7.043 -0.3299  0.7364 -0.2069
   11BDD    C2036949   5.374   7.199   6.986 -0.1795  0.2600 -0.6893
   11BDD    C2136950   5.265   7.295   6.925 -0.4933 -0.2840 -0.2150
   11BDD    C2236951   5.176   7.375   7.020 -0.9604 -0.2943  0.4806
   11BDD    C2336952   5.066   7.454   6.947  0.1162  0.6407 -0.4439
   11BDD    C2436953   4.991   7.520   7.064  0.3146 -0.2304 -0.0319
   11BDD    C2536954   5.335   7.083   7.084  0.7174 -0.4953 -0.5397
   11BDD    C2636955   5.229   6.994   7.032 -0.0379  0.2265 -0.3549
   12TPM     C136956   5.450   7.309   7.637  0.3898 -0.2448 -0.0830
   12TPM     C236957   5.457   7.445   7.627  0.4491 -0.2556 -0.1904
   12TPM     C336958   5.342   7.513   7.681  0.4425 -0.1663 -0.3154
   12TPM     C436959   5.248   7.428   7.733  0.3783 -0.0875 -0.3035
   12TPM     S136960   5.297   7.256   7.717  0.3206 -0.1202 -0.1320
   13BDTP    C136961   4.689   7.536   7.998  0.2024  0.1783 -0.0967
   13BDTP    C236962   4.742   7.431   8.079  0.1142  0.1223 -0.1109
   13BDTP    C336963   4.868   7.377   8.058  0.0932  0.0613 -0.0794
   13BDTP    C436964   4.946   7.428   7.952  0.1627  0.0552 -0.0316
   13BDTP    C536965   4.893   7.533   7.872  0.2513  0.1110 -0.0172
   13BDTP    C636966   4.767   7.587   7.893  0.2720  0.1722 -0.0488
   13BDTP    C736967   5.079   7.388   7.912  0.1573 -0.0031  0.0075
   13BDTP    C836968   5.128   7.457   7.806  0.2365  0.0066  0.0499
   13BDTP    S136969   5.012   7.582   7.742  0.3288  0.0905  0.0463
   13BDTP    C936970   4.556   7.576   8.039  0.2079  0.2364 -0.1357
   13BDTP   C1036971   4.507   7.507   8.145  0.1289  0.2269 -0.1781
   13BDTP    S236972   4.623   7.382   8.208  0.0365  0.1429 -0.1745
   14FTM     S136973   4.856   7.093   8.139  0.1312 -0.2738  0.0298
   14FTM     C136974   4.991   7.040   8.244  0.4025  0.0559 -0.1473
   14FTM     C236975   5.072   7.145   8.273  0.2252  0.2390 -0.3147
   14FTM     C336976   5.035   7.271   8.215 -0.1241  0.1367 -0.3157
   14FTM     C436977   4.921   7.262   8.141 -0.2172 -0.1337 -0.1430
   14FTM     F136978   5.185   7.134   8.352  0.3686  0.5103 -0.4773
   14FTM     C536979   5.001   6.899   8.293  0.3667  0.0471  0.3917
   14FTM     C636980   4.989   6.866   8.443  0.1607  0.3940  0.4359
   14FTM     C736981   5.000   6.712   8.470 -0.3954 -0.3557 -0.5331
   14FTM     C836982   5.120   6.633   8.417  0.3805 -0.4458 -0.2648
   14FTM     C936983   5.109   6.484   8.451 -1.0372  0.4857 -0.2522
   14FTM    C1036984   5.217   6.393   8.392  0.4181 -0.3593  0.8456
   14FTM    C1136985   4.867   6.928   8.516  0.1404  0.5237  0.2808
   14FTM    C1236986   4.722   6.880   8.473 -0.1926 -0.3793 -0.1359
   15FTM     S136987   4.704   7.688   7.629  0.0035  0.0868  0.1156
   15FTM     C136988   4.667   7.865   7.623 -0.2711  0.0237 -0.0457
   15FTM     C236989   4.673   7.918   7.748 -0.7601  0.0663 -0.0343
   15FTM     C336990   4.707   7.827   7.853 -0.9463  0.1483  0.0974
   15FTM     C436991   4.727   7.700   7.808 -0.5884  0.1698  0.1898
   15FTM     F136992   4.649   8.052   7.774 -1.0679  0.0334 -0.1425
   15FTM     C536993   4.632   7.935   7.494 -0.4005 -0.1977  0.1020
   15FTM     C636994   4.743   7.975   7.392 -0.3670 -0.0823 -0.0069
   15FTM     C736995   4.694   8.078   7.293  0.3115  0.1388 -0.3564
   15FTM     C836996   4.647   8.208   7.348  0.0514  0.0535 -0.0448
   15FTM     C936997   4.602   8.298   7.241  0.1801 -0.5200 -0.1812
   15FTM    C1036998   4.554   8.434   7.300  0.3507 -0.2566 -0.1034
   15FTM    C1136999   4.825   7.852   7.341 -0.7610  0.1168 -0.0754
   15FTM    C1237000   4.950   7.886   7.252  0.0871  0.8302  0.0149
   16TPM     C137001   4.367   7.494   8.180 -0.3391  0.1252  0.0987
   16TPM     C237002   4.321   7.448   8.300 -0.2826  0.8668  0.4175
   16TPM     C337003   4.178   7.439   8.308 -0.2915  1.1618  0.6418
   16TPM     C437004   4.114   7.478   8.194 -0.3544  0.6450  0.4943
   16TPM     S137005   4.231   7.530   8.067 -0.4082 -0.2612  0.0564
   17BDD     C137006   3.741   7.584   8.148 -0.0542 -0.1483 -0.0010
   17BDD     C237007   3.740   7.457   8.197 -0.0155 -0.1608 -0.0334
   17BDD     C337008   3.872   7.402   8.218  0.0013 -0.1456 -0.0982
   17BDD     C437009   3.973   7.489   8.185 -0.0250 -0.1212 -0.1140
   17BDD     S137010   3.908   7.645   8.125 -0.0724 -0.1159 -0.0494
   17BDD     C537011   3.616   7.381   8.226  0.0076 -0.1878 -0.0060
   17BDD     C637012   3.895   7.266   8.271  0.0427 -0.1557 -0.1419
   17BDD     O137013   4.009   7.218   8.289  0.0572 -0.1423 -0.1976
   17BDD     O237014   3.502   7.428   8.208 -0.0069 -0.2010  0.0498
   17BDD     C737015   3.772   7.189   8.300  0.0657 -0.1825 -0.1144
   17BDD     C837016   3.639   7.244   8.279  0.0491 -0.1979 -0.0496
   17BDD     C937017   3.538   7.158   8.312  0.0753 -0.2222 -0.0336
   17BDD     S237018   3.603   7.002   8.372  0.1227 -0.2275 -0.0985
   17BDD    C1037019   3.770   7.062   8.349  0.1045 -0.1954 -0.1469
   17BDD    C1137020   3.872   6.959   8.370  0.2501 -0.0563 -0.0633
   17BDD    C1237021   3.918   6.850   8.270  0.3730  0.2207  0.2033
   17BDD    C1337022   4.017   6.896   8.165 -0.2081 -0.1860 -0.0558
   17BDD    C1437023   4.145   6.966   8.215  0.2911  0.0806 -0.4235
   17BDD    C1537024   4.238   7.016   8.103 -0.7044 -0.1298  0.8167
   17BDD    C1637025   4.357   7.068   8.179 -0.1844 -0.2118  0.1045
   17BDD    C1737026   3.802   6.754   8.223  0.4471  0.7765  0.3205
   17BDD    C1837027   3.836   6.638   8.133  0.7640 -0.3081  0.3547
   17BDD    C1937028   3.391   7.173   8.316 -0.3385  0.1451 -0.5782
   17BDD    C2037029   3.329   7.219   8.449  0.3089 -0.1474  0.1920
   17BDD    C2137030   3.366   7.144   8.573 -0.0679  0.1816 -0.4518
   17BDD    C2237031   3.327   7.193   8.712 -0.1229  0.2434  0.1674
   17BDD    C2337032   3.414   7.138   8.823  0.5751  0.3106  0.7025
   17BDD    C2437033   3.391   7.193   8.962 -0.2631 -0.2260 -0.1140
   17BDD    C2537034   3.173   7.247   8.436 -0.7044 -0.3668 -0.5649
   17BDD    C2637035   3.125   7.352   8.337 -0.8050  0.3613 -0.2557
   18TPM     C137036   3.642   7.681   8.111  0.2562  0.0110 -0.1262
   18TPM     C237037   3.625   7.696   7.976  0.3433  0.1334 -0.1239
   18TPM     C337038   3.499   7.755   7.940  0.2720 -0.0407 -0.1615
   18TPM     C437039   3.419   7.785   8.046  0.1307 -0.2958 -0.1931
   18TPM     S137040   3.498   7.741   8.202  0.0760 -0.3364 -0.1765
   19BDTP    C137041   2.822   7.997   8.030 -0.0974  0.3214 -0.1245
   19BDTP    C237042   2.841   7.959   8.166 -0.0335  0.2909 -0.1416
   19BDTP    C337043   2.960   7.906   8.214 -0.0410  0.1959 -0.2289
   19BDTP    C437044   3.066   7.889   8.123 -0.1150  0.1274 -0.3028
   19BDTP    C537045   3.047   7.927   7.986 -0.1791  0.1580 -0.2860
   19BDTP    C637046   2.928   7.980   7.939 -0.1715  0.2528 -0.1985
   19BDTP    C737047   3.198   7.836   8.148 -0.1371  0.0251 -0.3993
   19BDTP    C837048   3.279   7.832   8.039 -0.2134 -0.0223 -0.4544
   19BDTP    S137049   3.198   7.896   7.889 -0.2683  0.0564 -0.3926
   19BDTP    C937050   2.690   8.050   8.005 -0.0755  0.4237 -0.0281
   19BDTP   C1037051   2.609   8.053   8.114  0.0010  0.4711  0.0272
   19BDTP    S237052   2.690   7.990   8.264  0.0558  0.3924 -0.0352
   20FTM     S137053   2.844   7.735   8.417 -0.3112 -0.0739  0.3445
   20FTM     C137054   2.920   7.744   8.580 -0.0438 -0.3787  0.2376
   20FTM     C237055   3.028   7.827   8.577  0.2188 -0.7173  0.1147
   20FTM     C337056   3.056   7.888   8.450  0.2280 -0.7592  0.0961
   20FTM     C437057   2.968   7.850   8.354 -0.0363 -0.4427  0.2094
   20FTM     F137058   3.106   7.853   8.688  0.4666 -1.0091  0.0112
   20FTM     C537059   2.873   7.660   8.693  0.6098  0.8794  0.0858
   20FTM     C637060   2.925   7.662   8.839  0.0197  0.0033  0.4471
   20FTM     C737061   2.892   7.777   8.932  0.1455 -0.5668 -0.0384
   20FTM     C837062   2.743   7.828   8.939 -0.4129  0.0328 -0.2937
   20FTM     C937063   2.659   7.716   9.000 -0.3769  0.0375 -0.1881
   20FTM    C1037064   2.509   7.731   8.974  0.6641  0.3566 -0.5970
   20FTM    C1137065   3.067   7.601   8.868  0.1440  0.2460  0.1241
   20FTM    C1237066   3.098   7.464   8.805 -0.4350  0.3289  0.8611
   21FTM     S137067   2.765   7.993   7.704 -0.1408 -0.1006 -0.0464
   21FTM     C137068   2.832   8.088   7.566  0.0470 -0.1695 -0.0038
   21FTM     C237069   2.955   8.135   7.598  0.0511 -0.2496  0.0980
   21FTM     C337070   3.005   8.100   7.728 -0.0879 -0.2625  0.1475
   21FTM     C437071   2.916   8.024   7.798 -0.2025 -0.1894  0.0817
   21FTM     F137072   3.031   8.212   7.512  0.1813 -0.3171  0.1520
   21FTM     C537073   2.758   8.105   7.433  0.1595  0.3074  0.4314
   21FTM     C637074   2.618   8.166   7.444 -0.2954 -0.6971  0.2254
   21FTM     C737075   2.506   8.066   7.464 -0.5248  0.0771 -0.4293
   21FTM     C837076   2.489   7.923   7.403 -0.5529 -0.1128  0.0197
   21FTM     C937077   2.498   7.930   7.255  0.4028  0.4916 -0.1883
   21FTM    C1037078   2.485   7.792   7.192  1.3288 -0.3272  0.2588
   21FTM    C1137079   2.589   8.310   7.486 -0.1434  0.1079  0.3848
   21FTM    C1237080   2.690   8.417   7.449 -0.3469  0.5088 -0.6022
   22TPM     C137081   2.472   8.070   8.104 -0.1407 -0.4464  0.1969
   22TPM     C237082   2.395   8.136   8.195 -0.1894 -0.4876  0.1860
   22TPM     C337083   2.256   8.144   8.158 -0.1166 -0.1988 -0.0401
   22TPM     C437084   2.227   8.083   8.040 -0.0125  0.0626 -0.2012
   22TPM     S137085   2.374   8.011   7.964  0.0019 -0.0366 -0.0795
   23BDD     C137086   1.931   8.125   7.781  0.0154  0.0060 -0.0258
   23BDD     C237087   1.870   8.111   7.902  0.0588 -0.0925 -0.0155
   23BDD     C337088   1.963   8.099   8.013  0.1000 -0.3016 -0.0706
   23BDD     C437089   2.094   8.105   7.974  0.0876 -0.3592 -0.1225
   23BDD     S137090   2.110   8.126   7.797  0.0233 -0.1559 -0.1054
   23BDD     C537091   1.723   8.107   7.921  0.0638  0.0017  0.0457
   23BDD     C637092   1.919   8.083   8.153  0.1503 -0.4363 -0.0703
   23BDD     O137093   1.999   8.073   8.248  0.1859 -0.6166 -0.1180
   23BDD     O237094   1.643   8.117   7.825  0.0283  0.1819  0.0935
   23BDD     C737095   1.772   8.079   8.171  0.1554 -0.3421 -0.0091
   23BDD     C837096   1.679   8.091   8.061  0.1141 -0.1333  0.0463
   23BDD     C937097   1.548   8.085   8.099  0.1266 -0.0753  0.0980
   23BDD     S237098   1.532   8.064   8.277  0.1909 -0.2787  0.0808
   23BDD    C1037099   1.711   8.065   8.293  0.1987 -0.4406  0.0012
   23BDD    C1137100   1.760   8.052   8.438  0.4916 -0.3714 -0.0985
   23BDD    C1237101   1.751   7.917   8.514 -0.0535 -0.5233 -0.5081
   23BDD    C1337102   1.821   7.800   8.454 -0.6406  0.0396 -0.4222
   23BDD    C1437103   1.979   7.818   8.452  0.0811  0.3397  0.3771
   23BDD    C1537104   2.049   7.880   8.576  0.3645 -0.2126  0.9071
   23BDD    C1637105   2.044   7.807   8.705  0.4923 -0.1385 -0.1742
   23BDD    C1737106   1.606   7.885   8.558  0.2108 -0.1028 -0.0865
   23BDD    C1837107   1.578   7.780   8.665  0.0300 -0.0364  0.4519
   23BDD    C1937108   1.419   8.102   8.028  0.0422 -0.2412 -0.0553
   23BDD    C2037109   1.345   7.973   7.995 -0.2356 -0.9942  0.2764
   23BDD    C2137110   1.419   7.873   7.904 -0.6373 -0.1172 -0.6578
   23BDD    C2237111   1.422   7.888   7.752  0.2376  0.2005 -0.1928
   23BDD    C2337112   1.513   7.780   7.701  0.4436  0.3050  0.3082
   23BDD    C2437113   1.520   7.785   7.550  0.0514  0.2762  0.3599
   23BDD    C2537114   1.194   7.999   7.963 -0.4410 -0.7400 -0.4527
   23BDD    C2637115   1.093   7.886   7.955  0.4294  0.8004 -0.2753
   24TPM     C137116   1.896   8.139   7.642 -0.0104  0.5729  0.2422
   24TPM     C237117   1.955   8.238   7.569 -0.2200  0.8874  0.4909
   24TPM     C337118   1.884   8.270   7.448 -0.1802  0.8991  0.4709
   24TPM     C437119   1.771   8.196   7.429  0.0596  0.5936  0.2068
   24TPM     S137120   1.745   8.079   7.563  0.2554  0.2648 -0.0388
   25BDTP    C137121   1.392   8.307   6.938 -0.2738  0.1709  0.2488
   25BDTP    C237122   1.306   8.237   7.027 -0.1762 -0.0427  0.1765
   25BDTP    C337123   1.347   8.191   7.151 -0.0949 -0.1681  0.1036
   25BDTP    C437124   1.480   8.215   7.190 -0.1104 -0.0789  0.1016
   25BDTP    C537125   1.567   8.285   7.101 -0.2079  0.1349  0.1739
   25BDTP    C637126   1.525   8.331   6.977 -0.2892  0.2600  0.2468
   25BDTP    C737127   1.545   8.177   7.314 -0.0377 -0.1776  0.0332
   25BDTP    C837128   1.675   8.215   7.322 -0.0755 -0.0503  0.0502
   25BDTP    S137129   1.733   8.304   7.174 -0.2085  0.2129  0.1556
   25BDTP    C937130   1.327   8.345   6.815 -0.3464  0.2697  0.3173
   25BDTP   C1037131   1.197   8.307   6.806 -0.3086  0.1421  0.3003
   25BDTP    S237132   1.139   8.218   6.954 -0.1756 -0.1209  0.1950
   26FTM     S137133   1.279   7.982   7.340 -0.1119 -0.1090  0.1142
   26FTM     C137134   1.117   7.993   7.417 -0.2355 -0.1501 -0.1359
   26FTM     C237135   1.051   8.103   7.372 -0.1758 -0.1423 -0.2028
   26FTM     C337136   1.121   8.184   7.277 -0.0338 -0.1044 -0.0671
   26FTM     C437137   1.245   8.134   7.248  0.0169 -0.0825  0.1095
   26FTM     F137138   0.924   8.138   7.414 -0.2463 -0.1688 -0.3908
   26FTM     C537139   1.086   7.904   7.538  0.1338  0.0855  0.1114
   26FTM     C637140   0.959   7.816   7.534 -0.4782 -0.3251  0.0297
   26FTM     C737141   0.939   7.726   7.410  0.0651 -0.0780 -0.0485
   26FTM     C837142   1.043   7.603   7.407  0.6952 -0.0502 -0.0613
   26FTM     C937143   1.051   7.533   7.270 -1.0510  0.0668 -0.8696
   26FTM    C1037144   1.150   7.418   7.259 -0.1502  0.6363  0.0662
   26FTM    C1137145   0.833   7.866   7.603  0.0802 -0.6564 -0.4231
   26FTM    C1237146   0.724   7.762   7.645  0.1366 -0.8540  0.3093
   27FTM     S137147   1.652   8.350   6.714  0.1188  0.1890  0.0738
   27FTM     C137148   1.757   8.495   6.693  0.2358  0.1421  0.3272
   27FTM     C237149   1.765   8.563   6.811  0.5768 -0.2584  0.5418
   27FTM     C337150   1.692   8.508   6.921  0.7634 -0.5462  0.5225
   27FTM     C437151   1.627   8.394   6.887  0.5586 -0.3602  0.2857
   27FTM     F137152   1.839   8.680   6.825  0.7403 -0.3881  0.7683
   27FTM     C537153   1.826   8.525   6.562  0.3894  0.0934 -0.0470
   27FTM     C637154   1.761   8.491   6.428 -0.2873 -0.2659 -0.2609
   27FTM     C737155   1.865   8.516   6.320  0.0192 -0.3219  0.2474
   27FTM     C837156   1.980   8.420   6.304  0.4906  0.6843 -0.5190
   27FTM     C937157   2.070   8.450   6.189  0.3282  0.3957  0.2427
   27FTM    C1037158   2.194   8.363   6.170  0.6820 -0.1419  0.2076
   27FTM    C1137159   1.620   8.556   6.391 -0.3774  0.1433 -0.1895
   27FTM    C1237160   1.607   8.705   6.410  0.0343 -0.1771 -0.0298
   28TPM     C137161   1.107   8.316   6.691  0.2981 -0.5746 -0.4823
   28TPM     C237162   0.971   8.323   6.682  0.2980 -0.0002 -0.1158
   28TPM     C337163   0.923   8.378   6.557  0.1921  0.7381  0.2365
   28TPM     C437164   1.023   8.412   6.471  0.1115  0.7268  0.1384
   28TPM     S137165   1.186   8.378   6.541  0.1635 -0.2248 -0.4107
   29BDD     C137166   1.076   8.660   6.175 -0.1362 -0.0275 -0.0754
   29BDD     C237167   0.969   8.584   6.139 -0.1234 -0.0730 -0.0170
   29BDD     C337168   0.931   8.486   6.240 -0.1105  0.0010  0.0598
   29BDD     C437169   1.011   8.489   6.351 -0.1137  0.1020  0.0592
   29BDD     S137170   1.138   8.615   6.338 -0.1330  0.1111 -0.0377
   29BDD     C537171   0.897   8.598   6.011 -0.1225 -0.1857 -0.0303
   29BDD     C637172   0.818   8.392   6.222 -0.0955 -0.0310  0.1311
   29BDD     O137173   0.786   8.308   6.308 -0.0844  0.0327  0.1975
   29BDD     O237174   0.929   8.682   5.924 -0.1336 -0.2494 -0.0967
   29BDD     C737175   0.746   8.406   6.093 -0.0947 -0.1440  0.1181
   29BDD     C837176   0.784   8.504   5.993 -0.1076 -0.2179  0.0411
   29BDD     C937177   0.704   8.501   5.882 -0.1044 -0.3188  0.0418
   29BDD     S237178   0.577   8.375   5.895 -0.0850 -0.3276  0.1389
   29BDD    C1037179   0.639   8.330   6.057 -0.0819 -0.1898  0.1765
   29BDD    C1137180   0.543   8.239   6.132 -0.3806  0.4228  0.0409
   29BDD    C1237181   0.412   8.312   6.163  0.5497 -0.5878  0.3325
   29BDD    C1337182   0.326   8.210   6.232  0.0576 -0.0909  0.4280
   29BDD    C1437183   0.175   8.252   6.253 -0.6660  0.5488 -0.3653
   29BDD    C1537184   0.098   8.313   6.141  0.4118  0.4413  0.5527
   29BDD    C1637185   0.076   8.229   6.014  0.3144  0.2908  0.4314
   29BDD    C1737186   0.422   8.453   6.235 -0.1152 -0.0387  0.4256
   29BDD    C1837187   0.465   8.457   6.386  0.0372  0.0400  0.0661
   29BDD    C1937188   0.706   8.568   5.744 -0.3241 -0.0961  0.4251
   29BDD    C2037189   0.728   8.473   5.625 -0.0166 -0.4012 -0.4899
   29BDD    C2137190   0.850   8.384   5.649  0.1878  0.2953 -0.5782
   29BDD    C2237191   0.871   8.268   5.552  0.9584 -0.6837 -0.1720
   29BDD    C2337192   1.002   8.183   5.567  0.2244 -0.6323 -0.0815
   29BDD    C2437193   0.996   8.106   5.696 -0.1106  0.7144 -0.1474
   29BDD    C2537194   0.718   8.546   5.489 -0.5435  0.2042 -0.7546
   29BDD    C2637195   0.842   8.637   5.455 -0.4281 -0.5870 -0.5128
   30TPM     C137196   1.164   8.760   6.120 -0.1368  0.2814  0.1469
   30TPM     C237197   1.120   8.874   6.060  0.1108  0.3016 -0.0001
   30TPM     C337198   1.219   8.977   6.051  0.2932  0.1285  0.0000
   30TPM     C437199   1.339   8.943   6.105  0.1846 -0.0239  0.1469
   30TPM     S137200   1.337   8.775   6.172 -0.1591  0.0399  0.2980
   31BDTP    C137201   1.832   9.330   6.055 -0.1440 -0.1361  0.0551
   31BDTP    C237202   1.872   9.242   6.160 -0.0726 -0.1304  0.0330
   31BDTP    C337203   1.793   9.137   6.204 -0.0657 -0.0958  0.1277
   31BDTP    C437204   1.669   9.117   6.142 -0.1324 -0.0656  0.2503
   31BDTP    C537205   1.629   9.205   6.037 -0.2039 -0.0713  0.2725
   31BDTP    C637206   1.708   9.310   5.993 -0.2107 -0.1057  0.1779
   31BDTP    C737207   1.570   9.015   6.170 -0.1395 -0.0273  0.3634
   31BDTP    C837208   1.459   9.022   6.093 -0.2119 -0.0043  0.4680
   31BDTP    S137209   1.464   9.158   5.972 -0.2813 -0.0277  0.4382
   31BDTP    C937210   1.931   9.432   6.026 -0.1369 -0.1740 -0.0579
   31BDTP   C1037211   2.042   9.425   6.104 -0.0646 -0.1974 -0.1626
   31BDTP    S237212   2.037   9.288   6.224  0.0048 -0.1738 -0.1329
   32FTM     S137213   1.820   9.037   6.481 -0.1237 -0.1109  0.2560
   32FTM     C137214   1.925   8.891   6.495 -0.5406 -0.4581 -0.1719
   32FTM     C237215   1.973   8.856   6.373 -0.6237 -0.2224 -0.2729
   32FTM     C337216   1.932   8.939   6.263 -0.3745  0.2313 -0.0297
   32FTM     C437217   1.850   9.040   6.303 -0.0911  0.3473  0.2673
   32FTM     F137218   2.056   8.747   6.353 -0.9307 -0.4039 -0.5918
   32FTM     C537219   1.968   8.846   6.633 -0.2957 -0.6090  0.1548
   32FTM     C637220   2.092   8.914   6.704 -0.1429  0.1590  0.2656
   32FTM     C737221   2.119   8.846   6.840  0.1042  0.0753  0.2324
   32FTM     C837222   2.150   8.695   6.836  0.1325 -0.0457  1.0807
   32FTM     C937223   2.171   8.624   6.965 -0.3181  0.1195 -0.4375
   32FTM    C1037224   2.043   8.590   7.044 -0.3807  0.1470 -0.2368
   32FTM    C1137225   2.144   9.055   6.681  0.5591  0.3910  0.1560
   32FTM    C1237226   2.083   9.170   6.758  0.8168 -0.0314 -0.7185
   33FTM     S137227   1.507   9.496   5.909  0.2449 -0.0271 -0.0379
   33FTM     C137228   1.541   9.588   5.758 -0.0742  0.0019 -0.0925
   33FTM     C237229   1.657   9.545   5.703 -0.1700  0.0403 -0.3260
   33FTM     C337230   1.726   9.441   5.773 -0.0051  0.0494 -0.4730
   33FTM     C437231   1.660   9.402   5.885  0.2245  0.0169 -0.3481
   33FTM     F137232   1.709   9.598   5.585 -0.4126  0.0696 -0.4202
   33FTM     C537233   1.450   9.687   5.711  0.5219 -0.7343 -0.0359
   33FTM     C637234   1.307   9.664   5.653 -0.1491  0.3424 -0.3542
   33FTM     C737235   1.300   9.546   5.560 -0.0284  0.5862  0.4864
   33FTM     C837236   1.289   9.400   5.610  0.4800 -0.4192  0.3536
   33FTM     C937237   1.170   9.390   5.710 -0.5209 -0.2957  0.3571
   33FTM    C1037238   1.138   9.249   5.759  0.0602  0.2370  0.2290
   33FTM    C1137239   1.245   9.796   5.605 -0.6489 -0.1487 -0.2605
   33FTM    C1237240   1.094   9.791   5.579  0.2000 -0.2811  0.0369
   34TPM     C137241   2.154   9.514   6.110  0.4515 -0.1684 -0.1560
   34TPM     C237242   2.269   9.490   6.179  0.3839  0.2496  0.1116
   34TPM     C337243   2.364   9.598   6.172  0.0349  0.5717  0.2840
   34TPM     C437244   2.321   9.704   6.099 -0.1637  0.3989  0.1477
   34TPM     S137245   2.156   9.676   6.032  0.0767 -0.1885 -0.2116
   35BDD     C137246   2.574   9.997   6.143 -0.1345 -0.2018  0.0171
   35BDD     C237247   2.510  10.024   6.025 -0.1082 -0.1710  0.0098
   35BDD     C337248   2.407   9.927   5.992 -0.0580 -0.1972 -0.0699
   35BDD     C437249   2.394   9.827   6.085 -0.0469 -0.2476 -0.1220
   35BDD     S137250   2.510   9.849   6.221 -0.0984 -0.2658 -0.0750
   35BDD     C537251   2.541  10.139   5.938 -0.1281 -0.1163  0.0756
   35BDD     C637252   2.325   9.936   5.869 -0.0229 -0.1713 -0.0913
   35BDD     O137253   2.237   9.852   5.841  0.0203 -0.1938 -0.1600
   35BDD     O237254   2.629  10.223   5.967 -0.1714 -0.0937  0.1442
   35BDD     C737255   2.356  10.051   5.783 -0.0429 -0.1166 -0.0255
   35BDD     C837256   2.459  10.148   5.816 -0.0930 -0.0904  0.0540
   35BDD     C937257   2.472  10.248   5.722 -0.1042 -0.0399  0.1061
   35BDD     S237258   2.356  10.226   5.587 -0.0527 -0.0218  0.0591
   35BDD    C1037259   2.292  10.078   5.665 -0.0166 -0.0857 -0.0330
   35BDD    C1137260   2.201  10.009   5.570  0.7495 -0.5303 -0.0819
   35BDD    C1237261   2.050  10.045   5.579 -0.1602  0.3036  0.0212
   35BDD    C1337262   2.004  10.185   5.548 -0.0913 -0.4642 -0.1575
   35BDD    C1437263   2.009  10.235   5.399  0.3523 -0.5215 -0.3093
   35BDD    C1537264   2.002  10.378   5.368  0.0658 -0.3476  0.6637
   35BDD    C1637265   2.109  10.464   5.434  0.6320  0.2130  0.4384
   35BDD    C1737266   1.948   9.939   5.538 -0.0009  0.4560 -0.2673
   35BDD    C1837267   1.809   9.950   5.594 -0.5778 -0.1838  0.1152
   35BDD    C1937268   2.566  10.371   5.710 -0.1015 -0.0393  0.2068
   35BDD    C2037269   2.498  10.511   5.736 -0.2823  0.5655  0.3503
   35BDD    C2137270   2.405  10.527   5.853  0.5493 -0.0785 -0.7437
   35BDD    C2237271   2.462  10.511   5.999  0.4087 -0.0500 -0.3433
   35BDD    C2337272   2.347  10.535   6.095  0.0984 -0.4157  0.3846
   35BDD    C2437273   2.385  10.510   6.238 -0.3635 -0.0207  0.2683
   35BDD    C2537274   2.580  10.641   5.713 -0.8395 -0.0152  0.2944
   35BDD    C2637275   2.665  10.648   5.589  0.3097  0.2122 -0.1114
   36TPM     C137276   2.676  10.058   6.225  0.1559 -0.1146  0.3797
   36TPM     C237277   2.774   9.982   6.279  0.3077 -0.2726 -0.1146
   36TPM     C337278   2.874  10.057   6.350  0.7043 -0.4459 -0.4786
   36TPM     C437279   2.852  10.192   6.350  0.8550 -0.4200 -0.2618
   36TPM     S137280   2.701  10.234   6.260  0.5047 -0.1728  0.4243
   37BDTP    C137281   3.199  10.592   6.681 -0.0681  0.2902 -0.2545
   37BDTP    C237282   3.081  10.667   6.654 -0.2018  0.1134 -0.1618
   37BDTP    C337283   2.975  10.616   6.580 -0.1946 -0.0544 -0.0566
   37BDTP    C437284   2.986  10.485   6.530 -0.0488 -0.0478 -0.0416
   37BDTP    C537285   3.105  10.410   6.557  0.0849  0.1290 -0.1341
   37BDTP    C637286   3.210  10.461   6.631  0.0777  0.2968 -0.2396
   37BDTP    C737287   2.890  10.410   6.451 -0.0128 -0.2028  0.0594
   37BDTP    C837288   2.930  10.285   6.418  0.1397 -0.1516  0.0473
   37BDTP    S137289   3.095  10.244   6.483  0.2589  0.1002 -0.0938
   37BDTP    C937290   3.295  10.667   6.760 -0.1041  0.4452 -0.3557
   37BDTP   C1037291   3.255  10.792   6.793 -0.2565  0.3940 -0.3436
   37BDTP    S237292   3.090  10.833   6.728 -0.3759  0.1422 -0.2025
   38FTM     S137293   2.876  10.874   6.485 -0.1421 -0.0026  0.2983
   38FTM     C137294   2.698  10.884   6.461 -0.0919  0.0822 -0.0585
   38FTM     C237295   2.640  10.766   6.496 -0.2140  0.0987 -0.2060
   38FTM     C337296   2.728  10.663   6.542 -0.3508  0.0476 -0.0542
   38FTM     C437297   2.858  10.703   6.542 -0.3328 -0.0099  0.2182
   38FTM     F137298   2.503  10.745   6.488 -0.2093  0.1611 -0.4870
   38FTM     C537299   2.640  11.011   6.407 -0.1585 -0.6305 -0.2755
   38FTM     C637300   2.689  11.078   6.280  0.6806  0.1357  0.1849
   38FTM     C737301   2.665  10.995   6.155 -0.1978  0.3610 -0.1195
   38FTM     C837302   2.761  11.012   6.042 -0.3209 -0.3398  0.4474
   38FTM     C937303   2.720  10.944   5.910 -0.3836 -0.5077 -0.0872
   38FTM    C1037304   2.842  10.919   5.826 -0.3803 -0.0978 -0.6019
   38FTM    C1137305   2.626  11.225   6.268  0.1679 -0.1097 -0.3470
   38FTM    C1237306   2.643  11.311   6.392 -0.2370 -0.5561 -0.5858
   39FTM     S137307   3.427  10.314   6.504 -0.0478  0.0609 -0.0695
   39FTM     C137308   3.550  10.242   6.614  0.0163  0.0363 -0.1566
   39FTM     C237309   3.517  10.268   6.743 -0.1911 -0.4365 -0.1093
   39FTM     C337310   3.397  10.344   6.764 -0.4070 -0.7996 -0.0045
   39FTM     C437311   3.336  10.377   6.647 -0.3638 -0.5983  0.0290
   39FTM     F137312   3.593  10.225   6.851 -0.1975 -0.5684 -0.1575
   39FTM     C537313   3.655  10.154   6.546 -0.1727 -0.0361 -0.3939
   39FTM     C637314   3.684  10.012   6.586  0.3747  0.5301 -0.2551
   39FTM     C737315   3.578   9.910   6.557 -0.0788  0.8747 -0.1335
   39FTM     C837316   3.519   9.890   6.420  0.6345  0.0997 -0.5885
   39FTM     C937317   3.388   9.813   6.417 -0.0114  0.1057  0.1841
   39FTM    C1037318   3.311   9.815   6.289  0.2451 -0.4292  0.5708
   39FTM    C1137319   3.755   9.984   6.717 -0.1209 -0.0079 -0.5440
   39FTM    C1237320   3.888  10.058   6.747 -0.5911 -0.1230 -0.3356
   40TPM     C137321   3.327  10.882   6.879  0.0849  0.5072 -0.2978
   40TPM     C237322   3.278  10.981   6.959  0.3716  0.5382 -0.1558
   40TPM     C337323   3.379  11.061   7.021  0.6164 -0.0042  0.1613
   40TPM     C437324   3.506  11.024   6.989  0.5163 -0.4487  0.2609
   40TPM     S137325   3.508  10.884   6.876  0.1020 -0.2150 -0.0402
   41BDD     C137326   3.836  11.057   7.194 -0.0730 -0.0452 -0.2003
   41BDD     C237327   3.790  11.185   7.180 -0.0451 -0.0317 -0.1698
   41BDD     C337328   3.665  11.194   7.108 -0.0166  0.0174 -0.2140
   41BDD     C437329   3.616  11.072   7.068 -0.0232  0.0406 -0.2776
   41BDD     S137330   3.725  10.938   7.118 -0.0656  0.0026 -0.2865
   41BDD     C537331   3.860  11.304   7.232 -0.0435 -0.0634 -0.0988
   41BDD     C637332   3.597  11.322   7.081  0.0162  0.0395 -0.1917
   41BDD     O137333   3.488  11.329   7.019  0.0408  0.0819 -0.2297
   41BDD     O237334   3.969  11.297   7.294 -0.0680 -0.1058 -0.0606
   41BDD     C737335   3.667  11.441   7.133  0.0178  0.0077 -0.1208
   41BDD     C837336   3.793  11.433   7.205 -0.0107 -0.0414 -0.0764
   41BDD     C937337   3.841  11.555   7.244 -0.0041 -0.0647 -0.0126
   41BDD     S237338   3.732  11.688   7.194  0.0384 -0.0266 -0.0038
   41BDD    C1037339   3.621  11.569   7.118  0.0458  0.0212 -0.0900
   41BDD    C1137340   3.488  11.626   7.065 -0.1277 -0.0414  0.4798
   41BDD    C1237341   3.480  11.721   6.934 -0.8110  0.5053 -0.8639
   41BDD    C1337342   3.346  11.768   6.887  0.0630 -1.1087  0.2770
   41BDD    C1437343   3.263  11.851   6.992  0.0615 -0.2144  0.6032
   41BDD    C1537344   3.115  11.895   6.962 -0.4434  0.1461  0.0603
   41BDD    C1637345   3.059  11.996   7.068  0.2669 -0.2239 -0.1985
   41BDD    C1737346   3.581  11.673   6.829 -0.0412 -0.4635  0.0597
   41BDD    C1837347   3.603  11.788   6.733 -0.1290 -0.2213 -0.1144
   41BDD    C1937348   3.978  11.607   7.305  0.3514  0.3473 -0.4759
   41BDD    C2037349   3.965  11.699   7.426 -1.0311  0.5207 -0.6257
   41BDD    C2137350   3.896  11.626   7.546  0.3722 -0.3562  0.3042
   41BDD    C2237351   3.819  11.721   7.636 -0.3597 -0.4964 -0.1638
   41BDD    C2337352   3.688  11.783   7.580 -0.6495 -0.1712  0.5818
   41BDD    C2437353   3.623  11.859   7.685  0.4250  0.5681 -0.4388
   41BDD    C2537354   4.089  11.779   7.477  0.4191 -0.0512  0.0167
   41BDD    C2637355   4.169  11.845   7.365 -0.3402  0.1318 -0.3744
   42TPM     C137356   3.947  10.982   7.260  0.1325 -0.0254  0.1175
   42TPM     C237357   3.954  10.846   7.257  0.5355  0.0035 -0.4143
   42TPM     C337358   4.069  10.793   7.325  0.7697  0.0789 -0.7448
   42TPM     C437359   4.150  10.888   7.380  0.5457  0.1075 -0.4651
   42TPM     S137360   4.086  11.054   7.351  0.0170  0.0409  0.2432
   43BDTP    C137361   4.679  10.823   7.704  0.1382 -0.0666  0.0495
   43BDTP    C237362   4.698  10.739   7.591  0.1172 -0.1578  0.1135
   43BDTP    C337363   4.602  10.721   7.493  0.1546 -0.1197  0.0694
   43BDTP    C437364   4.479  10.789   7.508  0.2156  0.0145 -0.0436
   43BDTP    C537365   4.460  10.873   7.621  0.2365  0.1057 -0.1078
   43BDTP    C637366   4.557  10.891   7.719  0.1991  0.0676 -0.0633
   43BDTP    C737367   4.364  10.785   7.420  0.2627  0.0771 -0.1076
   43BDTP    C837368   4.261  10.862   7.461  0.3173  0.2091 -0.2154
   43BDTP    S137369   4.294  10.950   7.617  0.3167  0.2729 -0.2508
   43BDTP    C937370   4.794  10.826   7.792  0.0910 -0.1291  0.1136
   43BDTP   C1037371   4.898  10.750   7.751  0.0362 -0.2612  0.2214
   43BDTP    S237372   4.864  10.662   7.595  0.0370 -0.3249  0.2567
   44FTM     S137373   4.504  10.550   7.272 -0.0709  0.1946  0.1280
   44FTM     C137374   4.635  10.488   7.165 -0.0724 -0.0901  0.2902
   44FTM     C237375   4.756  10.527   7.212 -0.0513 -0.2679  0.3836
   44FTM     C337376   4.755  10.605   7.332 -0.0330 -0.1952  0.3362
   44FTM     C437377   4.628  10.628   7.377 -0.0405  0.0460  0.2019
   44FTM     F137378   4.875  10.493   7.150 -0.0470 -0.5069  0.5178
   44FTM     C537379   4.602  10.415   7.034  0.3261  0.0511 -0.0181
   44FTM     C637380   4.480  10.456   6.940  0.8089  0.9961 -0.4890
   44FTM     C737381   4.455  10.594   6.886 -0.0436 -0.4845  0.0686
   44FTM     C837382   4.457  10.721   6.974 -0.1513 -0.0651  0.1860
   44FTM     C937383   4.461  10.857   6.903 -0.4776  0.8540  1.4209
   44FTM    C1037384   4.335  10.895   6.825 -0.2487  0.1957  0.0683
   44FTM    C1137385   4.473  10.359   6.827  0.0732  0.2558  0.6168
   44FTM    C1237386   4.431  10.215   6.854 -0.4975 -0.1178 -0.2528
   45FTM     S137387   4.433  10.945   7.967 -0.1577  0.1200 -0.1814
   45FTM     C137388   4.462  11.107   8.041  0.1661 -0.0972  0.1711
   45FTM     C237389   4.546  11.179   7.963  0.2532 -0.0656  0.2922
   45FTM     C337390   4.591  11.115   7.843  0.0772  0.1249  0.1223
   45FTM     C437391   4.541  10.990   7.829 -0.1517  0.2429 -0.1374
   45FTM     F137392   4.586  11.308   7.995  0.4972 -0.2072  0.5639
   45FTM     C537393   4.392  11.136   8.169 -0.1983  0.3089 -0.9780
   45FTM     C637394   4.256  11.220   8.174 -0.6257  0.2255  0.1210
   45FTM     C737395   4.268  11.361   8.116 -0.3242 -0.1456 -0.8728
   45FTM     C837396   4.382  11.450   8.164  0.0347 -0.7184 -0.1025
   45FTM     C937397   4.387  11.493   8.308  0.5774  0.2963 -0.3368
   45FTM    C1037398   4.496  11.588   8.344 -0.2937 -0.1838  0.1225
   45FTM    C1137399   4.134  11.154   8.108  0.4681 -0.2085 -0.0684
   45FTM    C1237400   4.107  11.003   8.147 -0.0097 -0.4085  0.4975
   46TPM     C137401   5.031  10.740   7.818 -0.2298  0.2485 -0.1746
   46TPM     C237402   5.141  10.673   7.773 -0.3303  0.3455 -0.5722
   46TPM     C337403   5.251  10.672   7.866 -0.1549  0.0477 -0.7775
   46TPM     C437404   5.224  10.738   7.983  0.0794 -0.2764 -0.5366
   46TPM     S137405   5.058  10.807   7.983  0.0968 -0.2303 -0.0277
   47BDD     C137406   5.534  10.708   8.213 -0.2149  0.1614  0.2602
   47BDD     C237407   5.527  10.841   8.182 -0.0780  0.1509  0.1812
   47BDD     C337408   5.411  10.874   8.101  0.0578  0.1910  0.0038
   47BDD     C437409   5.333  10.767   8.071  0.0224  0.2315 -0.0496
   47BDD     S137410   5.397  10.616   8.143 -0.1832  0.2223  0.1183
   47BDD     C537411   5.626  10.942   8.226 -0.0669  0.1036  0.2663
   47BDD     C637412   5.384  11.012   8.055  0.2176  0.1877 -0.1054
   47BDD     O137413   5.284  11.041   7.985  0.3346  0.2223 -0.2587
   47BDD     O237414   5.725  10.912   8.296 -0.1839  0.0690  0.4191
   47BDD     C737415   5.482  11.113   8.099  0.2286  0.1404 -0.0207
   47BDD     C837416   5.598  11.079   8.180  0.0929  0.1003  0.1564
   47BDD     C937417   5.677  11.187   8.210  0.1283  0.0597  0.2100
   47BDD     S237418   5.612  11.338   8.138  0.3339  0.0690  0.0424
   47BDD    C1037419   5.475  11.246   8.068  0.3655  0.1298 -0.0999
   47BDD    C1137420   5.376  11.315   7.983  0.1696 -0.0609  0.8851
   47BDD    C1237421   5.317  11.455   8.026 -0.5966  0.6758 -0.3409
   47BDD    C1337422   5.251  11.515   7.905 -0.2242  0.3005 -0.5472
   47BDD    C1437423   5.242  11.668   7.899  0.5575 -0.3396  0.2034
   47BDD    C1537424   5.199  11.732   7.770 -0.4469  0.9862 -0.4504
   47BDD    C1637425   5.179  11.880   7.782 -0.0586 -0.0332 -0.2801
   47BDD    C1737426   5.253  11.468   8.169 -0.0799 -1.1805 -0.7093
   47BDD    C1837427   5.116  11.409   8.173  0.0667  0.2351  0.2723
   47BDD    C1937428   5.791  11.192   8.303 -0.4175  0.1959 -0.3202
   47BDD    C2037429   5.789  11.287   8.425  0.3590  0.3005  0.2721
   47BDD    C2137430   5.664  11.276   8.515 -0.4225  0.3738 -0.5958
   47BDD    C2237431   5.528  11.331   8.471  0.2330 -0.1258  0.0556
   47BDD    C2337432   5.415  11.273   8.552 -0.4958  0.0779 -0.2721
   47BDD    C2437433   5.276  11.299   8.502 -0.0696  0.2221  0.4908
   47BDD    C2537434   5.855  11.428   8.407  0.2081 -0.0543 -0.2597
   47BDD    C2637435   5.992  11.444   8.351 -0.0401  0.4307 -0.3855
   48TPM     C137436   5.632  10.614   8.275  0.1809  0.6635 -0.2343
   48TPM     C237437   5.620  10.479   8.258 -0.4492  0.6258  0.4187
   48TPM     C337438   5.728  10.404   8.316 -0.8576  0.3855  0.8788
   48TPM     C437439   5.822  10.481   8.377 -0.5386  0.2400  0.5770
   48TPM     S137440   5.782  10.656   8.366  0.3087  0.3963 -0.3186
   49BDTP    C137441   6.259  10.222   8.742 -0.0221  0.1583  0.0834
   49BDTP    C237442   6.304  10.357   8.732  0.0230  0.1411  0.0560
   49BDTP    C337443   6.238  10.453   8.657  0.0464  0.1523  0.0494
   49BDTP    C437444   6.121  10.414   8.589  0.0241  0.1818  0.0710
   49BDTP    C537445   6.076  10.280   8.599 -0.0211  0.1990  0.0985
   49BDTP    C637446   6.142  10.184   8.674 -0.0444  0.1878  0.1051
   49BDTP    C737447   6.035  10.496   8.506  0.0412  0.1981  0.0692
   49BDTP    C837448   5.929  10.430   8.453  0.0116  0.2264  0.0939
   49BDTP    S137449   5.923  10.255   8.502 -0.0423  0.2363  0.1223
   49BDTP    C937450   6.345  10.140   8.825 -0.0392  0.1419  0.0849
   49BDTP   C1037451   6.451  10.206   8.878 -0.0097  0.1137  0.0606
   49BDTP    S237452   6.457  10.381   8.829  0.0443  0.1038  0.0320
   50FTM     S137453   6.187  10.723   8.727 -0.0933  0.4033 -0.5448
   50FTM     C137454   6.321  10.841   8.704 -0.0177  0.3814 -0.2184
   50FTM     C237455   6.430  10.778   8.653  0.1434  0.3366  0.1771
   50FTM     C337456   6.416  10.637   8.629  0.2162  0.3171  0.2484
   50FTM     C437457   6.292  10.591   8.663  0.1073  0.3479 -0.1035
   50FTM     F137458   6.549  10.843   8.625  0.2346  0.3107  0.4978
   50FTM     C537459   6.317  10.981   8.764 -0.2145  0.3747  0.4090
   50FTM     C637460   6.209  11.074   8.708  0.1058  0.0650 -0.9453
   50FTM     C737461   6.205  11.089   8.558 -0.5398  0.1238 -0.5463
   50FTM     C837462   6.305  11.185   8.491  0.2910  1.1414  0.2147
   50FTM     C937463   6.301  11.326   8.556  0.1893 -0.2677 -0.0251
   50FTM    C1037464   6.419  11.410   8.510  0.4569 -0.7793 -0.1320
   50FTM    C1137465   6.072  11.033   8.762 -0.2006  0.1162  0.6325
   50FTM    C1237466   5.954  11.125   8.748 -0.0053  0.6800 -0.1726
   51FTM     S137467   5.912  10.013   8.697 -0.1679 -0.2724 -0.0209
   51FTM     C137468   5.942   9.835   8.692 -0.1921 -0.2703 -0.3089
   51FTM     C237469   6.075   9.811   8.683 -0.1830 -0.2739 -0.1769
   51FTM     C337470   6.160   9.926   8.678 -0.1574 -0.2785  0.1483
   51FTM     C437471   6.090  10.043   8.685 -0.1464 -0.2783  0.2697
   51FTM     F137472   6.129   9.683   8.677 -0.1975 -0.2734 -0.3431
   51FTM     C537473   5.830   9.731   8.691 -0.5607 -0.2472  0.4325
   51FTM     C637474   5.788   9.661   8.822 -0.9389 -0.4138 -0.5015
   51FTM     C737475   5.715   9.752   8.915 -0.7629  0.5108 -0.0200
   51FTM     C837476   5.604   9.840   8.867  0.1677  0.8217  0.5081
   51FTM     C937477   5.530   9.912   8.974 -0.9995 -0.2187  0.4059
   51FTM    C1037478   5.612  10.031   9.012 -0.2518  0.8143  0.1458
   51FTM    C1137479   5.905   9.575   8.891 -0.5007 -0.3851  0.6233
   51FTM    C1237480   5.862   9.481   9.004 -0.1006  0.1581 -0.2642
   52TPM     C137481   6.562  10.152   8.953 -0.4146  0.8557  0.0484
   52TPM     C237482   6.575  10.030   9.012 -0.6231  0.8379  0.0584
   52TPM     C337483   6.706  10.005   9.066 -0.5432  0.4527 -0.3083
   52TPM     C437484   6.793  10.108   9.047 -0.2737  0.1768 -0.5979
   52TPM     S137485   6.716  10.246   8.960 -0.0986  0.3838 -0.4287
   53BDD     C137486   7.157  10.053   8.916  0.1361  0.1861  0.0369
   53BDD     C237487   7.152   9.984   9.033  0.1174  0.1541  0.0176
   53BDD     C337488   7.024   9.993   9.101  0.1088  0.1408  0.0029
   53BDD     C437489   6.933  10.069   9.034  0.1210  0.1629  0.0115
   53BDD     S137490   7.001  10.135   8.881  0.1441  0.2019  0.0386
   53BDD     C537491   7.266   9.906   9.088  0.1068  0.1344  0.0114
   53BDD     C637492   6.997   9.926   9.230  0.0887  0.1066 -0.0193
   53BDD     O137493   6.887   9.934   9.289  0.0812  0.0952 -0.0317
   53BDD     O237494   7.376   9.898   9.030  0.1143  0.1459  0.0238
   53BDD     C737495   7.111   9.849   9.285  0.0782  0.0870 -0.0250
   53BDD     C837496   7.239   9.839   9.217  0.0869  0.1003 -0.0105
   53BDD     C937497   7.330   9.763   9.284  0.0746  0.0782 -0.0188
   53BDD     S237498   7.262   9.698   9.437  0.0515  0.0392 -0.0460
   53BDD    C1037499   7.106   9.779   9.403  0.0595  0.0550 -0.0443
   53BDD    C1137500   7.004   9.768   9.517  0.6012  0.8206  0.2949
   53BDD    C1237501   6.932   9.631   9.537  0.1529 -0.0556  0.1029
   53BDD    C1337502   6.850   9.581   9.424  0.4288 -0.0007  0.4446
   53BDD    C1437503   6.914   9.509   9.309 -0.5521  0.3266  0.3209
   53BDD    C1537504   6.823   9.465   9.201  1.0485 -0.1280  0.2341
   53BDD    C1637505   6.902   9.417   9.078 -0.1054  0.2372 -0.3620
   53BDD    C1737506   7.011   9.523   9.608 -0.8885  0.0794  0.1048
   53BDD    C1837507   7.040   9.545   9.756  0.1238  0.9057 -0.1860
   53BDD    C1937508   7.476   9.732   9.267  0.2205  0.1418  0.0107
   53BDD    C2037509   7.568   9.764   9.386 -0.0657  0.3085  0.2144
   53BDD    C2137510   7.711   9.714   9.379 -0.1827  0.0677  0.2450
   53BDD    C2237511   7.801   9.723   9.502  0.0977  0.5265  0.4450
   53BDD    C2337512   7.753   9.651   9.626  0.3287  0.1792  0.2874
   53BDD    C2437513   7.738   9.497   9.619 -0.3813 -0.1934 -0.0089
   53BDD    C2537514   7.551   9.907   9.440 -0.2772 -0.0576 -0.6333
   53BDD    C2637515   7.595  10.019   9.350 -0.2542  0.5015 -0.5980
   54TPM     C137516   7.250  10.063   8.803  0.1328 -0.1386 -0.0316
   54TPM     C237517   7.288   9.946   8.745  0.0948 -0.1330 -0.0689
   54TPM     C337518   7.334   9.960   8.609  0.2483 -0.0809 -0.0126
   54TPM     C437519   7.330  10.088   8.563  0.4034 -0.0469  0.0678
   54TPM     S137520   7.268  10.202   8.689  0.3673 -0.0781  0.0783
   55BDTP    C137521   7.582  10.298   8.028  0.2087 -0.2448  0.1545
   55BDTP    C237522   7.575  10.414   8.110  0.1067 -0.1803  0.0544
   55BDTP    C337523   7.522  10.412   8.238 -0.0416 -0.0819 -0.0050
   55BDTP    C437524   7.474  10.290   8.288 -0.0923 -0.0453  0.0365
   55BDTP    C537525   7.481  10.173   8.206  0.0098 -0.1098  0.1364
   55BDTP    C637526   7.534  10.175   8.078  0.1580 -0.2082  0.1956
   55BDTP    C737527   7.415  10.263   8.418 -0.2406  0.0537 -0.0102
   55BDTP    C837528   7.378  10.134   8.437 -0.2550  0.0665  0.0489
   55BDTP    S137529   7.413  10.028   8.293 -0.0825 -0.0450  0.1721
   55BDTP    C937530   7.641  10.324   7.898  0.3570 -0.3438  0.2015
   55BDTP   C1037531   7.678  10.453   7.879  0.3715 -0.3566  0.1421
   55BDTP    S237532   7.643  10.559   8.022  0.1989 -0.2451  0.0185
   56FTM     S137533   7.480  10.692   8.270 -0.3404  0.0625  0.0856
   56FTM     C137534   7.530  10.766   8.426 -0.3681  0.2472  0.0069
   56FTM     C237535   7.578  10.671   8.510 -0.1498  0.3829  0.0372
   56FTM     C337536   7.580  10.537   8.459  0.0476  0.3523  0.1214
   56FTM     C437537   7.531  10.530   8.332 -0.0220  0.1878  0.1570
   56FTM     F137538   7.624  10.699   8.638 -0.1158  0.5428 -0.0098
   56FTM     C537539   7.516  10.919   8.435  0.2760 -0.3080 -0.1338
   56FTM     C637540   7.630  11.015   8.392  0.3458 -0.5693 -0.1773
   56FTM     C737541   7.657  11.010   8.243  1.3681 -0.6125 -0.5101
   56FTM     C837542   7.546  11.061   8.154 -0.0878 -0.1403 -0.3783
   56FTM     C937543   7.469  11.190   8.191 -0.3732 -0.5089 -0.4282
   56FTM    C1037544   7.382  11.220   8.074  0.1496 -0.1583  0.5268
   56FTM    C1137545   7.768  11.016   8.461  0.1568 -0.3179  0.0094
   56FTM    C1237546   7.765  11.060   8.607  0.4125 -0.1803  0.1213
   57FTM     S137547   7.372   9.981   7.942 -0.3677  0.0619 -0.1061
   57FTM     C137548   7.460   9.870   7.831 -0.3862  0.1154 -0.1746
   57FTM     C237549   7.594   9.896   7.836 -0.3819  0.0924 -0.1611
   57FTM     C337550   7.635  10.002   7.924 -0.3647  0.0333 -0.0978
   57FTM     C437551   7.529  10.058   7.988 -0.3552  0.0102 -0.0621
   57FTM     F137552   7.687   9.826   7.761 -0.3936  0.1236 -0.2046
   57FTM     C537553   7.394   9.749   7.764 -0.2115  0.2783  0.1321
   57FTM     C637554   7.238   9.752   7.737 -0.8436  0.2348 -0.0033
   57FTM     C737555   7.159   9.615   7.757 -0.0501 -0.4163  0.6788
   57FTM     C837556   7.160   9.556   7.889 -0.1572  0.3805 -0.1431
   57FTM     C937557   7.097   9.424   7.924  1.0468  0.1411  0.3338
   57FTM    C1037558   7.126   9.310   7.840 -0.2325  0.4370 -0.4166
   57FTM    C1137559   7.203   9.849   7.617 -0.0087  0.8227  0.6619
   57FTM    C1237560   7.063   9.891   7.580  0.4417  0.2473  0.0355
   58TPM     C137561   7.765  10.497   7.773 -0.2955  0.1741 -0.1369
   58TPM     C237562   7.793  10.445   7.650 -0.8078  0.4912 -0.3887
   58TPM     C337563   7.901  10.511   7.582 -0.8081  0.3902 -0.4884
   58TPM     C437564   7.957  10.613   7.653 -0.2962 -0.0037 -0.3126
   58TPM     S137565   7.876  10.634   7.813  0.2303 -0.2800 -0.0051
   59BDD     C137566   8.301  10.793   7.631 -0.1443 -0.0721  0.2276
   59BDD     C237567   8.239  10.821   7.512 -0.1199 -0.1250  0.2024
   59BDD     C337568   8.108  10.760   7.500 -0.1521 -0.0630  0.2364
   59BDD     C437569   8.072  10.687   7.609 -0.1999  0.0362  0.2872
   59BDD     S137570   8.199  10.689   7.735 -0.2089  0.0589  0.2956
   59BDD     C537571   8.299  10.905   7.406 -0.0663 -0.2344  0.1462
   59BDD     C637572   8.023  10.777   7.380 -0.1338 -0.1045  0.2176
   59BDD     O137573   7.910  10.725   7.369 -0.1613 -0.0511  0.2468
   59BDD     O237574   8.412  10.957   7.416 -0.0386 -0.2878  0.1168
   59BDD     C737575   8.083  10.861   7.273 -0.0801 -0.2139  0.1612
   59BDD     C837576   8.214  10.922   7.286 -0.0482 -0.2759  0.1272
   59BDD     C937577   8.250  10.995   7.176  0.0002 -0.3750  0.0765
   59BDD     S237578   8.123  10.993   7.050  0.0088 -0.3977  0.0679
   59BDD    C1037579   8.021  10.889   7.155 -0.0558 -0.2667  0.1360
   59BDD    C1137580   7.887  10.850   7.097  0.0379  0.5762  0.6977
   59BDD    C1237581   7.762  10.935   7.110 -0.6941 -0.6613 -0.0507
   59BDD    C1337582   7.770  11.078   7.063  0.5632  0.5429  0.0063
   59BDD    C1437583   7.755  11.126   6.922  0.3630  0.3574  0.4290
   59BDD    C1537584   7.744  11.275   6.896 -0.9359 -0.3617 -0.5465
   59BDD    C1637585   7.864  11.357   6.939 -0.1052 -0.3546 -0.0485
   59BDD    C1737586   7.632  10.859   7.087 -0.6230 -0.4480  0.0517
   59BDD    C1837587   7.498  10.908   7.140  0.2507 -0.2931  0.3086
   59BDD    C1937588   8.374  11.076   7.136 -0.3778 -0.3393 -0.1068
   59BDD    C2037589   8.439  11.033   7.007  0.4199 -0.3843  0.8598
   59BDD    C2137590   8.471  10.881   6.998  0.3757 -0.3858 -0.8465
   59BDD    C2237591   8.583  10.837   7.096 -0.7280  0.3818  0.2735
   59BDD    C2337592   8.595  10.689   7.113  0.0504 -0.3318  0.1702
   59BDD    C2437593   8.703  10.641   7.200  0.0282  0.8345 -0.8858
   59BDD    C2537594   8.549  11.133   6.976  0.2079 -0.3629 -0.5514
   59BDD    C2637595   8.630  11.103   6.850  0.1920  0.3328 -0.1365
   60TPM     C137596   8.417  10.840   7.702 -0.0788 -0.1924 -0.0246
   60TPM     C237597   8.543  10.851   7.652 -0.1040 -0.0614 -0.0607
   60TPM     C337598   8.641  10.892   7.749 -0.1471  0.2029 -0.1274
   60TPM     C437599   8.590  10.912   7.873 -0.1550  0.2735 -0.1424
   60TPM     S137600   8.412  10.881   7.878 -0.1082  0.0095 -0.0727
    1BDTP    C137601   5.559   2.996   5.275  0.1152  0.1552 -0.0652
    1BDTP    C237602   5.452   2.986   5.368  0.1434  0.1883 -0.0290
    1BDTP    C337603   5.357   3.087   5.384  0.1665  0.2075 -0.0132
    1BDTP    C437604   5.369   3.202   5.304  0.1613  0.1935 -0.0345
    1BDTP    C537605   5.477   3.212   5.211  0.1329  0.1605 -0.0707
    1BDTP    C637606   5.571   3.112   5.195  0.1100  0.1412 -0.0865
    1BDTP    C737607   5.283   3.319   5.303  0.1818  0.2086 -0.0240
    1BDTP    C837608   5.321   3.415   5.215  0.1704  0.1888 -0.0505
    1BDTP    S137609   5.470   3.371   5.121  0.1321  0.1481 -0.0924
    1BDTP    C937610   5.645   2.879   5.275  0.0948  0.1401 -0.0756
    1BDTP   C1037611   5.607   2.783   5.364  0.1062  0.1600 -0.0491
    1BDTP    S237612   5.458   2.828   5.458  0.1444  0.2007 -0.0073
    2FTM     S137613   5.223   3.210   5.608  0.2277  0.0255 -0.1088
    2FTM     C137614   5.080   3.121   5.672  0.3908  0.2458  0.5792
    2FTM     C237615   5.063   3.005   5.603  0.0808  0.1035  0.8868
    2FTM     C337616   5.158   2.980   5.498 -0.2934 -0.1786  0.6125
    2FTM     C437617   5.250   3.079   5.487 -0.2690 -0.2549  0.0777
    2FTM     F137618   4.961   2.916   5.630  0.1175  0.2202  1.4344
    2FTM     C537619   4.997   3.179   5.787  0.0856 -0.5724 -0.1480
    2FTM     C637620   5.018   3.156   5.934  0.1470 -0.2118  0.2441
    2FTM     C737621   5.145   3.212   5.998 -0.6966  0.2830 -0.4868
    2FTM     C837622   5.282   3.156   5.950  1.0706  0.2600  0.4978
    2FTM     C937623   5.405   3.209   6.027  0.1046 -1.2813 -0.1941
    2FTM    C1037624   5.523   3.185   5.932 -0.2631  0.2525  0.1904
    2FTM    C1137625   4.994   3.009   5.968 -0.0210  0.3884  0.1742
    2FTM    C1237626   4.861   2.944   5.931 -0.1793  0.1375 -0.5066
    3FTM     S137627   5.846   3.086   5.134  0.0007  0.0273 -0.2903
    3FTM     C137628   5.898   3.135   4.969 -0.3736 -0.2210 -0.4868
    3FTM     C237629   5.791   3.180   4.898 -0.5701 -0.5163 -0.3825
    3FTM     C337630   5.665   3.179   4.966 -0.4449 -0.5662 -0.1489
    3FTM     C437631   5.676   3.132   5.093 -0.1424 -0.3005 -0.0719
    3FTM     F137632   5.802   3.226   4.767 -0.8754 -0.7589 -0.4921
    3FTM     C537633   6.046   3.124   4.943 -0.4532 -0.5778 -0.1918
    3FTM     C637634   6.113   3.007   4.857  0.5606 -0.4662  0.1561
    3FTM     C737635   6.099   2.872   4.931  0.7054  1.0023 -0.4851
    3FTM     C837636   6.164   2.857   5.065 -0.7757 -0.1015  0.1201
    3FTM     C937637   6.149   2.728   5.142  0.0893  0.0006  0.0202
    3FTM    C1037638   6.220   2.758   5.272 -0.7117  0.1552 -0.1580
    3FTM    C1137639   6.064   3.007   4.713  0.3700 -0.6691 -0.0498
    3FTM    C1237640   6.117   3.119   4.622 -0.0792 -0.2325 -0.6091
    4TPM     C137641   5.672   2.651   5.392  0.4098  0.1883  0.3296
    4TPM     C237642   5.628   2.522   5.403  0.4421  0.1335 -0.1577
    4TPM     C337643   5.732   2.427   5.431  0.4444  0.0712 -0.3710
    4TPM     C437644   5.856   2.483   5.442  0.4136  0.0787 -0.0463
    4TPM     S137645   5.851   2.662   5.418  0.3791  0.1654  0.5586
    5BDD     C137646   6.192   2.403   5.629 -0.2408  0.0175  0.0389
    5BDD     C237647   6.171   2.297   5.546 -0.1220  0.0256 -0.0024
    5BDD     C337648   6.045   2.304   5.474 -0.1482 -0.1076  0.0302
    5BDD     C437649   5.971   2.415   5.504 -0.2865 -0.2153  0.0957
    5BDD     S137650   6.055   2.519   5.624 -0.3937 -0.1575  0.1211
    5BDD     C537651   6.266   2.185   5.529  0.0201  0.1562 -0.0730
    5BDD     C637652   6.001   2.200   5.379 -0.0349 -0.1231 -0.0048
    5BDD     O137653   5.892   2.206   5.318 -0.0576 -0.2380  0.0232
    5BDD     O237654   6.375   2.179   5.590  0.0428  0.2711 -0.1010
    5BDD     C737655   6.096   2.088   5.362  0.1072  0.0075 -0.0756
    5BDD     C837656   6.222   2.081   5.433  0.1335  0.1407 -0.1080
    5BDD     C937657   6.295   1.969   5.403  0.2720  0.2485 -0.1734
    5BDD     S237658   6.211   1.865   5.284  0.3791  0.1906 -0.1988
    5BDD    C1037659   6.075   1.982   5.279  0.2261  0.0156 -0.1166
    5BDD    C1137660   5.958   1.943   5.193  0.0568 -0.5546  0.4110
    5BDD    C1237661   5.966   2.000   5.047  0.4100  0.7556 -0.3898
    5BDD    C1337662   5.845   1.969   4.954 -0.3026  0.4169  0.4801
    5BDD    C1437663   5.702   2.010   5.001 -0.1648 -0.1542  0.7439
    5BDD    C1537664   5.671   2.151   5.042  0.5870 -0.0497  0.2871
    5BDD    C1637665   5.532   2.163   5.101  0.1532  0.2657 -0.1278
    5BDD    C1737666   6.100   1.982   4.971 -0.6052  0.3264 -0.0485
    5BDD    C1837667   6.138   1.842   4.922 -0.2030  0.5944  0.5909
    5BDD    C1937668   6.435   1.916   5.450  1.0007 -0.1678  0.7882
    5BDD    C2037669   6.434   1.771   5.513 -0.1451 -0.2135  0.1827
    5BDD    C2137670   6.578   1.726   5.529 -0.2299  0.0983  0.3088
    5BDD    C2237671   6.589   1.566   5.542  0.2863  0.1482  0.7425
    5BDD    C2337672   6.733   1.529   5.548 -0.5027  0.1289  0.4921
    5BDD    C2437673   6.756   1.371   5.533  0.6389  0.2482  0.0260
    5BDD    C2537674   6.324   1.742   5.620  0.4828 -0.4947 -0.4813
    5BDD    C2637675   6.331   1.816   5.754 -0.0531  0.3155  0.0094
    6TPM     C137676   6.300   2.450   5.712 -0.0968  0.4186 -0.6842
    6TPM     C237677   6.352   2.369   5.808 -0.3897 -0.0172 -0.8855
    6TPM     C337678   6.443   2.436   5.897 -0.6770 -0.4051 -0.2847
    6TPM     C437679   6.461   2.568   5.869 -0.6034 -0.2652  0.3745
    6TPM     S137680   6.362   2.618   5.726 -0.1618  0.3723  0.2869
    7BDTP    C137681   6.885   2.962   6.121  0.0725 -0.0203 -0.0322
    7BDTP    C237682   6.821   3.044   6.024  0.2009  0.0071 -0.0943
    7BDTP    C337683   6.720   2.997   5.941  0.2333  0.0609 -0.1650
    7BDTP    C437684   6.679   2.863   5.955  0.1349  0.0893 -0.1750
    7BDTP    C537685   6.744   2.781   6.052  0.0068  0.0619 -0.1130
    7BDTP    C637686   6.845   2.828   6.135 -0.0257  0.0080 -0.0423
    7BDTP    C737687   6.577   2.793   5.881  0.1454  0.1452 -0.2429
    7BDTP    C837688   6.561   2.663   5.917  0.0328  0.1610 -0.2351
    7BDTP    S137689   6.674   2.612   6.050 -0.1025  0.1071 -0.1404
    7BDTP    C937690   6.988   3.032   6.195  0.0619 -0.0762  0.0356
    7BDTP   C1037691   7.004   3.162   6.159  0.1745 -0.0920  0.0277
    7BDTP    S237692   6.891   3.213   6.026  0.3098 -0.0382 -0.0669
    8FTM     S137693   6.467   3.072   5.829 -0.1361  0.4836 -0.1847
    8FTM     C137694   6.470   3.206   5.708  0.0082  0.5752 -0.0810
    8FTM     C237695   6.598   3.249   5.690  0.0722  0.3564 -0.1512
    8FTM     C337696   6.699   3.182   5.766  0.0144  0.1101 -0.2866
    8FTM     C437697   6.647   3.085   5.847 -0.0974  0.1414 -0.3212
    8FTM     F137698   6.631   3.351   5.602  0.1869  0.3661 -0.0970
    8FTM     C537699   6.343   3.264   5.655  0.4310  0.4962 -0.5400
    8FTM     C637700   6.323   3.311   5.505  0.1212 -0.2901 -0.4195
    8FTM     C737701   6.399   3.443   5.472  0.2487  0.0060  0.4578
    8FTM     C837702   6.360   3.571   5.549 -0.6880  0.2069 -0.1888
    8FTM     C937703   6.213   3.616   5.556  0.4521  0.3170  0.0075
    8FTM    C1037704   6.191   3.699   5.677  0.7293  0.1307  0.4434
    8FTM    C1137705   6.331   3.188   5.414  0.4442 -0.3406 -0.1515
    8FTM    C1237706   6.283   3.202   5.270 -0.1532  0.3825 -0.3495
    9FTM     S137707   7.075   2.683   6.231 -0.2000 -0.4740  0.1158
    9FTM     C137708   7.066   2.628   6.403 -0.1536 -0.5518  0.0937
    9FTM     C237709   6.944   2.658   6.454 -0.0275 -0.2791  0.2397
    9FTM     C337710   6.852   2.723   6.366  0.0387  0.0002  0.3743
    9FTM     C437711   6.905   2.744   6.243 -0.0388 -0.0606  0.3300
    9FTM     F137712   6.908   2.628   6.585  0.0348 -0.2662  0.2600
    9FTM     C537713   7.164   2.529   6.461 -0.4289 -0.7392  0.7715
    9FTM     C637714   7.292   2.581   6.532 -0.3301  0.3423  0.5523
    9FTM     C737715   7.382   2.678   6.446 -0.0907 -0.9533 -0.2478
    9FTM     C837716   7.358   2.824   6.491  0.2826  0.5120  0.0191
    9FTM     C937717   7.477   2.914   6.445  0.6164  0.3409 -0.7017
    9FTM    C1037718   7.450   3.060   6.468 -0.5341 -0.2828  0.2245
    9FTM    C1137719   7.364   2.453   6.567 -0.1945  0.2650  0.0616
    9FTM    C1237720   7.495   2.464   6.641 -1.1234  0.5397  0.0360
   10TPM     C137721   7.117   3.247   6.191 -0.1910 -0.1171 -0.1665
   10TPM     C237722   7.211   3.229   6.288 -0.1594 -0.3964 -0.2459
   10TPM     C337723   7.306   3.336   6.297  0.0311 -0.5704 -0.1749
   10TPM     C437724   7.285   3.436   6.206  0.1453 -0.4236 -0.0411
   10TPM     S137725   7.142   3.402   6.102  0.0194 -0.0514  0.0055
   11BDD     C137726   7.342   3.822   6.238 -0.0355 -0.3690 -0.2436
   11BDD     C237727   7.460   3.765   6.278 -0.0424 -0.2961 -0.1171
   11BDD     C337728   7.459   3.620   6.272  0.0143 -0.3009 -0.0060
   11BDD     C437729   7.341   3.568   6.228  0.0638 -0.3775 -0.0497
   11BDD     S137730   7.222   3.697   6.191  0.0426 -0.4488 -0.2326
   11BDD     C537731   7.578   3.842   6.322 -0.1016 -0.2192 -0.0936
   11BDD     C637732   7.576   3.538   6.310  0.0174 -0.2295  0.1392
   11BDD     O137733   7.576   3.413   6.305  0.0663 -0.2338  0.2350
   11BDD     O237734   7.579   3.967   6.327 -0.1504 -0.2150 -0.1893
   11BDD     C737735   7.694   3.615   6.354 -0.0416 -0.1527  0.1627
   11BDD     C837736   7.695   3.760   6.360 -0.0985 -0.1478  0.0517
   11BDD     C937737   7.814   3.812   6.404 -0.1477 -0.0713  0.0952
   11BDD     S237738   7.933   3.683   6.441 -0.1266  0.0000  0.2783
   11BDD    C1037739   7.812   3.559   6.394 -0.0485 -0.0799  0.2893
   11BDD    C1137740   7.873   3.418   6.392  0.1503 -0.2661 -0.2495
   11BDD    C1237741   7.959   3.378   6.516  0.5359 -0.6288 -0.5964
   11BDD    C1337742   8.054   3.276   6.467 -0.5758  0.3779  0.0365
   11BDD    C1437743   8.188   3.258   6.553  0.0745  0.2650  0.9126
   11BDD    C1537744   8.270   3.148   6.495 -0.4299  0.1871  0.2475
   11BDD    C1637745   8.391   3.129   6.593  0.7519  0.0051 -0.1275
   11BDD    C1737746   7.886   3.372   6.656 -0.1627 -0.3172  0.1984
   11BDD    C1837747   7.778   3.269   6.690  0.1141  0.8190  0.0732
   11BDD    C1937748   7.870   3.951   6.421  0.6174 -0.1789  0.0392
   11BDD    C2037749   7.999   3.975   6.335 -0.8651 -0.3566 -0.4084
   11BDD    C2137750   7.973   3.988   6.184 -0.4473  0.4349  0.3732
   11BDD    C2237751   7.859   4.088   6.132 -0.4891  0.9011  0.1627
   11BDD    C2337752   7.825   4.051   5.985 -0.2872 -0.2426  0.2995
   11BDD    C2437753   7.753   4.160   5.909  0.0828  0.1422  0.0951
   11BDD    C2537754   8.080   4.102   6.374 -0.9462  0.4631  0.2544
   11BDD    C2637755   8.141   4.112   6.510  0.1973 -0.4876 -0.1352
   12TPM     C137756   7.288   3.956   6.231 -0.0380  0.0968  0.3267
   12TPM     C237757   7.358   4.057   6.171 -0.1224  0.0366  0.1258
   12TPM     C337758   7.280   4.175   6.146 -0.2278 -0.0870 -0.1320
   12TPM     C437759   7.150   4.164   6.187 -0.2238 -0.1208 -0.1276
   12TPM     S137760   7.117   4.003   6.261 -0.0854  0.0015  0.2050
   13BDTP    C137761   6.655   4.529   6.033 -0.1367  0.0359  0.0317
   13BDTP    C237762   6.766   4.610   5.994 -0.1131 -0.0051  0.0148
   13BDTP    C337763   6.898   4.569   6.011 -0.1247 -0.0252  0.0552
   13BDTP    C437764   6.922   4.444   6.070 -0.1612 -0.0041  0.1154
   13BDTP    C537765   6.811   4.363   6.109 -0.1849  0.0371  0.1324
   13BDTP    C637766   6.679   4.404   6.091 -0.1732  0.0570  0.0920
   13BDTP    C737767   7.049   4.381   6.098 -0.1793 -0.0184  0.1653
   13BDTP    C837768   7.039   4.258   6.155 -0.2148  0.0092  0.2184
   13BDTP    S137769   6.867   4.206   6.182 -0.2306  0.0576  0.2127
   13BDTP    C937770   6.528   4.593   6.005 -0.1189  0.0503 -0.0181
   13BDTP   C1037771   6.538   4.715   5.948 -0.0832  0.0226 -0.0713
   13BDTP    S237772   6.710   4.767   5.921 -0.0676 -0.0256 -0.0654
   14FTM     S137773   7.094   4.645   5.821 -0.1293 -0.3064  0.2249
   14FTM     C137774   7.178   4.802   5.847 -0.0428 -0.2879 -0.1605
   14FTM     C237775   7.141   4.856   5.966  0.0242  0.0018 -0.2689
   14FTM     C337776   7.046   4.781   6.042  0.0128  0.2217 -0.0641
   14FTM     C437777   7.010   4.665   5.980 -0.0659  0.0962  0.2104
   14FTM     F137778   7.190   4.977   6.012  0.1000  0.0850 -0.5605
   14FTM     C537779   7.264   4.869   5.736  0.1448 -0.4708 -0.3193
   14FTM     C637780   7.389   4.805   5.675 -0.2448 -0.2564 -0.2350
   14FTM     C737781   7.498   4.766   5.773 -0.6927  0.3245 -0.4589
   14FTM     C837782   7.484   4.620   5.838  1.2089 -0.3451 -0.0839
   14FTM     C937783   7.597   4.582   5.925 -0.7061  0.6970 -0.3988
   14FTM    C1037784   7.554   4.491   6.040  0.2571  0.3659 -0.3015
   14FTM    C1137785   7.453   4.877   5.552 -0.0816  0.1793  0.6098
   14FTM    C1237786   7.364   4.914   5.428  0.2086 -0.3333  0.3868
   15FTM     S137787   6.451   4.347   6.259  0.0305  0.1166 -0.4342
   15FTM     C137788   6.364   4.193   6.223  0.3497 -0.1856  0.0612
   15FTM     C237789   6.428   4.126   6.124  0.7325 -0.5895  0.5684
   15FTM     C337790   6.546   4.189   6.071  0.7993 -0.6863  0.6021
   15FTM     C437791   6.573   4.307   6.132  0.4564 -0.3453  0.1044
   15FTM     F137792   6.384   4.004   6.075  1.0453 -0.8956  1.0326
   15FTM     C537793   6.256   4.139   6.309  0.4145  0.5438  0.0016
   15FTM     C637794   6.145   4.223   6.370  0.1853  0.5215  0.0888
   15FTM     C737795   6.051   4.132   6.445 -0.0905  0.2487 -0.0956
   15FTM     C837796   6.099   4.091   6.578  0.2524  0.2511 -0.6438
   15FTM     C937797   5.990   3.991   6.634 -0.3470 -0.3174  0.3556
   15FTM    C1037798   6.008   3.937   6.769 -0.3036 -0.6347 -0.7347
   15FTM    C1137799   6.083   4.334   6.292  0.2950  0.2313  0.5565
   15FTM    C1237800   6.008   4.289   6.162  0.0554 -0.0273  0.3824
   16TPM     C137801   6.437   4.815   5.920 -0.4080 -0.1490  0.5446
   16TPM     C237802   6.312   4.802   5.866 -0.4271 -0.0483  0.5639
   16TPM     C337803   6.253   4.927   5.826 -0.2649 -0.0168  0.4200
   16TPM     C437804   6.332   5.035   5.849 -0.1222 -0.0937  0.2911
   16TPM     S137805   6.489   4.988   5.923 -0.1820 -0.2126  0.3418
   17BDD     C137806   6.227   5.402   5.751  0.1147 -0.0722  0.0762
   17BDD     C237807   6.193   5.385   5.882  0.0412 -0.0631  0.0582
   17BDD     C337808   6.222   5.252   5.933 -0.0771 -0.0898  0.0564
   17BDD     C437809   6.278   5.170   5.839 -0.0921 -0.1191  0.0733
   17BDD     S137810   6.299   5.253   5.681  0.0408 -0.1152  0.0925
   17BDD     C537811   6.132   5.490   5.966  0.0772 -0.0291  0.0420
   17BDD     C637812   6.193   5.211   6.072 -0.1712 -0.0852  0.0381
   17BDD     O137813   6.218   5.097   6.115 -0.2733 -0.1084  0.0366
   17BDD     O237814   6.107   5.605   5.923  0.1793 -0.0058  0.0434
   17BDD     C737815   6.132   5.317   6.156 -0.1353 -0.0514  0.0219
   17BDD     C837816   6.103   5.450   6.105 -0.0168 -0.0247  0.0238
   17BDD     C937817   6.047   5.532   6.199 -0.0018  0.0048  0.0072
   17BDD     S237818   6.026   5.449   6.356 -0.1349  0.0010 -0.0121
   17BDD    C1037819   6.098   5.300   6.287 -0.2089 -0.0421  0.0041
   17BDD    C1137820   6.083   5.176   6.380  0.4255 -0.1456 -0.0559
   17BDD    C1237821   5.987   5.069   6.342  0.1564  0.5256 -0.5842
   17BDD    C1337822   6.002   4.924   6.399  0.2178  0.3274 -0.1468
   17BDD    C1437823   6.145   4.862   6.408  0.1997 -0.3417  0.3659
   17BDD    C1537824   6.138   4.714   6.433  0.1694 -0.5236 -0.2058
   17BDD    C1637825   6.274   4.645   6.427 -0.4671 -0.3866 -0.1823
   17BDD    C1737826   5.839   5.111   6.321  0.4532 -0.4726 -0.1597
   17BDD    C1837827   5.753   5.132   6.447  0.3367 -0.3716  0.0971
   17BDD    C1937828   5.999   5.674   6.189  0.5369 -0.4738 -0.1385
   17BDD    C2037829   6.109   5.781   6.181  1.0670 -0.0275  0.4789
   17BDD    C2137830   6.053   5.924   6.132 -0.0920 -0.0781  0.7502
   17BDD    C2237831   5.975   5.916   6.000 -0.1237  0.0926 -0.0416
   17BDD    C2337832   5.936   6.055   5.958  0.2887 -0.7921 -0.9530
   17BDD    C2437833   5.876   6.068   5.822 -0.2518 -0.0615 -0.0801
   17BDD    C2537834   6.204   5.793   6.300  0.0507  0.9687  0.3391
   17BDD    C2637835   6.329   5.887   6.293 -0.0335  0.0998 -0.0727
   18TPM     C137836   6.218   5.508   5.652 -0.0332  0.1836  0.2341
   18TPM     C237837   6.184   5.478   5.523 -0.0328  0.0700  0.2605
   18TPM     C337838   6.180   5.592   5.436 -0.0234 -0.0080  0.1574
   18TPM     C437839   6.211   5.710   5.498 -0.0169  0.0462  0.0522
   18TPM     S137840   6.247   5.685   5.673 -0.0219  0.2009  0.0758
   19BDTP    C137841   6.246   6.261   5.203  0.1258 -0.0641 -0.2093
   19BDTP    C237842   6.262   6.299   5.340  0.0914  0.0218 -0.2292
   19BDTP    C337843   6.259   6.207   5.444 -0.0019  0.0951 -0.1663
   19BDTP    C437844   6.241   6.071   5.412 -0.0641  0.0833 -0.0795
   19BDTP    C537845   6.225   6.033   5.276 -0.0297 -0.0029 -0.0596
   19BDTP    C637846   6.227   6.125   5.172  0.0636 -0.0762 -0.1225
   19BDTP    C737847   6.235   5.958   5.503 -0.1635  0.1491 -0.0032
   19BDTP    C837848   6.216   5.839   5.442 -0.2048  0.1171  0.0720
   19BDTP    S137849   6.203   5.853   5.261 -0.1237 -0.0011  0.0567
   19BDTP    C937850   6.252   6.374   5.113  0.2252 -0.1302 -0.2855
   19BDTP   C1037851   6.271   6.493   5.174  0.2666 -0.0981 -0.3608
   19BDTP    S237852   6.284   6.479   5.355  0.1853  0.0200 -0.3457
   20FTM     S137853   6.413   6.360   5.638  0.2607 -0.2761  0.2399
   20FTM     C137854   6.329   6.396   5.793  0.0518 -0.0627  0.0778
   20FTM     C237855   6.209   6.332   5.796 -0.0858  0.1795 -0.1198
   20FTM     C337856   6.177   6.252   5.681 -0.0384  0.2128 -0.1562
   20FTM     C437857   6.275   6.256   5.587  0.1413 -0.0110  0.0193
   20FTM     F137858   6.122   6.341   5.903 -0.2629  0.3852 -0.2793
   20FTM     C537859   6.384   6.515   5.872 -0.3480  0.2041  0.6996
   20FTM     C637860   6.372   6.653   5.802 -0.2666 -0.5969  0.3535
   20FTM     C737861   6.455   6.764   5.864 -0.0831 -0.1358 -0.5964
   20FTM     C837862   6.428   6.805   6.009 -0.3858  0.7281  0.3288
   20FTM     C937863   6.281   6.832   6.059  0.2308  0.0308  0.4044
   20FTM    C1037864   6.220   6.965   6.022 -0.0385  0.0406  0.3182
   20FTM    C1137865   6.239   6.695   5.735  0.7360  0.0736 -0.5620
   20FTM    C1237866   6.241   6.809   5.640  0.3678 -0.5714  0.4279
   21FTM     S137867   6.033   6.053   4.979 -0.1043 -0.1114 -0.0927
   21FTM     C137868   6.092   5.998   4.818 -0.1077 -0.1845 -0.0694
   21FTM     C237869   6.228   6.003   4.814 -0.1065 -0.2176 -0.0631
   21FTM     C337870   6.293   6.048   4.934 -0.1026 -0.1885 -0.0759
   21FTM     C437871   6.204   6.079   5.032 -0.1011 -0.1313 -0.0926
   21FTM     F137872   6.302   5.966   4.703 -0.1085 -0.2760 -0.0454
   21FTM     C537873   5.996   5.938   4.718 -0.0524  0.3799  0.0519
   21FTM     C637874   6.014   5.800   4.650 -0.3647 -0.6229 -0.1775
   21FTM     C737875   5.956   5.781   4.515 -0.7137 -0.1689  0.2898
   21FTM     C837876   5.990   5.860   4.392 -0.3326  0.2749 -0.2339
   21FTM     C937877   5.894   5.813   4.274 -1.2241  0.1064 -0.0947
   21FTM    C1037878   5.923   5.910   4.161 -0.1257  0.0645  0.4619
   21FTM    C1137879   6.020   5.697   4.755 -0.0786 -0.3887 -0.0683
   21FTM    C1237880   6.064   5.561   4.708  0.1839  0.0102 -0.0511
   22TPM     C137881   6.262   6.619   5.111 -0.1428 -0.1317  0.1839
   22TPM     C237882   6.305   6.740   5.157  0.0433 -0.2148  0.2308
   22TPM     C337883   6.284   6.848   5.063  0.4174 -0.1855  0.1805
   22TPM     C437884   6.226   6.809   4.946  0.5164 -0.0799  0.0950
   22TPM     S137885   6.192   6.632   4.945  0.1421 -0.0088  0.0715
   23BDD     C137886   6.211   7.140   4.731  0.3161  0.1409  0.0766
   23BDD     C237887   6.185   7.041   4.641  0.2360  0.1471  0.0925
   23BDD     C337888   6.187   6.908   4.699 -0.0290  0.1647  0.1469
   23BDD     C437889   6.215   6.908   4.833 -0.1473  0.1716  0.1713
   23BDD     S137890   6.240   7.075   4.895  0.0651  0.1569  0.1284
   23BDD     C537891   6.157   7.064   4.497  0.4003  0.1370  0.0585
   23BDD     C637892   6.162   6.786   4.620 -0.1552  0.1738  0.1721
   23BDD     O137893   6.164   6.671   4.671 -0.3837  0.1891  0.2189
   23BDD     O237894   6.155   7.179   4.447  0.6288  0.1218  0.0117
   23BDD     C737895   6.134   6.809   4.477  0.0091  0.1639  0.1379
   23BDD     C837896   6.132   6.942   4.418  0.2742  0.1463  0.0838
   23BDD     C937897   6.104   6.941   4.284  0.3924  0.1395  0.0590
   23BDD     S237898   6.079   6.775   4.223  0.1801  0.1544  0.1021
   23BDD    C1037899   6.108   6.709   4.387 -0.0708  0.1702  0.1538
   23BDD    C1137900   6.085   6.555   4.397 -0.5008  0.0147 -0.3763
   23BDD    C1237901   6.131   6.453   4.287 -0.4728  0.2510  0.7529
   23BDD    C1337902   6.095   6.306   4.308  0.4024  0.0897  0.6369
   23BDD    C1437903   5.955   6.258   4.351 -0.3607 -0.5133 -0.4163
   23BDD    C1537904   5.847   6.318   4.276  0.0910 -0.5675  0.5707
   23BDD    C1637905   5.711   6.259   4.320  0.1236  0.2427 -0.1862
   23BDD    C1737906   6.284   6.476   4.257  0.0026  1.2961 -0.7138
   23BDD    C1837907   6.345   6.417   4.126  0.0153 -0.0808 -0.8482
   23BDD    C1937908   6.091   7.040   4.170  0.4846 -0.3978  0.5862
   23BDD    C2037909   6.225   7.109   4.139 -0.0451  0.5820 -0.9369
   23BDD    C2137910   6.229   7.243   4.060 -0.0420 -0.1962  0.0382
   23BDD    C2237911   6.143   7.353   4.117 -0.2380  0.3701 -0.1236
   23BDD    C2337912   6.190   7.417   4.245 -0.3808 -0.1716 -0.4374
   23BDD    C2437913   6.107   7.537   4.295 -0.2732 -0.6931  0.1358
   23BDD    C2537914   6.337   7.014   4.090  0.1597  0.2446 -0.3985
   23BDD    C2637915   6.478   7.063   4.117 -0.1839  0.3252 -0.1586
   24TPM     C137916   6.221   7.287   4.735 -0.2321  0.2993  0.1373
   24TPM     C237917   6.262   7.362   4.628 -0.3233  0.2891  0.0951
   24TPM     C337918   6.273   7.502   4.656 -0.3005  0.2918  0.0715
   24TPM     C437919   6.241   7.535   4.784 -0.1916  0.3043  0.0957
   24TPM     S137920   6.193   7.390   4.880 -0.1090  0.3134  0.1507
   25BDTP    C137921   6.311   8.050   5.134 -0.1466  0.1216 -0.0185
   25BDTP    C237922   6.301   8.103   5.002 -0.2295  0.1318 -0.0082
   25BDTP    C337923   6.280   8.023   4.890 -0.3663  0.1469  0.0063
   25BDTP    C437924   6.268   7.884   4.909 -0.4245  0.1522  0.0106
   25BDTP    C537925   6.278   7.831   5.041 -0.3418  0.1421  0.0002
   25BDTP    C637926   6.299   7.911   5.153 -0.2048  0.1268 -0.0141
   25BDTP    C737927   6.246   7.782   4.809 -0.5638  0.1675  0.0249
   25BDTP    C837928   6.240   7.656   4.858 -0.5891  0.1692  0.0256
   25BDTP    S137929   6.260   7.649   5.039 -0.4404  0.1516  0.0086
   25BDTP    C937930   6.333   8.152   5.234 -0.0073  0.1063 -0.0328
   25BDTP   C1037931   6.339   8.278   5.185  0.0180  0.1044 -0.0336
   25BDTP    S237932   6.319   8.285   5.004 -0.1308  0.1223 -0.0166
   26FTM     S137933   6.367   8.033   4.620 -0.0408 -0.0133  0.2948
   26FTM     C137934   6.296   8.167   4.523 -0.0865 -0.0493  0.2785
   26FTM     C237935   6.213   8.241   4.600 -0.0029  0.0153  0.3064
   26FTM     C337936   6.199   8.200   4.737  0.0995  0.0951  0.3409
   26FTM     C437937   6.275   8.090   4.765  0.0940  0.0911  0.3399
   26FTM     F137938   6.144   8.352   4.552 -0.0139  0.0062  0.3020
   26FTM     C537939   6.331   8.169   4.379 -0.9540 -0.9695  0.7046
   26FTM     C637940   6.268   8.074   4.277 -0.0033 -0.1839  0.0882
   26FTM     C737941   6.318   8.073   4.127 -0.0196 -0.3981 -0.4621
   26FTM     C837942   6.464   8.027   4.122 -0.1954 -0.0288  0.4321
   26FTM     C937943   6.488   7.882   4.146  0.3324  0.2839 -0.1471
   26FTM    C1037944   6.630   7.840   4.125 -0.0341  0.4854  0.5482
   26FTM    C1137945   6.111   8.069   4.283  0.0266  0.1179 -0.1060
   26FTM    C1237946   6.035   7.949   4.222  0.2864  0.2166  0.7623
   27FTM     S137947   6.471   7.740   5.309 -0.0983  0.4048  0.0555
   27FTM     C137948   6.450   7.748   5.488 -0.4086  0.0922  0.0360
   27FTM     C237949   6.346   7.830   5.519 -0.5240 -0.0387 -0.0037
   27FTM     C337950   6.277   7.890   5.408 -0.3816  0.0931 -0.0206
   27FTM     C437951   6.331   7.853   5.288 -0.1494  0.3324  0.0066
   27FTM     F137952   6.306   7.856   5.649 -0.7654 -0.2855 -0.0267
   27FTM     C537953   6.559   7.699   5.574  0.1016  0.3957 -0.2166
   27FTM     C637954   6.583   7.551   5.608 -0.5383  0.9690 -0.3230
   27FTM     C737955   6.714   7.545   5.693 -0.1968  1.3681 -0.2656
   27FTM     C837956   6.848   7.588   5.624 -0.5934 -0.6160  0.3448
   27FTM     C937957   6.963   7.606   5.719 -0.2165 -0.0708 -0.3127
   27FTM    C1037958   7.093   7.601   5.638  0.1696 -0.0794 -0.0978
   27FTM    C1137959   6.455   7.468   5.650  0.1624 -0.0989  0.2121
   27FTM    C1237960   6.478   7.323   5.650 -0.4266  0.0699 -0.1133
   28TPM     C137961   6.360   8.406   5.261  0.5620  0.0514  0.0786
   28TPM     C237962   6.387   8.421   5.394  0.5342  0.2010  0.0678
   28TPM     C337963   6.429   8.554   5.430  0.0799  0.3657  0.0039
   28TPM     C437964   6.434   8.640   5.325 -0.2388  0.3417 -0.0343
   28TPM     S137965   6.386   8.560   5.170  0.0121  0.1073  0.0081
   29BDD     C137966   6.670   8.944   5.245  0.0904  0.0161 -0.0819
   29BDD     C237967   6.623   8.970   5.371  0.1001 -0.0005 -0.0747
   29BDD     C337968   6.534   8.866   5.422  0.1878 -0.0584 -0.0396
   29BDD     C437969   6.515   8.763   5.334  0.2438 -0.0853 -0.0203
   29BDD     S137970   6.607   8.788   5.182  0.1904 -0.0396 -0.0448
   29BDD     C537971   6.657   9.091   5.449  0.0288  0.0360 -0.1000
   29BDD     C637972   6.472   8.874   5.556  0.2128 -0.0854 -0.0263
   29BDD     O137973   6.396   8.785   5.600  0.2885 -0.1349  0.0039
   29BDD     O237974   6.733   9.180   5.405 -0.0468  0.0858 -0.1303
   29BDD     C737975   6.506   8.995   5.634  0.1417 -0.0486 -0.0516
   29BDD     C837976   6.595   9.098   5.583  0.0540  0.0093 -0.0867
   29BDD     C937977   6.613   9.201   5.670 -0.0020  0.0358 -0.1060
   29BDD     S237978   6.522   9.176   5.822  0.0512 -0.0096 -0.0814
   29BDD    C1037979   6.459   9.020   5.759  0.1513 -0.0653 -0.0446
   29BDD    C1137980   6.374   8.946   5.861 -0.5863  0.1451 -0.1064
   29BDD    C1237981   6.459   8.892   5.982  0.5684  0.2848  0.2897
   29BDD    C1337982   6.384   8.875   6.114  0.5307 -0.2813 -0.0304
   29BDD    C1437983   6.473   8.867   6.240  0.0761  0.5023 -1.1185
   29BDD    C1537984   6.573   8.981   6.257 -0.6358 -0.0195 -0.4867
   29BDD    C1637985   6.626   9.004   6.393 -0.7379  0.0470 -0.2768
   29BDD    C1737986   6.567   8.786   5.944  0.8432 -0.4246  0.3522
   29BDD    C1837987   6.527   8.643   5.907  0.3476 -0.1062 -0.0735
   29BDD    C1937988   6.698   9.329   5.663  0.4676  0.9186 -0.4946
   29BDD    C2037989   6.622   9.463   5.656  0.1814 -0.1287  0.5012
   29BDD    C2137990   6.508   9.472   5.544 -0.0058 -0.4481  0.0605
   29BDD    C2237991   6.539   9.455   5.394 -0.0951  0.1373 -1.0022
   29BDD    C2337992   6.671   9.506   5.328 -0.0405 -0.5600 -0.0222
   29BDD    C2437993   6.669   9.484   5.176  0.1671  0.4023 -0.5743
   29BDD    C2537994   6.715   9.580   5.675  0.1472 -0.8398 -0.4347
   29BDD    C2637995   6.645   9.723   5.694 -0.0036 -0.6094 -0.0600
   30TPM     C137996   6.771   8.998   5.151 -0.1938  0.5497 -0.3437
   30TPM     C237997   6.805   9.130   5.138  0.3790  0.3846 -0.5796
   30TPM     C337998   6.902   9.154   5.035  0.6348 -0.2453 -0.4951
   30TPM     C437999   6.943   9.041   4.970  0.2574 -0.5609 -0.1946
   30TPM     S138000   6.861   8.894   5.034 -0.4563 -0.0826  0.0064
   31BDTP    C138001   7.424   8.914   4.583  0.1029  0.0293  0.0739
   31BDTP    C238002   7.391   9.048   4.546 -0.0573 -0.0250  0.0188
   31BDTP    C338003   7.287   9.119   4.605 -0.1318 -0.1187  0.0014
   31BDTP    C438004   7.213   9.055   4.706 -0.0441 -0.1602  0.0399
   31BDTP    C538005   7.246   8.922   4.744  0.1162 -0.1056  0.0951
   31BDTP    C638006   7.349   8.851   4.684  0.1906 -0.0120  0.1126
   31BDTP    C738007   7.101   9.109   4.782 -0.0957 -0.2558  0.0316
   31BDTP    C838008   7.050   9.023   4.873  0.0167 -0.2754  0.0770
   31BDTP    S138009   7.135   8.862   4.876  0.2036 -0.1752  0.1370
   31BDTP    C938010   7.535   8.861   4.507  0.1545  0.1249  0.0824
   31BDTP   C1038011   7.587   8.947   4.416  0.0422  0.1442  0.0370
   31BDTP    S238012   7.501   9.108   4.413 -0.1449  0.0444 -0.0230
   32FTM     S138013   7.233   9.281   4.378  0.0124 -0.3936  0.1465
   32FTM     C138014   7.192   9.453   4.411  0.6037 -0.2032 -0.0819
   32FTM     C238015   7.191   9.475   4.545  0.4737 -0.0744 -0.1037
   32FTM     C338016   7.222   9.362   4.628 -0.0802 -0.1149  0.0522
   32FTM     C438017   7.247   9.250   4.555 -0.3843 -0.2801  0.1979
   32FTM     F138018   7.163   9.599   4.601  0.8485  0.0875 -0.2660
   32FTM     C538019   7.157   9.538   4.288 -0.7477 -0.5270 -0.0361
   32FTM     C638020   7.249   9.657   4.245 -0.1354 -0.4142  0.0582
   32FTM     C738021   7.215   9.788   4.319  0.2095  0.3223  0.0296
   32FTM     C838022   7.087   9.852   4.270 -0.1676  0.4161  0.0409
   32FTM     C938023   7.052   9.970   4.352 -0.0844  0.0750 -0.4479
   32FTM    C1038024   6.928  10.044   4.300 -0.7929  0.8243  0.0442
   32FTM    C1138025   7.398   9.634   4.241 -0.4220 -0.8056  0.9582
   32FTM    C1238026   7.490   9.739   4.179  0.6985 -0.1014 -0.1295
   33FTM     S138027   7.244   8.571   4.683  0.2509 -0.1144 -0.1696
   33FTM     C138028   7.363   8.452   4.748  0.1731  0.0202  0.2277
   33FTM     C238029   7.477   8.516   4.785 -0.0563  0.1612  0.6946
   33FTM     C338030   7.479   8.658   4.767 -0.1824  0.1724  0.7701
   33FTM     C438031   7.362   8.704   4.713 -0.0451  0.0362  0.3470
   33FTM     F138032   7.586   8.450   4.839 -0.1655  0.2878  1.0816
   33FTM     C538033   7.317   8.304   4.744  0.0812 -0.3468 -0.2637
   33FTM     C638034   7.199   8.259   4.834 -0.7207 -0.1529  0.6019
   33FTM     C738035   7.222   8.284   4.983 -0.1375 -0.2963 -0.2980
   33FTM     C838036   7.340   8.226   5.058  0.3363 -0.0503  0.4978
   33FTM     C938037   7.364   8.078   5.034  0.1289 -0.6420 -0.4363
   33FTM    C1038038   7.461   8.027   5.138  0.1871  0.1121  0.6582
   33FTM    C1138039   7.056   8.287   4.781  0.4836 -0.4016 -0.2225
   33FTM    C1238040   7.006   8.212   4.656 -0.4258 -0.8503  0.6602
   34TPM     C138041   7.679   8.913   4.307  0.2668  0.1963  0.0314
   34TPM     C238042   7.708   8.971   4.187  0.1937  0.0405 -0.0625
   34TPM     C338043   7.814   8.906   4.115 -0.0013 -0.1874 -0.1454
   34TPM     C438044   7.866   8.798   4.180 -0.0768 -0.2052 -0.1147
   34TPM     S138045   7.785   8.770   4.338  0.0938  0.0662  0.0223
   35BDD     C138046   8.052   8.478   4.056 -0.2032  0.1488  0.0549
   35BDD     C238047   8.127   8.582   4.010 -0.1671  0.1237  0.0564
   35BDD     C338048   8.071   8.712   4.043 -0.1507  0.1421  0.0113
   35BDD     C438049   7.955   8.705   4.114 -0.1748  0.1808 -0.0240
   35BDD     S138050   7.907   8.535   4.145 -0.2196  0.1972 -0.0031
   35BDD     C538051   8.252   8.566   3.933 -0.1459  0.0815  0.0992
   35BDD     C638052   8.136   8.839   4.002 -0.1121  0.1202  0.0048
   35BDD     O138053   8.088   8.951   4.030 -0.0982  0.1359 -0.0342
   35BDD     O238054   8.299   8.454   3.904 -0.1597  0.0656  0.1380
   35BDD     C738055   8.261   8.823   3.925 -0.0908  0.0780  0.0477
   35BDD     C838056   8.316   8.693   3.892 -0.1070  0.0596  0.0927
   35BDD     C938057   8.432   8.700   3.820 -0.0830  0.0203  0.1280
   35BDD     S238058   8.481   8.870   3.790 -0.0382  0.0043  0.1071
   35BDD    C1038059   8.336   8.927   3.878 -0.0548  0.0525  0.0492
   35BDD    C1138060   8.330   9.075   3.912 -0.1038 -0.6680 -0.2536
   35BDD    C1238061   8.448   9.131   3.994 -0.3799 -0.0873  0.0802
   35BDD    C1338062   8.495   9.057   4.119  0.3534  0.1185  0.1277
   35BDD    C1438063   8.618   9.104   4.200 -0.0388  0.0445 -0.0522
   35BDD    C1538064   8.657   9.030   4.329 -0.1309  0.5132 -0.7599
   35BDD    C1638065   8.705   8.880   4.317  0.3632  0.3988  0.9375
   35BDD    C1738066   8.427   9.283   4.019 -0.6809 -0.0934  0.2288
   35BDD    C1838067   8.405   9.381   3.907 -0.0374 -0.4018 -0.0250
   35BDD    C1938068   8.527   8.600   3.761 -0.1459  0.4729  0.9503
   35BDD    C2038069   8.680   8.603   3.794 -0.4728 -0.1136 -0.5659
   35BDD    C2138070   8.716   8.641   3.944 -0.0540 -0.7154 -0.2981
   35BDD    C2238071   8.865   8.660   3.982  0.0066 -0.8027  0.5079
   35BDD    C2338072   8.953   8.772   3.927  0.1283 -0.2052 -0.2200
   35BDD    C2438073   8.922   8.914   3.968  0.0199 -0.1208  0.2698
   35BDD    C2538074   8.762   8.484   3.730 -0.1221 -0.4366 -0.1067
   35BDD    C2638075   8.751   8.345   3.799 -0.6842  0.2932  0.4613
   36TPM     C138076   8.059   8.328   4.061  0.5880 -0.0811  0.7285
   36TPM     C238077   8.179   8.265   4.072  0.4535 -0.2866  1.0312
   36TPM     C338078   8.168   8.128   4.117  0.0572 -0.4568  0.4442
   36TPM     C438079   8.040   8.088   4.140 -0.1101 -0.3817 -0.3059
   36TPM     S138080   7.922   8.220   4.106  0.2224 -0.0871 -0.3293
   37BDTP    C138081   7.884   7.553   4.434 -0.6310 -0.1781 -0.1290
   37BDTP    C238082   7.940   7.506   4.311 -0.6232 -0.2829 -0.0852
   37BDTP    C338083   7.988   7.592   4.213 -0.5388 -0.3687 -0.1191
   37BDTP    C438084   7.980   7.730   4.235 -0.4578 -0.3505 -0.2000
   37BDTP    C538085   7.924   7.777   4.358 -0.4653 -0.2457 -0.2437
   37BDTP    C638086   7.876   7.692   4.456 -0.5500 -0.1599 -0.2098
   37BDTP    C738087   8.022   7.838   4.148 -0.3628 -0.4267 -0.2480
   37BDTP    C838088   8.001   7.962   4.198 -0.2995 -0.3848 -0.3245
   37BDTP    S138089   7.924   7.960   4.363 -0.3512 -0.2428 -0.3468
   37BDTP    C938090   7.842   7.446   4.521 -0.7261 -0.1018 -0.0809
   37BDTP   C1038091   7.863   7.322   4.471 -0.7895 -0.1436 -0.0043
   37BDTP    S238092   7.940   7.324   4.306 -0.7374 -0.2857  0.0180
   38FTM     S138093   7.974   7.607   3.928 -0.1307  0.0453 -0.1458
   38FTM     C138094   8.083   7.500   3.833 -0.0531 -0.0025 -0.0037
   38FTM     C238095   8.163   7.429   3.916  0.0181  0.1869  0.0899
   38FTM     C338096   8.145   7.453   4.057  0.0167  0.3763  0.0578
   38FTM     C438097   8.047   7.545   4.081 -0.0581  0.3303 -0.0646
   38FTM     F138098   8.257   7.338   3.871  0.0889  0.2003  0.2104
   38FTM     C538099   8.084   7.498   3.685  0.2595 -0.2882 -0.4477
   38FTM     C638100   8.148   7.615   3.611  0.0569  0.1264 -0.0701
   38FTM     C738101   8.301   7.645   3.613  0.7659 -0.0627  0.1004
   38FTM     C838102   8.365   7.686   3.748 -0.1460  0.1539  0.0080
   38FTM     C938103   8.325   7.826   3.782 -0.2762 -0.1428 -0.8578
   38FTM    C1038104   8.362   7.863   3.931  0.3670 -0.0094 -0.5393
   38FTM    C1138105   8.078   7.633   3.476 -0.3668  0.2962  0.3323
   38FTM    C1238106   8.102   7.756   3.387  0.2474 -0.0948 -0.5979
   39FTM     S138107   7.957   7.865   4.677  0.0787  0.0304 -0.0242
   39FTM     C138108   7.837   7.880   4.810 -0.0534  0.1293 -0.1544
   39FTM     C238109   7.729   7.801   4.785 -0.0794  0.1966 -0.2576
   39FTM     C338110   7.734   7.725   4.664 -0.0001  0.1762 -0.2420
   39FTM     C438111   7.848   7.747   4.593  0.0896  0.0902 -0.1231
   39FTM     F138112   7.620   7.792   4.870 -0.1767  0.2809 -0.3724
   39FTM     C538113   7.859   7.968   4.929  0.3575 -0.4061 -0.5587
   39FTM     C638114   7.835   8.120   4.927  0.4400 -0.4442  0.1113
   39FTM     C738115   7.910   8.205   4.816 -0.5550  0.4826 -0.1170
   39FTM     C838116   7.872   8.196   4.666 -0.0260  0.0038  0.2650
   39FTM     C938117   7.737   8.259   4.637  0.1765  0.8595 -0.0511
   39FTM    C1038118   7.678   8.218   4.502  0.4809  0.2616  0.0838
   39FTM    C1138119   7.823   8.167   5.080 -0.1330  0.4255  0.2348
   39FTM    C1238120   7.782   8.318   5.103  0.0297 -0.1095  0.1756
   40TPM     C138121   7.833   7.203   4.537  0.0501  0.4148 -0.2424
   40TPM     C238122   7.814   7.088   4.466  0.0486  0.7114 -0.7390
   40TPM     C338123   7.734   6.990   4.536  0.1152  0.3808 -1.1194
   40TPM     C438124   7.691   7.031   4.659  0.1676 -0.1682 -0.9128
   40TPM     S138125   7.750   7.197   4.697  0.1367 -0.3109 -0.2164
   41BDD     C138126   7.599   6.788   4.959  0.1029 -0.2491 -0.0879
   41BDD     C238127   7.481   6.817   4.896  0.0913 -0.1688 -0.0292
   41BDD     C338128   7.497   6.905   4.782  0.0701 -0.0204  0.0817
   41BDD     C438129   7.627   6.942   4.759  0.0656  0.0101  0.1058
   41BDD     S138130   7.738   6.869   4.879  0.0879 -0.1451 -0.0086
   41BDD     C538131   7.349   6.765   4.939  0.0993 -0.2251 -0.0725
   41BDD     C638132   7.383   6.950   4.699  0.0548  0.0861  0.1597
   41BDD     O138133   7.397   7.026   4.601  0.0365  0.2141  0.2552
   41BDD     O238134   7.335   6.689   5.037  0.1177 -0.3531 -0.1680
   41BDD     C738135   7.251   6.898   4.742  0.0628  0.0296  0.1161
   41BDD     C838136   7.235   6.810   4.856  0.0840 -0.1187  0.0054
   41BDD     C938137   7.105   6.773   4.879  0.0883 -0.1493 -0.0186
   41BDD     S238138   6.994   6.847   4.758  0.0663  0.0060  0.0959
   41BDD    C1038139   7.133   6.928   4.679  0.0513  0.1101  0.1751
   41BDD    C1138140   7.100   7.003   4.553  0.0984 -0.0789 -0.8630
   41BDD    C1238141   7.038   7.145   4.554 -0.1509 -0.0041  0.4693
   41BDD    C1338142   7.021   7.200   4.412 -0.0746 -0.4196  0.0472
   41BDD    C1438143   6.956   7.119   4.298 -0.1494  0.1208 -0.2794
   41BDD    C1538144   6.924   7.205   4.175  0.6774 -0.1344  0.3935
   41BDD    C1638145   6.866   7.122   4.055 -0.4756 -0.4808 -0.5624
   41BDD    C1738146   7.095   7.254   4.649  0.7280  0.4060  0.4507
   41BDD    C1838147   7.008   7.377   4.673 -0.0065 -0.5209  0.4502
   41BDD    C1938148   7.031   6.678   4.968  0.7394 -0.0189  0.0433
   41BDD    C2038149   7.055   6.530   4.932 -0.3423  0.1932 -0.5502
   41BDD    C2138150   7.035   6.481   4.784 -0.1664 -0.1748 -0.4660
   41BDD    C2238151   6.904   6.501   4.712  0.6707 -1.2224  0.8157
   41BDD    C2338152   6.911   6.486   4.560 -0.6773 -0.4724 -0.3577
   41BDD    C2438153   7.004   6.584   4.476  0.0353 -0.1506 -0.6206
   41BDD    C2538154   6.981   6.446   5.039  0.4447 -0.9073 -0.5010
   41BDD    C2638155   7.031   6.296   5.058  0.2782 -0.2646 -0.7454
   42TPM     C138156   7.647   6.706   5.073  0.2834 -0.3835  0.1739
   42TPM     C238157   7.736   6.756   5.164  0.8706 -0.8535 -0.1321
   42TPM     C338158   7.751   6.675   5.282  1.2010 -1.1659 -0.3812
   42TPM     C438159   7.672   6.564   5.282  0.8659 -0.9342 -0.2652
   42TPM     S138160   7.574   6.552   5.131  0.1009 -0.2985  0.1711
   43BDTP    C138161   7.738   6.134   5.735 -0.0052  0.0564  0.1507
   43BDTP    C238162   7.606   6.108   5.687  0.0298 -0.0639  0.1202
   43BDTP    C338163   7.549   6.179   5.582 -0.0210 -0.0991  0.1237
   43BDTP    C438164   7.625   6.281   5.522 -0.1103 -0.0117  0.1589
   43BDTP    C538165   7.756   6.307   5.570 -0.1453  0.1086  0.1893
   43BDTP    C638166   7.813   6.236   5.675 -0.0947  0.1437  0.1859
   43BDTP    C738167   7.587   6.368   5.413 -0.1754 -0.0268  0.1694
   43BDTP    C838168   7.682   6.457   5.377 -0.2567  0.0750  0.2058
   43BDTP    S138169   7.833   6.444   5.477 -0.2621  0.2041  0.2320
   43BDTP    C938170   7.776   6.047   5.844  0.0598  0.0713  0.1403
   43BDTP   C1038171   7.680   5.958   5.880  0.1413 -0.0303  0.1037
   43BDTP    S238172   7.529   5.971   5.780  0.1463 -0.1594  0.0776
   44FTM     S138173   7.279   6.248   5.623  0.2577  0.2195 -0.3458
   44FTM     C138174   7.167   6.207   5.488  0.2746 -0.2814 -0.2095
   44FTM     C238175   7.233   6.135   5.394  0.3560 -0.4026 -0.0616
   44FTM     C338176   7.371   6.108   5.419  0.4089 -0.1200 -0.0458
   44FTM     C438177   7.413   6.161   5.537  0.3665  0.2287 -0.1859
   44FTM     F138178   7.171   6.088   5.278  0.3874 -0.7764  0.0679
   44FTM     C538179   7.024   6.242   5.506  0.1303 -0.1593  0.4067
   44FTM     C638180   6.983   6.385   5.517  1.1706  0.4696 -0.1617
   44FTM     C738181   7.040   6.489   5.415 -0.0109  0.5726 -0.2977
   44FTM     C838182   7.172   6.552   5.440 -0.2574  0.4791  0.0617
   44FTM     C938183   7.218   6.657   5.340  0.0965 -0.4478 -0.1430
   44FTM    C1038184   7.347   6.721   5.382  0.2791  0.2298  0.2134
   44FTM    C1138185   6.832   6.385   5.545  0.5298  0.3246 -0.4120
   44FTM    C1238186   6.770   6.514   5.605 -0.3740  0.6813  0.0439
   45FTM     S138187   8.069   6.140   5.761  0.1346  0.0799  0.1113
   45FTM     C138188   8.190   6.262   5.814  0.0670  0.1004  0.2198
   45FTM     C238189   8.137   6.387   5.808  0.0103  0.0796  0.2955
   45FTM     C338190   8.001   6.395   5.762  0.0150  0.0474  0.2739
   45FTM     C438191   7.949   6.273   5.733  0.0782  0.0435  0.1790
   45FTM     F138192   8.207   6.501   5.843 -0.0501  0.0886  0.3885
   45FTM     C538193   8.322   6.205   5.861 -0.1926 -0.3468  0.1451
   45FTM     C638194   8.456   6.191   5.781 -0.3147  0.1300 -0.0702
   45FTM     C738195   8.571   6.146   5.880  0.2483  0.0387 -0.2179
   45FTM     C838196   8.549   6.029   5.977 -0.1252 -0.2192 -0.4606
   45FTM     C938197   8.519   5.895   5.911 -0.1557 -0.6767 -0.4903
   45FTM    C1038198   8.632   5.818   5.846 -0.3856  0.2978  0.4981
   45FTM    C1138199   8.434   6.098   5.645 -0.4274 -0.6743 -0.7762
   45FTM    C1238200   8.559   6.113   5.561 -0.2208  0.1189 -0.0252
   46TPM     C138201   7.681   5.866   5.987 -0.1636 -0.0668 -0.0453
   46TPM     C238202   7.760   5.871   6.098 -0.0293 -0.1491 -0.1349
   46TPM     C338203   7.732   5.767   6.193  0.0415 -0.1817 -0.1493
   46TPM     C438204   7.632   5.682   6.155 -0.0389 -0.1239 -0.0705
   46TPM     S138205   7.565   5.728   5.993 -0.2113 -0.0234  0.0285
   47BDD     C138206   7.588   5.412   6.436  0.1559 -0.0082  0.1174
   47BDD     C238207   7.466   5.415   6.373  0.1600 -0.0166  0.1096
   47BDD     C338208   7.462   5.506   6.260  0.1957 -0.1022  0.0387
   47BDD     C438209   7.580   5.572   6.239  0.2186 -0.1577 -0.0064
   47BDD     S138210   7.705   5.524   6.359  0.1969 -0.1067  0.0366
   47BDD     C538211   7.350   5.333   6.414  0.1308  0.0534  0.1669
   47BDD     C638212   7.341   5.525   6.178  0.2059 -0.1256  0.0184
   47BDD     O138213   7.337   5.603   6.080  0.2367 -0.1993 -0.0428
   47BDD     O238214   7.354   5.254   6.511  0.1000  0.1271  0.2279
   47BDD     C738215   7.225   5.443   6.219  0.1769 -0.0554  0.0756
   47BDD     C838216   7.229   5.352   6.331  0.1410  0.0299  0.1464
   47BDD     C938217   7.111   5.286   6.353  0.1183  0.0852  0.1915
   47BDD     S238218   6.986   5.334   6.233  0.1399  0.0343  0.1484
   47BDD    C1038219   7.103   5.446   6.155  0.1808 -0.0641  0.0676
   47BDD    C1138220   7.044   5.516   6.038 -0.3938  0.1342  0.1272
   47BDD    C1238221   6.985   5.659   6.036  0.0509 -0.8124  0.8351
   47BDD    C1338222   6.952   5.733   5.903  0.1922 -0.3362  0.0858
   47BDD    C1438223   7.049   5.739   5.781  0.1062  0.0368 -0.5660
   47BDD    C1538224   7.000   5.832   5.670  0.2188  0.0784 -0.0633
   47BDD    C1638225   7.091   5.830   5.546  0.3585 -0.0411 -0.1548
   47BDD    C1738226   6.882   5.678   6.144  0.4053 -0.4342  0.4883
   47BDD    C1838227   6.842   5.821   6.182 -0.2948  0.2893 -0.3840
   47BDD    C1938228   7.069   5.159   6.425 -0.1841 -0.4035  0.0125
   47BDD    C2038229   7.009   5.172   6.563  0.6526 -0.5525  0.1874
   47BDD    C2138230   6.981   5.038   6.633 -0.1720 -0.9964 -0.4012
   47BDD    C2238231   7.093   4.943   6.658  0.3107  0.3038  0.2855
   47BDD    C2338232   7.065   4.824   6.746  0.1125  0.7050 -0.0396
   47BDD    C2438233   7.178   4.719   6.755  0.3634  0.8072  0.3498
   47BDD    C2538234   6.891   5.270   6.561 -0.0210  0.0699  0.7815
   47BDD    C2638235   6.824   5.321   6.687  0.1476 -0.0190 -0.1279
   48TPM     C138236   7.644   5.354   6.556  0.0286 -0.1600  0.0264
   48TPM     C238237   7.642   5.219   6.580 -0.5325 -0.1031  0.3343
   48TPM     C338238   7.718   5.180   6.696 -0.5646 -0.1708  0.3321
   48TPM     C438239   7.778   5.284   6.760 -0.0282 -0.2794  0.0229
   48TPM     S138240   7.743   5.441   6.679  0.5638 -0.3047 -0.2923
   49BDTP    C138241   8.154   5.287   7.265  0.1874  0.2474  0.1382
   49BDTP    C238242   8.174   5.156   7.213  0.1717  0.2470  0.1329
   49BDTP    C338243   8.107   5.109   7.100  0.1519  0.2526  0.1425
   49BDTP    C438244   8.016   5.194   7.037  0.1471  0.2592  0.1577
   49BDTP    C538245   7.996   5.326   7.089  0.1626  0.2595  0.1632
   49BDTP    C638246   8.063   5.373   7.201  0.1827  0.2537  0.1538
   49BDTP    C738247   7.935   5.168   6.919  0.1275  0.2659  0.1698
   49BDTP    C838248   7.856   5.271   6.881  0.1277  0.2711  0.1837
   49BDTP    S138249   7.873   5.417   6.989  0.1526  0.2682  0.1837
   49BDTP    C938250   8.235   5.314   7.382  0.2072  0.2404  0.1265
   49BDTP   C1038251   8.314   5.210   7.420  0.2069  0.2353  0.1124
   49BDTP    S238252   8.297   5.065   7.312  0.1818  0.2381  0.1125
   50FTM     S138253   8.215   4.949   6.880 -0.1833 -0.0615  0.1825
   50FTM     C138254   8.223   4.771   6.907  0.2645 -0.0356  0.2329
   50FTM     C238255   8.175   4.741   7.031  0.3879 -0.1160  0.2613
   50FTM     C338256   8.131   4.852   7.110  0.1476 -0.2006  0.2459
   50FTM     C438257   8.145   4.971   7.045 -0.1705 -0.1842  0.2044
   50FTM     F138258   8.169   4.611   7.080  0.7257 -0.1180  0.3027
   50FTM     C538259   8.271   4.678   6.796  0.4547  0.4161 -0.5019
   50FTM     C638260   8.417   4.664   6.761 -0.3163  0.1843 -0.1078
   50FTM     C738261   8.443   4.585   6.631 -0.0548  0.1930 -0.2889
   50FTM     C838262   8.414   4.639   6.493  0.3405 -0.7611  0.0203
   50FTM     C938263   8.500   4.749   6.440 -0.0515  0.5861 -0.0524
   50FTM    C1038264   8.644   4.712   6.408 -0.1032  0.4000  0.1780
   50FTM    C1138265   8.495   4.629   6.892 -0.2260  0.2122  0.4940
   50FTM    C1238266   8.644   4.616   6.891  0.0236 -0.0381  0.0815
   51FTM     S138267   8.148   5.641   7.274 -0.2230  0.1243  0.0042
   51FTM     C138268   8.020   5.751   7.337 -0.1670  0.0868  0.1841
   51FTM     C238269   7.900   5.686   7.341 -0.1398  0.0457  0.3692
   51FTM     C338270   7.901   5.550   7.296 -0.1603  0.0411  0.3822
   51FTM     C438271   8.025   5.510   7.256 -0.2049  0.0800  0.2010
   51FTM     F138272   7.783   5.746   7.385 -0.0947  0.0097  0.5380
   51FTM     C538273   8.056   5.877   7.402 -0.6573  0.1718  0.4366
   51FTM     C638274   8.065   6.012   7.326 -0.3184  0.5060  0.3880
   51FTM     C738275   8.121   6.137   7.393 -0.2484 -0.4548  0.6139
   51FTM     C838276   8.250   6.121   7.469  0.3169  0.1373 -0.1708
   51FTM     C938277   8.275   6.248   7.540  0.3805 -0.5739  0.2020
   51FTM    C1038278   8.395   6.230   7.630  0.0935 -0.0029 -0.2745
   51FTM    C1138279   7.934   6.046   7.250 -0.2095 -0.4629 -0.1661
   51FTM    C1238280   7.941   6.161   7.141 -0.0698  0.2862  0.4043
   52TPM     C138281   8.405   5.203   7.528  0.0375  0.0933  0.1892
   52TPM     C238282   8.487   5.298   7.581 -0.2432  0.1876  0.4649
   52TPM     C338283   8.580   5.247   7.678 -0.3862  0.2605  0.6402
   52TPM     C438284   8.568   5.113   7.700 -0.2144  0.2217  0.4980
   52TPM     S138285   8.438   5.040   7.599  0.1441  0.0890  0.1289
   53BDD     C138286   8.785   4.818   7.844  0.0594  0.0116  0.0369
   53BDD     C238287   8.795   4.918   7.936  0.0145  0.0337  0.0172
   53BDD     C338288   8.726   5.040   7.896 -0.0064  0.0083 -0.0241
   53BDD     C438289   8.664   5.030   7.774  0.0224 -0.0333 -0.0353
   53BDD     S138290   8.689   4.868   7.701  0.0782 -0.0432  0.0051
   53BDD     C538291   8.867   4.907   8.064 -0.0103  0.0794  0.0358
   53BDD     C638292   8.723   5.161   7.980 -0.0544  0.0260 -0.0511
   53BDD     O138293   8.663   5.266   7.945 -0.0725  0.0041 -0.0869
   53BDD     O238294   8.927   4.802   8.098  0.0079  0.1014  0.0710
   53BDD     C738295   8.796   5.150   8.108 -0.0792  0.0714 -0.0327
   53BDD     C838296   8.865   5.028   8.148 -0.0582  0.0970  0.0088
   53BDD     C938297   8.926   5.038   8.270 -0.0868  0.1384  0.0198
   53BDD     S238298   8.901   5.200   8.343 -0.1423  0.1483 -0.0207
   53BDD    C1038299   8.805   5.250   8.200 -0.1235  0.0938 -0.0525
   53BDD    C1138300   8.736   5.384   8.206  0.9600  0.0377 -0.1838
   53BDD    C1238301   8.823   5.506   8.256 -0.0964 -0.1328 -0.5877
   53BDD    C1338302   8.749   5.637   8.302  0.0327  0.1467 -0.0553
   53BDD    C1438303   8.648   5.626   8.409  0.7323  0.2705 -0.5105
   53BDD    C1538304   8.702   5.620   8.553 -0.1493 -0.2295  0.2688
   53BDD    C1638305   8.597   5.652   8.654  0.3001  0.4705  0.4147
   53BDD    C1738306   8.947   5.528   8.165 -0.3105  0.4151 -0.0093
   53BDD    C1838307   9.074   5.586   8.229  0.2418 -0.4705  0.6087
   53BDD    C1938308   8.987   4.939   8.366 -0.3893 -0.0699  0.2915
   53BDD    C2038309   9.122   4.989   8.422 -0.1052  0.6150 -0.5738
   53BDD    C2138310   9.227   5.025   8.313 -0.1775  0.0175  0.6760
   53BDD    C2238311   9.363   5.080   8.351 -0.2519  0.5069 -0.1794
   53BDD    C2338312   9.371   5.219   8.415  0.8986  0.3034 -0.4034
   53BDD    C2438313   9.308   5.331   8.341  0.2596 -0.1692  0.2733
   53BDD    C2538314   9.179   4.889   8.526  0.5159  0.0110  0.2699
   53BDD    C2638315   9.244   4.760   8.481 -0.2476  0.4218  0.8013
   54TPM     C138316   8.811   4.676   7.838  0.1201  0.1382  0.0083
   54TPM     C238317   8.936   4.639   7.878  0.2477  0.2345 -0.2899
   54TPM     C338318   8.979   4.511   7.828  0.2501  0.2950 -0.4413
   54TPM     C438319   8.886   4.450   7.748  0.1244  0.2451 -0.2584
   54TPM     S138320   8.737   4.550   7.731 -0.0078  0.1166  0.1221
   55BDTP    C138321   8.975   3.921   7.420  0.2186  0.0116  0.2027
   55BDTP    C238322   8.836   3.946   7.401  0.2167 -0.1001  0.0625
   55BDTP    C338323   8.772   4.057   7.456  0.0713 -0.1529  0.0007
   55BDTP    C438324   8.848   4.146   7.533 -0.0789 -0.0931  0.0806
   55BDTP    C538325   8.987   4.120   7.552 -0.0768  0.0188  0.2208
   55BDTP    C638326   9.051   4.010   7.497  0.0684  0.0717  0.2825
   55BDTP    C738327   8.804   4.267   7.600 -0.2444 -0.1301  0.0392
   55BDTP    C838328   8.901   4.332   7.668 -0.3653 -0.0528  0.1401
   55BDTP    S138329   9.063   4.250   7.656 -0.2861  0.0782  0.3017
   55BDTP    C938330   9.019   3.800   7.353  0.3841  0.0488  0.2440
   55BDTP   C1038331   8.921   3.735   7.286  0.5050 -0.0287  0.1432
   55BDTP    S238332   8.759   3.817   7.298  0.4259 -0.1597 -0.0185
   56FTM     S138333   8.562   4.231   7.358  0.1854 -0.2406 -0.1448
   56FTM     C138334   8.392   4.173   7.379  0.0037  0.3087 -0.0504
   56FTM     C238335   8.393   4.050   7.439 -0.3920  0.6217  0.6114
   56FTM     C338336   8.521   3.996   7.472 -0.5741  0.4575  1.0742
   56FTM     C438337   8.623   4.079   7.435 -0.3088  0.0039  0.7565
   56FTM     F138338   8.276   3.981   7.468 -0.6130  1.0755  0.8374
   56FTM     C538339   8.268   4.244   7.321  0.0400  0.2211  0.0991
   56FTM     C638340   8.197   4.349   7.406  0.0395 -0.0475  0.4238
   56FTM     C738341   8.290   4.461   7.467  0.9722 -0.2444  0.5445
   56FTM     C838342   8.360   4.569   7.381  0.0857  0.2574 -0.3367
   56FTM     C938343   8.415   4.679   7.470  0.1318  0.3274  0.7168
   56FTM    C1038344   8.519   4.754   7.395 -0.1841  0.1097  0.4690
   56FTM    C1138345   8.076   4.401   7.338 -0.4826  0.4241  0.5976
   56FTM    C1238346   7.971   4.476   7.417  0.1908  0.2244  0.6780
   57FTM     S138347   9.280   3.835   7.539  0.1773  0.0993  0.1314
   57FTM     C138348   9.441   3.915   7.532  0.1100  0.1915 -0.3799
   57FTM     C238349   9.425   4.050   7.518 -0.0048  0.1487 -0.6871
   57FTM     C338350   9.290   4.097   7.513 -0.0467  0.0442 -0.5472
   57FTM     C438351   9.199   3.995   7.523  0.0389  0.0057 -0.1185
   57FTM     F138352   9.532   4.138   7.510 -0.0789  0.2015 -1.1134
   57FTM     C538353   9.560   3.834   7.573 -0.0784  0.3228  0.3658
   57FTM     C638354   9.654   3.775   7.463  0.0300  0.0380 -0.2828
   57FTM     C738355   9.766   3.692   7.535  0.0214  0.6363  0.5667
   57FTM     C838356   9.719   3.575   7.631  0.5489  0.0555  0.1855
   57FTM     C938357   9.820   3.469   7.671 -0.4494 -0.1340  0.1619
   57FTM    C1038358   9.766   3.377   7.774  0.9696 -0.0154 -0.9163
   57FTM    C1138359   9.706   3.856   7.347 -0.6378  0.1305 -0.0893
   57FTM    C1238360   9.799   3.972   7.380 -0.6068 -0.3194 -0.0681
   58TPM     C138361   8.933   3.608   7.218  0.0561 -0.2400  0.2077
   58TPM     C238362   8.829   3.535   7.167  0.0079 -0.0213 -0.0148
   58TPM     C338363   8.869   3.408   7.113 -0.0894  0.0711 -0.3031
   58TPM     C438364   9.003   3.384   7.121 -0.1152 -0.0770 -0.3009
   58TPM     S138365   9.090   3.521   7.200 -0.0181 -0.3469  0.0686
   59BDD     C138366   9.277   3.160   6.958  0.0060  0.0554  0.0673
   59BDD     C238367   9.168   3.078   6.973 -0.0093  0.0787  0.0796
   59BDD     C338368   9.053   3.145   7.031  0.0048  0.1087  0.0732
   59BDD     C438369   9.076   3.277   7.059  0.0314  0.1080  0.0557
   59BDD     S138370   9.242   3.326   7.015  0.0403  0.0696  0.0464
   59BDD     C538371   9.166   2.935   6.935 -0.0381  0.0740  0.0981
   59BDD     C638372   8.925   3.076   7.056 -0.0083  0.1371  0.0845
   59BDD     O138373   8.826   3.134   7.105  0.0038  0.1630  0.0788
   59BDD     O238374   9.266   2.878   6.885 -0.0505  0.0481  0.1036
   59BDD     C738375   8.923   2.933   7.017 -0.0372  0.1326  0.1028
   59BDD     C838376   9.038   2.866   6.960 -0.0513  0.1025  0.1093
   59BDD     C938377   9.016   2.734   6.931 -0.0777  0.1032  0.1267
   59BDD     S238378   8.849   2.685   6.975 -0.0868  0.1417  0.1362
   59BDD    C1038379   8.814   2.851   7.032 -0.0529  0.1558  0.1154
   59BDD    C1138380   8.676   2.865   7.083  0.0448  0.5182  0.6314
   59BDD    C1238381   8.565   2.901   6.974 -0.2015 -0.1088 -0.3943
   59BDD    C1338382   8.413   2.872   7.012  0.0757 -0.1126  0.8160
   59BDD    C1438383   8.363   2.730   7.059  0.0401 -0.6839 -0.3090
   59BDD    C1538384   8.380   2.617   6.958  0.8080  0.2477 -0.1867
   59BDD    C1638385   8.352   2.490   7.025  0.6742 -0.0301 -0.6736
   59BDD    C1738386   8.583   3.034   6.891 -0.0213  0.4646 -0.3905
   59BDD    C1838387   8.570   3.172   6.963 -0.0914 -0.3037 -0.3630
   59BDD    C1938388   9.118   2.632   6.870  0.7995 -0.6416 -0.6623
   59BDD    C2038389   9.167   2.524   6.966  0.0366 -0.0027  0.5124
   59BDD    C2138390   9.074   2.421   7.021  0.6172  0.1804  0.4931
   59BDD    C2238391   9.005   2.320   6.930 -0.7017 -0.4323 -0.7916
   59BDD    C2338392   8.881   2.248   6.981  0.2888 -0.0749  0.0150
   59BDD    C2438393   8.751   2.323   7.005 -0.0013  0.6691 -0.1837
   59BDD    C2538394   9.303   2.477   6.918  0.6649 -0.2427 -0.0630
   59BDD    C2638395   9.384   2.380   7.004 -0.0646 -0.3617 -0.5323
   60TPM     C138396   9.420   3.148   6.910  0.4399  0.0862  0.3568
   60TPM     C238397   9.489   3.261   6.879  0.5202 -0.0215  0.1410
   60TPM     C338398   9.617   3.235   6.818  0.2725 -0.2197 -0.3079
   60TPM     C438399   9.645   3.102   6.803  0.0039 -0.2632 -0.4342
   60TPM     S138400   9.511   2.999   6.865  0.0428 -0.0554  0.0071
    1BDTP    C138401   7.866   6.111   0.446  0.1959  0.0606 -0.3110
    1BDTP    C238402   7.967   6.011   0.446  0.0627 -0.0759 -0.1533
    1BDTP    C338403   8.079   6.017   0.528 -0.0052 -0.1732 -0.0539
    1BDTP    C438404   8.091   6.126   0.615  0.0608 -0.1341 -0.1123
    1BDTP    C538405   7.990   6.227   0.616  0.1937  0.0026 -0.2700
    1BDTP    C638406   7.878   6.221   0.534  0.2617  0.0997 -0.3695
    1BDTP    C738407   8.198   6.154   0.710  0.0107 -0.2166 -0.0314
    1BDTP    C838408   8.182   6.269   0.780  0.0987 -0.1495 -0.1196
    1BDTP    S138409   8.029   6.358   0.737  0.2573  0.0277 -0.3175
    1BDTP    C938410   7.760   6.084   0.352  0.2458  0.1432 -0.3919
    1BDTP   C1038411   7.776   5.969   0.282  0.1578  0.0762 -0.3037
    1BDTP    S238412   7.928   5.880   0.325 -0.0007 -0.1010 -0.1058
    2FTM     S138413   8.350   5.931   0.490 -0.3638 -0.0222 -0.1603
    2FTM     C138414   8.384   5.759   0.533 -0.0085  0.0993  0.0552
    2FTM     C238415   8.270   5.699   0.575  0.1476 -0.0420  0.2806
    2FTM     C338416   8.152   5.780   0.576  0.0038 -0.2484  0.2992
    2FTM     C438417   8.176   5.907   0.534 -0.2711 -0.2658  0.0807
    2FTM     F138418   8.265   5.566   0.614  0.4294  0.0074  0.4837
    2FTM     C538419   8.518   5.698   0.517  0.3274 -0.5549  0.4151
    2FTM     C638420   8.598   5.626   0.624 -0.6434  0.3917 -0.7727
    2FTM     C738421   8.695   5.532   0.547 -1.1173  0.7920 -0.0104
    2FTM     C838422   8.649   5.409   0.465  1.0947 -0.0026 -0.0419
    2FTM     C938423   8.565   5.312   0.537 -0.2351 -0.9379  0.3833
    2FTM    C1038424   8.632   5.229   0.643 -0.3770  0.1733  0.0589
    2FTM    C1138425   8.653   5.707   0.746 -0.0270  0.0156 -0.3134
    2FTM    C1238426   8.760   5.803   0.697 -0.3786 -0.4667 -0.1446
    3FTM     S138427   7.690   6.367   0.699  0.0613 -0.0007 -0.1188
    3FTM     C138428   7.563   6.456   0.608  0.2697  0.2757 -0.1439
    3FTM     C238429   7.587   6.449   0.475  0.3092  0.2677 -0.1362
    3FTM     C338430   7.704   6.376   0.436  0.1827  0.0516 -0.1110
    3FTM     C438431   7.771   6.325   0.543  0.0418 -0.1114 -0.0989
    3FTM     F138432   7.505   6.508   0.380  0.4621  0.4559 -0.1516
    3FTM     C538433   7.445   6.533   0.664  0.3451 -0.2701  0.3401
    3FTM     C638434   7.376   6.510   0.802 -0.2637  0.1446  0.9103
    3FTM     C738435   7.449   6.583   0.914  0.1835 -0.5626 -0.2369
    3FTM     C838436   7.442   6.740   0.913 -0.0621  0.5790 -0.1958
    3FTM     C938437   7.492   6.808   1.038 -0.9165  0.0211 -0.6965
    3FTM    C1038438   7.632   6.761   1.092 -0.6906 -0.5538 -0.1701
    3FTM    C1138439   7.349   6.364   0.843  0.7225 -0.1068  0.1587
    3FTM    C1238440   7.260   6.329   0.961  0.3966  0.2807 -0.4253
    4TPM     C138441   7.703   5.931   0.167 -0.5280  0.3976  0.1946
    4TPM     C238442   7.646   6.008   0.069 -0.5006  0.2766  0.0822
    4TPM     C338443   7.582   5.931  -0.035 -0.1189  0.1395 -0.0536
    4TPM     C438444   7.591   5.797  -0.017  0.1450  0.1556 -0.0447
    4TPM     S138445   7.680   5.755   0.134 -0.0702  0.3471  0.1372
    5BDD     C138446   7.400   5.657  -0.339 -0.1263  0.2569 -0.0161
    5BDD     C238447   7.394   5.556  -0.247 -0.0923  0.2364 -0.0360
    5BDD     C338448   7.465   5.586  -0.124 -0.0319  0.2019 -0.0627
    5BDD     C438449   7.524   5.709  -0.124 -0.0210  0.1966 -0.0620
    5BDD     S138450   7.495   5.796  -0.278 -0.0851  0.2346 -0.0286
    5BDD     C538451   7.323   5.428  -0.268 -0.1140  0.2478 -0.0312
    5BDD     C638452   7.472   5.491  -0.011  0.0123  0.1756 -0.0873
    5BDD     O138453   7.533   5.517   0.095  0.0643  0.1460 -0.1101
    5BDD     O238454   7.261   5.402  -0.374 -0.1659  0.2775 -0.0083
    5BDD     C738455   7.400   5.364  -0.032 -0.0094  0.1870 -0.0827
    5BDD     C838456   7.329   5.334  -0.155 -0.0697  0.2215 -0.0563
    5BDD     C938457   7.270   5.210  -0.155 -0.0807  0.2270 -0.0563
    5BDD     S238458   7.299   5.123  -0.001 -0.0166  0.1891 -0.0898
    5BDD    C1038459   7.394   5.263   0.060  0.0246  0.1668 -0.1028
    5BDD    C1138460   7.432   5.270   0.207  0.1004  0.3973 -0.3737
    5BDD    C1238461   7.546   5.182   0.260 -0.2281 -0.0035  0.6157
    5BDD    C1338462   7.544   5.031   0.237  0.6504 -0.2097  0.0254
    5BDD    C1438463   7.412   4.965   0.292 -0.2349  0.2404 -0.2886
    5BDD    C1538464   7.361   4.863   0.191  1.0523 -0.1629  0.4150
    5BDD    C1638465   7.231   4.797   0.239  0.4118  0.1282  0.5137
    5BDD    C1738466   7.573   5.247   0.394 -0.1861  0.0617 -0.0782
    5BDD    C1838467   7.697   5.192   0.453  0.5950 -0.6631 -0.4711
    5BDD    C1938468   7.176   5.138  -0.248  0.2068  0.2909  0.0721
    5BDD    C2038469   7.236   5.074  -0.375 -0.3449  0.6666  0.4867
    5BDD    C2138470   7.339   4.952  -0.365 -0.3651 -0.1309 -0.1972
    5BDD    C2238471   7.284   4.820  -0.319  0.3915 -0.0003  0.0510
    5BDD    C2338472   7.378   4.700  -0.351 -0.4416  0.1422  0.8780
    5BDD    C2438473   7.316   4.567  -0.323 -0.3271  0.4028  0.2769
    5BDD    C2538474   7.136   5.068  -0.500  0.3590  0.9053  0.1814
    5BDD    C2638475   7.032   5.171  -0.537 -0.2298 -0.2190 -0.4207
    6TPM     C138476   7.343   5.677  -0.474 -0.1324 -0.1111 -0.3370
    6TPM     C238477   7.340   5.582  -0.571 -0.0587  0.2187 -0.6671
    6TPM     C338478   7.317   5.634  -0.703  0.2036  0.6886 -0.5310
    6TPM     C438479   7.302   5.770  -0.707  0.3295  0.7171 -0.0975
    6TPM     S138480   7.315   5.842  -0.542  0.1253  0.1484  0.1747
    7BDTP    C138481   7.029   6.055  -1.197 -0.1152  0.1364 -0.1161
    7BDTP    C238482   7.069   6.165  -1.116 -0.0007  0.0958 -0.1173
    7BDTP    C338483   7.137   6.148  -0.996  0.0210  0.0280 -0.1388
    7BDTP    C438484   7.168   6.018  -0.955 -0.0750 -0.0014 -0.1602
    7BDTP    C538485   7.128   5.908  -1.036 -0.1897  0.0390 -0.1590
    7BDTP    C638486   7.060   5.924  -1.156 -0.2110  0.1068 -0.1374
    7BDTP    C738487   7.238   5.976  -0.835 -0.0743 -0.0705 -0.1849
    7BDTP    C838488   7.252   5.842  -0.823 -0.1816 -0.0838 -0.2022
    7BDTP    S138489   7.180   5.749  -0.962 -0.2984 -0.0107 -0.1893
    7BDTP    C938490   6.959   6.097  -1.317 -0.1159  0.2054 -0.0916
    7BDTP   C1038491   6.945   6.231  -1.329 -0.0086  0.2187 -0.0746
    7BDTP    S238492   7.017   6.323  -1.190  0.1083  0.1456 -0.0870
    8FTM     S138493   7.197   6.302  -0.756 -0.2977  0.1097 -0.4236
    8FTM     C138494   7.313   6.436  -0.784 -0.1753  0.0337 -0.2823
    8FTM     C238495   7.346   6.443  -0.916  0.4383 -0.3550 -0.1614
    8FTM     C338496   7.283   6.347  -1.001  0.8409 -0.6112 -0.1705
    8FTM     C438497   7.201   6.263  -0.932  0.5253 -0.4122 -0.3033
    8FTM     F138498   7.433   6.538  -0.967  0.6716 -0.5016 -0.0348
    8FTM     C538499   7.341   6.520  -0.654 -0.6914 -0.1553  1.1329
    8FTM     C638500   7.468   6.494  -0.582 -0.2230  0.1671 -0.3896
    8FTM     C738501   7.487   6.356  -0.524 -0.0065  0.1573 -0.2596
    8FTM     C838502   7.391   6.330  -0.405 -0.4283  0.1465 -0.1055
    8FTM     C938503   7.378   6.180  -0.382  0.6217 -0.0923 -0.1328
    8FTM    C1038504   7.308   6.150  -0.246  0.4988  0.1226 -0.3748
    8FTM    C1138505   7.597   6.559  -0.624  0.0282  0.1253  0.3300
    8FTM    C1238506   7.593   6.700  -0.684 -0.1586 -0.0665  0.1381
    9FTM     S138507   6.849   5.777  -1.274  0.2118 -0.0320  0.1192
    9FTM     C138508   6.898   5.636  -1.375  0.1456  0.0700 -0.0571
    9FTM     C238509   7.033   5.620  -1.370  0.1239 -0.0901  0.0451
    9FTM     C338510   7.105   5.714  -1.290  0.1569 -0.2972  0.2615
    9FTM     C438511   7.022   5.805  -1.231  0.2053 -0.2953  0.3267
    9FTM     F138512   7.100   5.519  -1.439  0.0731 -0.0588 -0.0510
    9FTM     C538513   6.790   5.576  -1.459 -0.2316 -0.0413 -0.3517
    9FTM     C638514   6.677   5.667  -1.516 -0.6214 -0.0308  0.1267
    9FTM     C738515   6.576   5.582  -1.592  0.1832  0.2360 -0.4589
    9FTM     C838516   6.505   5.470  -1.515  0.6413  0.4538  0.4006
    9FTM     C938517   6.388   5.431  -1.603  0.3167 -0.6451 -0.3239
    9FTM    C1038518   6.308   5.318  -1.548  0.2171  0.1523  0.5140
    9FTM    C1138519   6.719   5.796  -1.591  0.2420 -0.3674  0.1660
    9FTM    C1238520   6.778   5.785  -1.735  0.0970  0.0605 -0.1323
   10TPM     C138521   6.851   6.284  -1.426  0.1139 -0.0135  0.1675
   10TPM     C238522   6.771   6.393  -1.414  0.2673  0.0983  0.1750
   10TPM     C338523   6.680   6.410  -1.524  0.2575  0.2064  0.1998
   10TPM     C438524   6.690   6.314  -1.620  0.0967  0.1765  0.2116
   10TPM     S138525   6.817   6.193  -1.578 -0.0559  0.0089  0.1919
   11BDD     C138526   6.423   6.171  -1.874  0.1007  0.0595  0.0190
   11BDD     C238527   6.421   6.306  -1.893  0.1103  0.0678  0.0778
   11BDD     C338528   6.513   6.378  -1.807  0.0762  0.0287  0.1470
   11BDD     C438529   6.585   6.296  -1.724  0.0412 -0.0087  0.1401
   11BDD     S138530   6.541   6.124  -1.748  0.0486  0.0023  0.0465
   11BDD     C538531   6.334   6.375  -1.991  0.1508  0.1118  0.0724
   11BDD     C638532   6.527   6.525  -1.810  0.0794  0.0300  0.2176
   11BDD     O138533   6.607   6.587  -1.736  0.0501 -0.0036  0.2773
   11BDD     O238534   6.254   6.313  -2.065  0.1800  0.1454  0.0128
   11BDD     C738535   6.440   6.593  -1.908  0.1199  0.0743  0.2122
   11BDD     C838536   6.348   6.522  -1.994  0.1540  0.1132  0.1429
   11BDD     C938537   6.276   6.603  -2.077  0.1887  0.1508  0.1498
   11BDD     S238538   6.320   6.776  -2.053  0.1813  0.1398  0.2434
   11BDD    C1038539   6.438   6.729  -1.926  0.1292  0.0826  0.2708
   11BDD    C1138540   6.529   6.843  -1.879 -0.4684  0.6235  0.3258
   11BDD    C1238541   6.685   6.827  -1.904  0.8303  0.1592 -0.4105
   11BDD    C1338542   6.731   6.792  -2.049  0.2056  0.6501 -0.5363
   11BDD    C1438543   6.866   6.740  -2.079  0.1551 -0.5572 -0.0934
   11BDD    C1538544   6.895   6.602  -2.044 -0.5101  0.5623 -0.5401
   11BDD    C1638545   6.904   6.559  -1.896 -0.4366  0.1313  0.3035
   11BDD    C1738546   6.780   6.912  -1.818  0.4092 -0.0396 -0.0880
   11BDD    C1838547   6.765   6.907  -1.671  0.2722  0.0053  0.1332
   11BDD    C1938548   6.159   6.570  -2.176 -0.9155 -0.0961 -0.4063
   11BDD    C2038549   6.140   6.664  -2.299  0.2031 -0.3736  0.0677
   11BDD    C2138550   6.268   6.712  -2.376 -0.0213 -0.2502 -0.2818
   11BDD    C2238551   6.360   6.612  -2.447  0.0242 -0.2670  0.1904
   11BDD    C2338552   6.493   6.659  -2.518  0.0600  0.2584  0.2923
   11BDD    C2438553   6.601   6.732  -2.434 -0.5363  0.1776  0.2090
   11BDD    C2538554   6.022   6.628  -2.394 -0.3818  0.1761 -0.5036
   11BDD    C2638555   5.886   6.593  -2.317  0.0796  0.2156  0.0616
   12TPM     C138556   6.364   6.055  -1.934  0.4741 -0.0727  0.5837
   12TPM     C238557   6.229   6.049  -1.952  0.4098  0.2576  0.9340
   12TPM     C338558   6.178   5.916  -1.970  0.0632  0.3965  0.8609
   12TPM     C438559   6.275   5.819  -1.966 -0.1369  0.1718  0.4550
   12TPM     S138560   6.438   5.891  -1.939  0.0988 -0.2354  0.1308
   13BDTP    C138561   6.270   5.194  -1.963 -0.0665 -0.0468  0.0465
   13BDTP    C238562   6.131   5.226  -1.959 -0.0908 -0.1365 -0.1029
   13BDTP    C338563   6.084   5.357  -1.964 -0.1669 -0.1624 -0.0573
   13BDTP    C438564   6.178   5.461  -1.971 -0.2214 -0.0970  0.1447
   13BDTP    C538565   6.317   5.429  -1.975 -0.1972 -0.0076  0.2941
   13BDTP    C638566   6.364   5.299  -1.970 -0.1212  0.0183  0.2486
   13BDTP    C738567   6.153   5.603  -1.977 -0.3034 -0.1081  0.2280
   13BDTP    C838568   6.265   5.679  -1.984 -0.3411 -0.0321  0.4297
   13BDTP    S138569   6.418   5.581  -1.985 -0.2782  0.0641  0.5431
   13BDTP    C938570   6.295   5.052  -1.957  0.0153 -0.0360 -0.0366
   13BDTP   C1038571   6.183   4.976  -1.950  0.0529 -0.1121 -0.2384
   13BDTP    S238572   6.030   5.074  -1.949 -0.0098 -0.2081 -0.3518
   14FTM     S138573   5.871   5.333  -1.774  0.0347  0.2513  0.1312
   14FTM     C138574   5.713   5.406  -1.822 -0.1494 -0.3230 -0.1601
   14FTM     C238575   5.722   5.457  -1.948 -0.3172 -0.9114 -0.4127
   14FTM     C338576   5.849   5.442  -2.013 -0.3129 -0.9505 -0.3959
   14FTM     C438577   5.940   5.378  -1.935 -0.1362 -0.3733 -0.1212
   14FTM     F138578   5.616   5.519  -2.011 -0.4845 -1.4493 -0.6745
   14FTM     C538579   5.603   5.405  -1.721  0.1745 -0.4470 -0.6935
   14FTM     C638580   5.506   5.525  -1.704  0.6636 -0.6126  1.3194
   14FTM     C738581   5.565   5.665  -1.674  0.3717 -0.2018  0.2404
   14FTM     C838582   5.659   5.671  -1.556  0.2080  0.5996 -0.2244
   14FTM     C938583   5.794   5.718  -1.598  0.5553 -0.1411 -0.2204
   14FTM    C1038584   5.893   5.723  -1.480 -0.3077  0.3981  0.3355
   14FTM    C1138585   5.377   5.529  -1.794 -0.5068  0.0231  0.3049
   14FTM    C1238586   5.286   5.405  -1.804 -0.3641  0.1559 -0.8083
   15FTM     S138587   6.582   5.213  -1.809 -0.0711 -0.0784 -0.0170
   15FTM     C138588   6.740   5.190  -1.892 -0.1321 -0.3214 -0.0683
   15FTM     C238589   6.729   5.226  -2.023 -0.1621 -0.4604 -0.1038
   15FTM     C338590   6.599   5.271  -2.065 -0.1402 -0.3883 -0.0933
   15FTM     C438591   6.509   5.271  -1.963 -0.0915 -0.1874 -0.0487
   15FTM     F138592   6.834   5.219  -2.112 -0.2116 -0.6613 -0.1477
   15FTM     C538593   6.859   5.138  -1.805 -0.3304 -0.0687  0.3276
   15FTM     C638594   6.914   4.996  -1.836  0.7525  0.1790 -0.1712
   15FTM     C738595   7.010   4.985  -1.957  0.4042  0.3551 -0.6563
   15FTM     C838596   7.135   5.073  -1.949 -0.1274 -0.1218  0.1080
   15FTM     C938597   7.229   5.068  -1.828 -0.1785  0.3212  0.0166
   15FTM    C1038598   7.365   5.124  -1.859 -0.3526 -0.1264  0.1711
   15FTM    C1138599   6.807   4.887  -1.839  0.0102  0.1496  0.6606
   15FTM    C1238600   6.850   4.747  -1.805  0.0282  0.0670  0.3473
   16TPM     C138601   6.173   4.832  -1.936 -0.2920 -0.1047  0.2290
   16TPM     C238602   6.056   4.762  -1.937 -0.2154 -0.2321  0.1035
   16TPM     C338603   6.072   4.621  -1.909 -0.0280 -0.3211 -0.4363
   16TPM     C438604   6.201   4.584  -1.887  0.0386 -0.2619 -0.7225
   16TPM     S138605   6.313   4.725  -1.900 -0.1316 -0.0874 -0.3293
   17BDD     C138606   6.194   4.195  -1.821  0.0294 -0.1257  0.1039
   17BDD     C238607   6.320   4.219  -1.867  0.0339 -0.0916  0.1343
   17BDD     C338608   6.344   4.359  -1.900  0.0150 -0.0793  0.1730
   17BDD     C438609   6.235   4.438  -1.878 -0.0037 -0.1041  0.1711
   17BDD     S138610   6.095   4.344  -1.816  0.0012 -0.1448  0.1211
   17BDD     C538611   6.424   4.115  -1.882  0.0558 -0.0689  0.1292
   17BDD     C638612   6.473   4.408  -1.951  0.0160 -0.0432  0.2100
   17BDD     O138613   6.494   4.528  -1.979 -0.0004 -0.0325  0.2433
   17BDD     O238614   6.404   3.995  -1.853  0.0721 -0.0794  0.0961
   17BDD     C738615   6.577   4.304  -1.966  0.0379 -0.0205  0.2050
   17BDD     C838616   6.554   4.164  -1.933  0.0570 -0.0328  0.1664
   17BDD     C938617   6.663   4.084  -1.954  0.0755 -0.0079  0.1681
   17BDD     S238618   6.803   4.178  -2.017  0.0704  0.0328  0.2182
   17BDD    C1038619   6.704   4.328  -2.012  0.0423  0.0136  0.2354
   17BDD    C1138620   6.783   4.455  -2.037  0.2727  0.2179 -0.6115
   17BDD    C1238621   6.844   4.472  -2.174 -0.2768 -0.2945 -0.2677
   17BDD    C1338622   6.740   4.446  -2.285  0.1284  0.1077 -0.4520
   17BDD    C1438623   6.790   4.459  -2.432  0.2703  0.1734 -0.1140
   17BDD    C1538624   6.676   4.436  -2.529 -0.2300  0.0108 -0.1669
   17BDD    C1638625   6.714   4.435  -2.679  0.6920 -0.3840  0.6392
   17BDD    C1738626   6.940   4.599  -2.197  0.7850  0.3301 -0.7682
   17BDD    C1838627   7.069   4.600  -2.125  0.1849 -0.0250 -0.2174
   17BDD    C1938628   6.691   3.938  -1.956 -0.4279  0.0956 -0.7252
   17BDD    C2038629   6.743   3.871  -1.824 -0.1068 -0.1964  0.1779
   17BDD    C2138630   6.876   3.912  -1.765 -0.1687 -0.0258  0.2242
   17BDD    C2238631   7.004   3.870  -1.844  0.5101 -0.3947 -0.7463
   17BDD    C2338632   7.141   3.934  -1.799  0.5693  0.2695  0.2834
   17BDD    C2438633   7.251   3.904  -1.900 -0.1016 -0.0620  0.3155
   17BDD    C2538634   6.712   3.724  -1.800 -0.1570  0.1879 -0.1198
   17BDD    C2638635   6.562   3.688  -1.809  0.4927 -0.5398  0.0816
   18TPM     C138636   6.123   4.083  -1.762  0.0661  0.0601  0.1538
   18TPM     C238637   6.104   3.960  -1.818  0.0544  0.0587  0.1607
   18TPM     C338638   6.005   3.881  -1.751  0.1142  0.0355  0.2220
   18TPM     C438639   5.948   3.943  -1.644  0.1714  0.0192  0.2622
   18TPM     S138640   6.016   4.108  -1.619  0.1542  0.0319  0.2253
   19BDTP    C138641   5.471   3.784  -1.263 -0.0298  0.0678  0.0248
   19BDTP    C238642   5.536   3.659  -1.288 -0.0979  0.0511 -0.0715
   19BDTP    C338643   5.648   3.647  -1.369 -0.1407  0.0433 -0.1290
   19BDTP    C438644   5.698   3.764  -1.429 -0.1152  0.0522 -0.0901
   19BDTP    C538645   5.634   3.889  -1.405 -0.0470  0.0689  0.0060
   19BDTP    C638646   5.522   3.900  -1.324 -0.0042  0.0767  0.0638
   19BDTP    C738647   5.813   3.777  -1.517 -0.1498  0.0469 -0.1362
   19BDTP    C838648   5.837   3.903  -1.559 -0.1115  0.0584 -0.0796
   19BDTP    S138649   5.718   4.024  -1.494 -0.0262  0.0778  0.0393
   19BDTP    C938650   5.357   3.771  -1.176  0.0050  0.0732  0.0708
   19BDTP   C1038651   5.332   3.645  -1.133 -0.0331  0.0618  0.0145
   19BDTP    S238652   5.451   3.524  -1.199 -0.1185  0.0422 -0.1047
   20FTM     S138653   5.834   3.445  -1.260  0.0616  0.3023  0.1454
   20FTM     C138654   5.831   3.286  -1.345 -0.1647  0.2479  0.2531
   20FTM     C238655   5.750   3.293  -1.454 -0.0138  0.3447  0.1452
   20FTM     C338656   5.686   3.420  -1.477  0.2801  0.4643 -0.0236
   20FTM     C438657   5.720   3.512  -1.383  0.3565  0.4588 -0.0458
   20FTM     F138658   5.728   3.186  -1.539 -0.1326  0.3307  0.1929
   20FTM     C538659   5.912   3.173  -1.283  0.5511 -0.2212  0.2150
   20FTM     C638660   6.064   3.163  -1.296 -0.2883  1.4111  0.6123
   20FTM     C738661   6.134   3.161  -1.437  0.2158 -0.3656  0.6864
   20FTM     C838662   6.124   3.029  -1.510 -0.7668 -0.2923  0.1898
   20FTM     C938663   6.182   2.903  -1.447  0.2230 -0.5569 -0.0331
   20FTM    C1038664   6.162   2.765  -1.512 -0.5378  0.0776 -0.4787
   20FTM    C1138665   6.145   3.240  -1.199 -0.5141  0.1321 -0.3240
   20FTM    C1238666   6.115   3.225  -1.054  0.3405 -0.7787 -0.2175
   21FTM     S138667   5.285   4.065  -1.302  0.0762 -0.0248  0.0860
   21FTM     C138668   5.310   4.234  -1.246  0.3979 -0.0495  0.0243
   21FTM     C238669   5.441   4.255  -1.218  0.4183 -0.3277  0.1414
   21FTM     C338670   5.529   4.143  -1.238  0.1907 -0.5338  0.2825
   21FTM     C438671   5.462   4.033  -1.283 -0.0109 -0.4092  0.2735
   21FTM     F138672   5.490   4.377  -1.172  0.6446 -0.4122  0.1273
   21FTM     C538673   5.188   4.327  -1.233  0.3499  0.1899  0.0359
   21FTM     C638674   5.178   4.452  -1.145  0.0096 -0.2462 -0.3278
   21FTM     C738675   5.044   4.527  -1.159 -0.1716  0.0040 -0.0317
   21FTM     C838676   4.998   4.585  -1.293 -0.5091  0.8220 -0.0077
   21FTM     C938677   4.860   4.646  -1.277 -0.4632  0.1073  0.5464
   21FTM    C1038678   4.807   4.705  -1.401 -0.2004  0.0133  0.6578
   21FTM    C1138679   5.224   4.452  -0.998 -0.9468 -0.0418 -0.4753
   21FTM    C1238680   5.179   4.348  -0.895 -0.1993  0.1354 -0.6333
   22TPM     C138681   5.222   3.600  -1.050 -0.1541 -0.2136 -0.3282
   22TPM     C238682   5.123   3.674  -0.994 -0.5085 -0.3461 -0.7706
   22TPM     C338683   5.026   3.596  -0.921 -0.3873 -0.4192 -0.6869
   22TPM     C438684   5.052   3.462  -0.922  0.0593 -0.3424 -0.1808
   22TPM     S138685   5.201   3.424  -1.015  0.3641 -0.1705  0.2327
   23BDD     C138686   4.955   3.128  -0.746  0.1189  0.0957  0.0284
   23BDD     C238687   4.836   3.193  -0.767  0.0875  0.0386  0.0305
   23BDD     C338688   4.851   3.326  -0.822  0.0218  0.0404  0.0155
   23BDD     C438689   4.982   3.361  -0.843  0.0040  0.0985  0.0030
   23BDD     S138690   5.094   3.230  -0.795  0.0684  0.1553  0.0081
   23BDD     C538691   4.704   3.135  -0.736  0.1166 -0.0196  0.0460
   23BDD     C638692   4.736   3.414  -0.853 -0.0211 -0.0160  0.0153
   23BDD     O138693   4.750   3.528  -0.901 -0.0777 -0.0146  0.0026
   23BDD     O238694   4.690   3.020  -0.688  0.1732 -0.0210  0.0587
   23BDD     C738695   4.604   3.355  -0.822  0.0080 -0.0741  0.0305
   23BDD     C838696   4.588   3.222  -0.766  0.0738 -0.0758  0.0455
   23BDD     C938697   4.458   3.187  -0.745  0.0916 -0.1342  0.0584
   23BDD     S238698   4.346   3.318  -0.794  0.0272 -0.1909  0.0529
   23BDD    C1038699   4.485   3.420  -0.843 -0.0232 -0.1312  0.0327
   23BDD    C1138700   4.453   3.546  -0.918  0.2359 -0.1805  0.3246
   23BDD    C1238701   4.413   3.674  -0.840  0.2100  0.7836 -0.5593
   23BDD    C1338702   4.404   3.808  -0.914 -0.3926 -0.0626 -0.1563
   23BDD    C1438703   4.511   3.852  -1.022 -0.2922  0.0317 -0.1550
   23BDD    C1538704   4.643   3.876  -0.970 -0.1379  0.1783 -0.1455
   23BDD    C1638705   4.750   3.943  -1.057 -0.0257 -0.0209 -0.7481
   23BDD    C1738706   4.299   3.654  -0.746  0.4485 -0.1762 -0.0456
   23BDD    C1838707   4.262   3.762  -0.647 -0.6124 -0.4567 -0.4879
   23BDD    C1938708   4.394   3.071  -0.679 -0.0945  0.2445 -0.0945
   23BDD    C2038709   4.367   2.953  -0.774 -0.3144  0.1826 -0.5699
   23BDD    C2138710   4.315   2.829  -0.691  0.7265  0.1951 -0.2786
   23BDD    C2238711   4.407   2.770  -0.580 -0.1925 -0.2183  0.0539
   23BDD    C2338712   4.546   2.728  -0.632 -0.1442 -0.3347  0.3905
   23BDD    C2438713   4.644   2.691  -0.524 -0.3689  0.1852 -0.8817
   23BDD    C2538714   4.275   2.986  -0.889  0.5104  0.3029 -0.0942
   23BDD    C2638715   4.253   2.880  -0.994  0.4483 -0.6198  0.6450
   24TPM     C138716   4.995   2.998  -0.707  0.2901  0.7828  0.0542
   24TPM     C238717   4.950   2.933  -0.596  0.3576  1.1995  0.3288
   24TPM     C338718   5.032   2.821  -0.557  0.0427  0.9708  0.3400
   24TPM     C438719   5.139   2.800  -0.639 -0.2652  0.3798  0.0738
   24TPM     S138720   5.145   2.922  -0.772 -0.1805  0.0637 -0.2142
   25BDTP    C138721   5.588   2.371  -0.520 -0.0516 -0.0972  0.1469
   25BDTP    C238722   5.655   2.463  -0.606  0.0185 -0.1572  0.1364
   25BDTP    C338723   5.591   2.574  -0.660  0.0890 -0.1426  0.0839
   25BDTP    C438724   5.456   2.595  -0.629  0.0906 -0.0651  0.0398
   25BDTP    C538725   5.389   2.502  -0.544  0.0206 -0.0051  0.0498
   25BDTP    C638726   5.452   2.391  -0.489 -0.0499 -0.0198  0.1026
   25BDTP    C738727   5.370   2.702  -0.674  0.1568 -0.0359 -0.0182
   25BDTP    C838728   5.243   2.695  -0.626  0.1398  0.0422 -0.0513
   25BDTP    S138729   5.215   2.551  -0.519  0.0379  0.0898 -0.0138
   25BDTP    C938730   5.674   2.263  -0.476 -0.1177 -0.1264  0.2046
   25BDTP   C1038731   5.801   2.270  -0.523 -0.1007 -0.2046  0.2377
   25BDTP    S238732   5.829   2.414  -0.631  0.0012 -0.2521  0.2003
   26FTM     S138733   5.613   2.754  -0.894  0.1065  0.4960 -0.0975
   26FTM     C138734   5.752   2.869  -0.887  0.2371  0.3321  0.0028
   26FTM     C238735   5.827   2.843  -0.776  0.1364  0.2327  0.0494
   26FTM     C338736   5.782   2.736  -0.692 -0.0445  0.2769  0.0103
   26FTM     C438737   5.669   2.677  -0.741 -0.0832  0.4145 -0.0688
   26FTM     F138738   5.940   2.916  -0.744  0.2017  0.0959  0.1292
   26FTM     C538739   5.781   2.980  -0.984  0.1320 -0.2924  0.2220
   26FTM     C638740   5.673   3.045  -1.073  0.6908 -0.9228  0.1843
   26FTM     C738741   5.580   3.156  -1.005 -0.2608  0.1205  0.4008
   26FTM     C838742   5.652   3.277  -0.951  0.0153  0.8182  0.1932
   26FTM     C938743   5.565   3.369  -0.872 -0.1275 -0.1051  0.9155
   26FTM    C1038744   5.653   3.489  -0.822 -0.4441 -0.5392 -0.2554
   26FTM    C1138745   5.597   2.953  -1.169 -0.2382  0.0221  0.2238
   26FTM    C1238746   5.687   2.888  -1.260 -0.3089  0.0418  0.8738
   27FTM     S138747   5.258   2.183  -0.475 -0.3488  0.1960  0.0631
   27FTM     C138748   5.238   2.110  -0.311 -0.0999  0.0082  0.0128
   27FTM     C238749   5.318   2.174  -0.222  0.2835 -0.3129 -0.0994
   27FTM     C338750   5.399   2.280  -0.274  0.4041 -0.4295 -0.1516
   27FTM     C438751   5.380   2.298  -0.408  0.1034 -0.1900 -0.0775
   27FTM     F138752   5.324   2.139  -0.088  0.5476 -0.5202 -0.1612
   27FTM     C538753   5.165   1.976  -0.284  0.2177 -0.4354 -0.8857
   27FTM     C638754   5.008   1.954  -0.304 -0.5255 -0.1892 -0.2281
   27FTM     C738755   4.920   2.067  -0.247  0.0564  0.2357 -0.1035
   27FTM     C838756   4.900   2.176  -0.346 -0.0264 -0.3385  0.1669
   27FTM     C938757   4.855   2.300  -0.277 -0.2361 -1.0021  1.3461
   27FTM    C1038758   4.845   2.431  -0.364 -0.2745 -0.5941  0.0871
   27FTM    C1138759   4.961   1.817  -0.260  0.1210 -0.3242 -0.8925
   27FTM    C1238760   5.037   1.701  -0.327 -0.0976 -0.2136 -0.0139
   28TPM     C138761   5.912   2.198  -0.470 -0.3232  0.0000  0.2347
   28TPM     C238762   6.038   2.238  -0.440 -0.3672  0.2176  0.1333
   28TPM     C338763   6.123   2.132  -0.392 -0.1431  0.3600  0.0567
   28TPM     C438764   6.061   2.011  -0.385  0.0719  0.2509  0.0993
   28TPM     S138765   5.889   2.022  -0.440  0.0072 -0.0422  0.2409
   29BDD     C138766   6.093   1.712  -0.130  0.1468  0.3022  0.4406
   29BDD     C238767   6.218   1.724  -0.186  0.1144  0.1757  0.3386
   29BDD     C338768   6.227   1.832  -0.283  0.0881  0.0277  0.1702
   29BDD     C438769   6.110   1.900  -0.300  0.1005  0.0437  0.1467
   29BDD     S138770   5.979   1.834  -0.196  0.1464  0.2449  0.3333
   29BDD     C538771   6.332   1.638  -0.152  0.1065  0.1860  0.3920
   29BDD     C638772   6.352   1.864  -0.355  0.0510 -0.1241  0.0393
   29BDD     O138773   6.360   1.956  -0.439  0.0284 -0.2517 -0.1056
   29BDD     O238774   6.324   1.545  -0.068  0.1292  0.3136  0.5369
   29BDD     C738775   6.467   1.777  -0.321  0.0433 -0.1137  0.0930
   29BDD     C838776   6.457   1.669  -0.224  0.0696  0.0342  0.2611
   29BDD     C938777   6.575   1.601  -0.207  0.0569  0.0183  0.2851
   29BDD     S238778   6.705   1.667  -0.311  0.0111 -0.1830  0.0985
   29BDD    C1038779   6.591   1.789  -0.377  0.0107 -0.2403 -0.0088
   29BDD    C1138780   6.638   1.891  -0.490  0.0045  0.1330 -0.2477
   29BDD    C1238781   6.746   1.997  -0.467 -0.0925 -0.3072 -0.4646
   29BDD    C1338782   6.708   2.114  -0.371 -0.6124 -0.2740 -1.0406
   29BDD    C1438783   6.573   2.183  -0.397 -0.4508  0.1564  0.0016
   29BDD    C1538784   6.562   2.258  -0.524 -0.1678 -0.5223  0.0493
   29BDD    C1638785   6.431   2.332  -0.548  0.0469 -0.0826  0.1498
   29BDD    C1738786   6.886   1.939  -0.459 -0.5232 -0.3437 -0.0266
   29BDD    C1838787   7.000   2.038  -0.461 -0.1323  0.0609  0.1841
   29BDD    C1938788   6.603   1.473  -0.131 -0.0536 -0.2810  0.1047
   29BDD    C2038789   6.574   1.335  -0.207 -0.5954 -0.3313 -0.4538
   29BDD    C2138790   6.602   1.209  -0.116  0.0870 -0.2503 -0.2378
   29BDD    C2238791   6.527   1.181   0.017  0.5943 -0.3148 -0.5034
   29BDD    C2338792   6.370   1.179   0.028  0.2106 -0.6450 -0.0007
   29BDD    C2438793   6.307   1.071  -0.050 -0.3292 -0.1362  0.0163
   29BDD    C2538794   6.642   1.331  -0.347 -0.0818  0.0223 -0.2516
   29BDD    C2638795   6.799   1.335  -0.351 -0.6208  0.1686 -0.1305
   30TPM     C138796   6.029   1.625  -0.024 -0.0251 -0.0483  0.0001
   30TPM     C238797   5.949   1.676   0.074 -0.2345 -0.3505 -0.0091
   30TPM     C338798   5.910   1.579   0.173 -0.1503 -0.5758 -0.1936
   30TPM     C438799   5.960   1.454   0.150  0.1232 -0.4453 -0.3255
   30TPM     S138800   6.060   1.449   0.001  0.2972 -0.0246 -0.2257
   31BDTP    C138801   5.975   0.924   0.490 -0.0732 -0.1640 -0.0232
   31BDTP    C238802   5.835   0.948   0.483 -0.0654 -0.0931  0.0551
   31BDTP    C338803   5.780   1.057   0.418 -0.0447 -0.0446  0.1191
   31BDTP    C438804   5.868   1.148   0.356 -0.0312 -0.0669  0.1054
   31BDTP    C538805   6.009   1.125   0.363 -0.0391 -0.1378  0.0271
   31BDTP    C638806   6.063   1.015   0.429 -0.0597 -0.1863 -0.0369
   31BDTP    C738807   5.835   1.269   0.283 -0.0093 -0.0262  0.1622
   31BDTP    C838808   5.943   1.336   0.235 -0.0005 -0.0626  0.1308
   31BDTP    S138809   6.101   1.256   0.276 -0.0187 -0.1536  0.0248
   31BDTP    C938810   6.008   0.804   0.563 -0.0951 -0.2047 -0.0800
   31BDTP   C1038811   5.901   0.736   0.611 -0.1038 -0.1683 -0.0486
   31BDTP    S238812   5.743   0.816   0.570 -0.0857 -0.0773  0.0574
   32FTM     S138813   5.546   0.965   0.284  0.3021 -0.0013  0.1326
   32FTM     C138814   5.389   1.035   0.340  0.1500 -0.3202  0.1106
   32FTM     C238815   5.412   1.128   0.437 -0.0348 -0.1029 -0.0514
   32FTM     C338816   5.549   1.150   0.473 -0.0689  0.3147 -0.1656
   32FTM     C438817   5.634   1.071   0.401  0.0953  0.4206 -0.0885
   32FTM     F138818   5.310   1.198   0.499 -0.1842 -0.2693 -0.1060
   32FTM     C538819   5.260   0.995   0.275 -0.6241  0.3591 -0.6055
   32FTM     C638820   5.173   0.884   0.338 -0.8306 -0.3632 -0.3639
   32FTM     C738821   5.231   0.746   0.358 -0.0164  0.3511 -0.2394
   32FTM     C838822   5.316   0.690   0.246 -0.4996  0.6429 -0.4957
   32FTM     C938823   5.351   0.542   0.287  1.3257  0.2460 -0.3446
   32FTM    C1038824   5.493   0.523   0.338 -0.0862  0.5706  0.1427
   32FTM    C1138825   5.076   0.918   0.454 -0.3272  0.3578 -0.0762
   32FTM    C1238826   4.998   1.046   0.446 -0.2781 -0.0207  0.8100
   33FTM     S138827   6.302   1.034   0.582 -0.3623 -0.2524  0.0541
   33FTM     C138828   6.455   0.986   0.500 -0.2256  0.1375  0.0746
   33FTM     C238829   6.429   0.951   0.371 -0.0259  0.6609 -0.1164
   33FTM     C338830   6.292   0.958   0.330  0.0315  0.7876 -0.2862
   33FTM     C438831   6.210   1.002   0.430 -0.1293  0.3469 -0.2232
   33FTM     F138832   6.527   0.909   0.283  0.1166  1.0563 -0.1488
   33FTM     C538833   6.584   0.978   0.573  0.3515  0.7686 -0.2492
   33FTM     C638834   6.632   0.838   0.616 -0.5630 -0.2300 -0.7404
   33FTM     C738835   6.525   0.746   0.691 -0.6800 -0.6036 -0.1230
   33FTM     C838836   6.455   0.810   0.813 -0.5293  0.2855 -0.8712
   33FTM     C938837   6.357   0.724   0.890  0.4508 -0.3006 -0.5875
   33FTM    C1038838   6.401   0.599   0.959  0.1806  0.5083 -0.2829
   33FTM    C1138839   6.774   0.841   0.684  0.5539 -0.3093 -0.5354
   33FTM    C1238840   6.856   0.711   0.712 -0.4470  0.1111 -0.0551
   34TPM     C138841   5.906   0.603   0.666 -0.3642 -0.1523 -0.1321
   34TPM     C238842   5.804   0.512   0.671 -0.3028 -0.2229 -0.1622
   34TPM     C338843   5.846   0.380   0.710 -0.2224 -0.1939 -0.1502
   34TPM     C438844   5.980   0.370   0.735 -0.2225 -0.1012 -0.1110
   34TPM     S138845   6.064   0.528   0.711 -0.3249 -0.0429 -0.0860
   35BDD     C138846   6.186   0.130   0.966  0.2059  0.1576 -0.1613
   35BDD     C238847   6.126   0.047   0.876  0.1980  0.1201 -0.1219
   35BDD     C338848   6.044   0.118   0.779  0.2669  0.0890 -0.2034
   35BDD     C438849   6.043   0.253   0.797  0.3265  0.1032 -0.3037
   35BDD     S138850   6.145   0.302   0.937  0.3003  0.1564 -0.3030
   35BDD     C538851   6.141  -0.100   0.875  0.1270  0.1118 -0.0080
   35BDD     C638852   5.969   0.049   0.672  0.2714  0.0464 -0.1788
   35BDD     O138853   5.899   0.110   0.589  0.3309  0.0196 -0.2490
   35BDD     O238854   6.212  -0.161   0.958  0.0675  0.1385  0.0622
   35BDD     C738855   5.985  -0.098   0.671  0.2002  0.0379 -0.0649
   35BDD     C838856   6.067  -0.169   0.768  0.1311  0.0689  0.0165
   35BDD     C938857   6.067  -0.305   0.749  0.0718  0.0548  0.1168
   35BDD     S238858   5.965  -0.353   0.610  0.0979  0.0016  0.1161
   35BDD    C1038859   5.924  -0.181   0.580  0.1923  0.0005 -0.0256
   35BDD    C1138860   5.845  -0.165   0.449 -0.0154  0.1560 -0.3342
   35BDD    C1238861   5.694  -0.152   0.466  0.2424  0.6106 -0.1824
   35BDD    C1338862   5.617  -0.117   0.337 -0.3354 -0.2348 -0.4174
   35BDD    C1438863   5.668   0.011   0.270  0.2351  0.0041 -0.2622
   35BDD    C1538864   5.573   0.072   0.165 -0.6661  0.2866 -1.0624
   35BDD    C1638865   5.596   0.219   0.148  0.0053 -0.1292 -0.3939
   35BDD    C1738866   5.616  -0.263   0.544 -0.5081 -0.4453  0.0284
   35BDD    C1838867   5.615  -0.411   0.490  0.4274  0.2754  0.8848
   35BDD    C1938868   6.126  -0.425   0.815  0.2419 -0.0856  0.6094
   35BDD    C2038869   6.051  -0.480   0.936  0.4059 -0.3466 -0.0041
   35BDD    C2138870   6.127  -0.591   1.007 -0.1061  0.3554 -0.4892
   35BDD    C2238871   6.173  -0.710   0.928 -0.8363  0.4339 -0.4196
   35BDD    C2338872   6.243  -0.803   1.028  0.0996 -0.5149 -1.1062
   35BDD    C2438873   6.316  -0.914   0.964 -0.2891  0.3802 -0.0638
   35BDD    C2538874   5.895  -0.507   0.927 -0.5450  0.4959 -0.1414
   35BDD    C2638875   5.807  -0.543   1.043  0.8005  0.2635 -0.0231
   36TPM     C138876   6.278   0.114   1.077  0.2333 -0.9615  0.2272
   36TPM     C238877   6.271   0.028   1.183  0.9773 -0.9024  0.3355
   36TPM     C338878   6.366   0.058   1.288  1.0186 -0.2080  0.1157
   36TPM     C438879   6.445   0.166   1.262  0.3061  0.2623 -0.1600
   36TPM     S138880   6.406   0.240   1.102 -0.4786 -0.1383 -0.1636
   37BDTP    C138881   6.800   0.457   1.695  0.2651  0.1218  0.2750
   37BDTP    C238882   6.821   0.535   1.578  0.1798  0.1553  0.2821
   37BDTP    C338883   6.763   0.504   1.455  0.1731  0.1318  0.2911
   37BDTP    C438884   6.680   0.391   1.448  0.2544  0.0723  0.2934
   37BDTP    C538885   6.659   0.312   1.565  0.3396  0.0388  0.2864
   37BDTP    C638886   6.717   0.343   1.688  0.3463  0.0623  0.2773
   37BDTP    C738887   6.609   0.339   1.333  0.2645  0.0384  0.3023
   37BDTP    C838888   6.537   0.227   1.357  0.3523 -0.0183  0.3023
   37BDTP    S138889   6.549   0.171   1.530  0.4343 -0.0367  0.2910
   37BDTP    C938890   6.871   0.509   1.810  0.2548  0.1557  0.2661
   37BDTP   C1038891   6.943   0.621   1.786  0.1671  0.2124  0.2661
   37BDTP    S238892   6.931   0.676   1.613  0.0852  0.2308  0.2774
   38FTM     S138893   6.945   0.645   1.280 -0.2023  0.1141 -0.0390
   38FTM     C138894   6.867   0.762   1.167 -0.4165 -0.1737 -0.1915
   38FTM     C238895   6.732   0.757   1.180 -0.4126 -0.4640 -0.2457
   38FTM     C338896   6.682   0.664   1.277 -0.2465 -0.4800 -0.1736
   38FTM     C438897   6.781   0.596   1.340 -0.1194 -0.1925 -0.0606
   38FTM     F138898   6.646   0.836   1.105 -0.5590 -0.7325 -0.3638
   38FTM     C538899   6.958   0.856   1.080  0.1480  0.0839  0.1348
   38FTM     C638900   7.024   0.974   1.145  0.3128  0.5563  0.4830
   38FTM     C738901   7.159   0.942   1.220 -0.2335  0.2437  0.1477
   38FTM     C838902   7.277   0.872   1.148  0.4869 -0.0427  0.2234
   38FTM     C938903   7.356   0.945   1.028  0.1621  0.2718  0.5510
   38FTM    C1038904   7.473   0.867   0.972 -0.2888  0.5534  0.6262
   38FTM    C1138905   6.923   1.064   1.206  0.2940  0.2754 -0.1074
   38FTM    C1238906   6.968   1.198   1.279 -0.2636  0.0498  0.1343
   39FTM     S138907   6.666   0.307   1.970  0.0443  0.0631  0.1210
   39FTM     C138908   6.653   0.137   2.027  0.3515  0.1513  0.4576
   39FTM     C238909   6.677   0.052   1.925 -0.0887 -0.0075  0.4823
   39FTM     C338910   6.707   0.112   1.798 -0.6776 -0.2028  0.2468
   39FTM     C438911   6.705   0.248   1.804 -0.6886 -0.1932  0.0347
   39FTM     F138912   6.674  -0.086   1.939  0.0154  0.0143  0.7198
   39FTM     C538913   6.626   0.102   2.172 -0.0981 -0.0614 -0.2010
   39FTM     C638914   6.483   0.078   2.230 -0.3609 -0.0434 -0.7339
   39FTM     C738915   6.474   0.021   2.373 -0.3206  0.4858 -0.1208
   39FTM     C838916   6.563  -0.106   2.406  0.6262 -0.5544 -0.8197
   39FTM     C938917   6.575  -0.151   2.550  0.8772  0.0762 -0.3362
   39FTM    C1038918   6.441  -0.185   2.620 -0.0406  0.3318  0.0471
   39FTM    C1138919   6.377   0.184   2.208 -0.2008 -0.6139 -0.2629
   39FTM    C1238920   6.407   0.312   2.298 -0.4280  0.2557 -0.4958
   40TPM     C138921   7.022   0.697   1.878 -0.6194  0.2411  0.0262
   40TPM     C238922   7.028   0.703   2.014 -0.4354 -0.0948  0.0341
   40TPM     C338923   7.129   0.793   2.063 -0.1856 -0.4165  0.1263
   40TPM     C438924   7.198   0.857   1.965 -0.1792 -0.3259  0.1886
   40TPM     S138925   7.142   0.806   1.801 -0.4905  0.1766  0.1353
   41BDD     C138926   7.568   0.984   1.954 -0.1507  0.1919 -0.0480
   41BDD     C238927   7.506   1.059   2.050 -0.1853  0.1423 -0.0315
   41BDD     C338928   7.368   1.020   2.073 -0.1194 -0.0312  0.0730
   41BDD     C438929   7.326   0.916   1.995 -0.0357 -0.1114  0.1346
   41BDD     S138930   7.457   0.859   1.886 -0.0334  0.0248  0.0661
   41BDD     C538931   7.571   1.169   2.124 -0.2800  0.2525 -0.1112
   41BDD     C638932   7.282   1.087   2.173 -0.1421 -0.1112  0.1078
   41BDD     O138933   7.163   1.054   2.193 -0.0855 -0.2608  0.1979
   41BDD     O238934   7.690   1.202   2.104 -0.3369  0.4021 -0.2012
   41BDD     C738935   7.347   1.197   2.247 -0.2367 -0.0010  0.0282
   41BDD     C838936   7.485   1.236   2.223 -0.3026  0.1726 -0.0762
   41BDD     C938937   7.526   1.340   2.302 -0.3866  0.2527 -0.1379
   41BDD     S238938   7.395   1.397   2.411 -0.3888  0.1164 -0.0694
   41BDD    C1038939   7.285   1.272   2.343 -0.2716 -0.0506  0.0447
   41BDD    C1138940   7.143   1.289   2.400 -0.1678  0.0538 -0.0220
   41BDD    C1238941   7.043   1.364   2.309  0.4843 -0.8824  0.5030
   41BDD    C1338942   6.891   1.341   2.352 -0.2006 -0.0103 -0.2989
   41BDD    C1438943   6.848   1.198   2.320  0.2418 -0.3587  0.2918
   41BDD    C1538944   6.845   1.157   2.172 -0.1913  0.5594 -0.7242
   41BDD    C1638945   6.744   1.234   2.092  0.0842 -0.0904 -0.0362
   41BDD    C1738946   7.078   1.511   2.270 -0.0585  0.1285 -1.0262
   41BDD    C1838947   6.995   1.570   2.155 -0.4814 -0.8800 -0.6891
   41BDD    C1938948   7.662   1.414   2.326  0.8251  0.1340  0.6582
   41BDD    C2038949   7.726   1.387   2.459 -0.0086  0.8550  0.3099
   41BDD    C2138950   7.823   1.493   2.506 -0.7210 -0.0563 -0.6619
   41BDD    C2238951   7.768   1.640   2.520 -0.4232 -0.9032 -0.1498
   41BDD    C2338952   7.641   1.651   2.601  0.2212 -0.2923  0.2795
   41BDD    C2438953   7.646   1.610   2.748 -0.1017 -0.0178 -0.2711
   41BDD    C2538954   7.782   1.242   2.475 -0.3386 -0.8477 -0.0858
   41BDD    C2638955   7.887   1.203   2.373 -0.0633  0.5566 -0.2604
   42TPM     C138956   7.699   0.989   1.889 -0.2092  0.2465  0.1462
   42TPM     C238957   7.766   0.876   1.852 -0.5236  0.1238 -0.0572
   42TPM     C338958   7.893   0.902   1.789 -0.6008 -0.1101 -0.3105
   42TPM     C438959   7.923   1.034   1.777 -0.3454 -0.1657 -0.3002
   42TPM     S138960   7.792   1.138   1.846  0.0153  0.0749  0.0327
   43BDTP    C138961   8.473   1.244   1.560  0.0024 -0.0078  0.3024
   43BDTP    C238962   8.420   1.359   1.625 -0.0947  0.0266  0.1651
   43BDTP    C338963   8.297   1.360   1.689 -0.1535  0.0372  0.0505
   43BDTP    C438964   8.221   1.241   1.688 -0.1159  0.0128  0.0721
   43BDTP    C538965   8.274   1.126   1.622 -0.0188 -0.0217  0.2094
   43BDTP    C638966   8.398   1.125   1.559  0.0401 -0.0322  0.3240
   43BDTP    C738967   8.091   1.217   1.746 -0.1632  0.0177 -0.0304
   43BDTP    C838968   8.044   1.091   1.728 -0.1073 -0.0110  0.0227
   43BDTP    S138969   8.158   0.985   1.634  0.0134 -0.0483  0.2099
   43BDTP    C938970   8.603   1.268   1.501  0.0496 -0.0128  0.4049
   43BDTP   C1038971   8.650   1.394   1.519 -0.0064  0.0159  0.3518
   43BDTP    S238972   8.536   1.500   1.613 -0.1270  0.0532  0.1646
   44FTM     S138973   8.086   1.545   1.743  0.0894  0.2570 -0.4043
   44FTM     C138974   8.120   1.671   1.868  0.2064  0.1691 -0.3481
   44FTM     C238975   8.248   1.657   1.913  0.0787 -0.2044 -0.0867
   44FTM     C338976   8.325   1.551   1.855 -0.1137 -0.4395  0.0818
   44FTM     C438977   8.254   1.481   1.762 -0.1336 -0.2394 -0.0551
   44FTM     F138978   8.303   1.740   2.010  0.1280 -0.3558  0.0156
   44FTM     C538979   8.014   1.765   1.917 -0.1752  0.1965 -0.7148
   44FTM     C638980   7.936   1.732   2.044  0.2831 -0.3063  0.1543
   44FTM     C738981   7.876   1.596   2.077  0.4722  0.1435  0.1972
   44FTM     C838982   7.790   1.514   1.979  0.2917 -0.3060 -0.7156
   44FTM     C938983   7.674   1.581   1.922  0.2028  0.1242  0.4941
   44FTM    C1038984   7.613   1.502   1.812 -0.0984  0.0489 -0.4561
   44FTM    C1138985   7.865   1.857   2.087  0.5314 -0.7063  0.5470
   44FTM    C1238986   7.802   1.857   2.226 -0.1226  0.0823 -0.8392
   45FTM     S138987   8.482   1.004   1.303 -0.0994 -0.0294 -0.2282
   45FTM     C138988   8.523   0.829   1.314 -0.0113 -0.0164 -0.3434
   45FTM     C238989   8.503   0.785   1.441  0.0000 -0.1129 -0.3750
   45FTM     C338990   8.456   0.882   1.535 -0.0582 -0.2006 -0.3130
   45FTM     C438991   8.439   1.005   1.478 -0.1154 -0.1704 -0.2313
   45FTM     F138992   8.527   0.654   1.480  0.0632 -0.1274 -0.4619
   45FTM     C538993   8.531   0.754   1.188  0.1129 -0.5161 -0.0264
   45FTM     C638994   8.407   0.701   1.113  0.2726 -0.5730 -0.0222
   45FTM     C738995   8.435   0.691   0.965 -0.6475 -0.1390  0.5903
   45FTM     C838996   8.457   0.815   0.882 -0.4510 -0.6427 -0.1365
   45FTM     C938997   8.341   0.886   0.810  0.2077  0.0092 -0.7176
   45FTM    C1038998   8.364   1.007   0.715 -0.4814 -0.2705 -0.4500
   45FTM    C1138999   8.313   0.595   1.170 -0.1207  0.2443 -0.2440
   45FTM    C1239000   8.364   0.461   1.227 -0.3200 -0.0827 -0.0156
   46TPM     C139001   8.770   1.443   1.454 -0.1090  0.1200 -0.2928
   46TPM     C239002   8.792   1.574   1.426 -0.1070  0.0038 -0.8599
   46TPM     C339003   8.917   1.599   1.358 -0.0660 -0.2777 -0.8889
   46TPM     C439004   8.990   1.486   1.335 -0.0369 -0.3760 -0.3440
   46TPM     S139005   8.906   1.339   1.397 -0.0592 -0.1188  0.2528
   47BDD     C139006   9.378   1.446   1.367 -0.0402  0.1171 -0.1089
   47BDD     C239007   9.360   1.536   1.266 -0.0179  0.1003 -0.1279
   47BDD     C339008   9.221   1.565   1.238 -0.0114  0.1046 -0.1559
   47BDD     C439009   9.134   1.497   1.319 -0.0292  0.1246 -0.1578
   47BDD     S139010   9.221   1.391   1.434 -0.0551  0.1394 -0.1247
   47BDD     C539011   9.471   1.599   1.191 -0.0014  0.0798 -0.1209
   47BDD     C639012   9.178   1.660   1.133  0.0119  0.0887 -0.1796
   47BDD     O139013   9.058   1.685   1.109  0.0174  0.0923 -0.2038
   47BDD     O239014   9.591   1.574   1.214 -0.0069  0.0762 -0.0968
   47BDD     C739015   9.289   1.723   1.058  0.0284  0.0681 -0.1727
   47BDD     C839016   9.429   1.694   1.086  0.0219  0.0639 -0.1447
   47BDD     C939017   9.515   1.763   1.005  0.0393  0.0440 -0.1428
   47BDD     S239018   9.428   1.869   0.890  0.0652  0.0291 -0.1759
   47BDD    C1039019   9.271   1.814   0.957  0.0505  0.0513 -0.1917
   47BDD    C1139020   9.143   1.866   0.885 -0.3428  0.6552 -0.6036
   47BDD    C1239021   9.092   2.007   0.930 -0.0576 -0.2170  1.1275
   47BDD    C1339022   8.944   2.037   0.901 -0.7021  0.1982 -0.6222
   47BDD    C1439023   8.853   1.948   0.975  0.6371  0.8408 -0.2945
   47BDD    C1539024   8.851   1.968   1.129  0.2062 -0.1525  0.4619
   47BDD    C1639025   8.758   1.880   1.222 -0.1870 -0.1591  0.9885
   47BDD    C1739026   9.165   2.126   0.860 -1.0194  0.0972  0.5713
   47BDD    C1839027   9.175   2.142   0.704 -0.1077 -0.4328 -0.7154
   47BDD    C1939028   9.666   1.781   0.994 -0.2815  0.6118  0.1237
   47BDD    C2039029   9.729   1.901   1.070 -0.1900 -0.8875  0.3442
   47BDD    C2139030   9.677   1.946   1.209 -0.6597  0.1326 -0.1025
   47BDD    C2239031   9.709   1.855   1.328  0.0744  0.3125  0.7128
   47BDD    C2339032   9.627   1.887   1.450  0.6034  0.7626 -0.2730
   47BDD    C2439033   9.655   1.803   1.572  0.2441  0.2815 -0.0761
   47BDD    C2539034   9.882   1.903   1.046 -0.3015  0.3839 -0.9382
   47BDD    C2639035   9.974   1.809   1.123 -0.1858  0.2443 -0.5877
   48TPM     C139036   9.485   1.382   1.443 -0.0002 -0.1446  0.1406
   48TPM     C239037   9.603   1.445   1.469 -0.1132  0.0744  0.1336
   48TPM     C339038   9.682   1.380   1.570 -0.0103  0.2499  0.1668
   48TPM     C439039   9.624   1.268   1.622  0.1813  0.1647  0.1991
   48TPM     S139040   9.464   1.235   1.546  0.2474 -0.1462  0.1901
   49BDTP    C139041   9.832   0.892   2.075  0.0003  0.3201 -0.0711
   49BDTP    C239042   9.691   0.873   2.078  0.0188  0.1525 -0.1881
   49BDTP    C339043   9.605   0.938   1.991  0.0150  0.0401 -0.2682
   49BDTP    C439044   9.660   1.025   1.896 -0.0079  0.0952 -0.2314
   49BDTP    C539045   9.801   1.044   1.892 -0.0264  0.2627 -0.1143
   49BDTP    C639046   9.888   0.979   1.980 -0.0227  0.3752 -0.0342
   49BDTP    C739047   9.591   1.103   1.795 -0.0164  0.0015 -0.2986
   49BDTP    C839048   9.673   1.178   1.717 -0.0394  0.0896 -0.2384
   49BDTP    S139049   9.848   1.161   1.760 -0.0544  0.3034 -0.0882
   49BDTP    C939050   9.901   0.814   2.176  0.0084  0.4137 -0.0039
   49BDTP   C1039051   9.820   0.738   2.253  0.0318  0.3257 -0.0640
   49BDTP    S239052   9.644   0.756   2.210  0.0468  0.1118 -0.2143
   50FTM     S139053   9.339   0.935   1.871  0.0675  0.0197  0.1078
   50FTM     C139054   9.200   0.934   1.985 -0.0145  0.1708  0.0112
   50FTM     C239055   9.246   0.930   2.113 -0.1080  0.1375  0.0436
   50FTM     C339056   9.388   0.927   2.130 -0.1211 -0.0042  0.1432
   50FTM     C439057   9.453   0.930   2.010 -0.0349 -0.0818  0.1884
   50FTM     F139058   9.161   0.928   2.223 -0.1867  0.2333 -0.0150
   50FTM     C539059   9.053   0.940   1.935 -0.3730 -0.7622 -0.1970
   50FTM     C639060   8.990   1.082   1.918 -0.5413  0.5471 -0.4327
   50FTM     C739061   8.845   1.092   1.869  0.3922  0.1680 -0.0241
   50FTM     C839062   8.740   1.037   1.977  0.9531  0.6769 -0.0707
   50FTM     C939063   8.591   1.070   1.953  0.1837  0.6256 -0.2137
   50FTM    C1039064   8.554   1.216   1.980  0.2799 -0.3500 -0.2684
   50FTM    C1139065   9.083   1.192   1.865  0.0087 -0.1359  0.2152
   50FTM    C1239066   9.108   1.198   1.716 -0.1131  0.0976  0.1548
   51FTM     S139067  10.101   1.160   1.985  0.0722  0.2125 -0.1651
   51FTM     C139068  10.267   1.095   1.964  0.0575  0.0929  0.0771
   51FTM     C239069  10.263   0.959   1.949 -0.0122  0.0890  0.1350
   51FTM     C339070  10.132   0.900   1.953 -0.0574  0.1766 -0.0021
   51FTM     C439071  10.034   0.992   1.972 -0.0210  0.2500 -0.1706
   51FTM     F139072  10.376   0.882   1.930 -0.0393  0.0058  0.3156
   51FTM     C539073  10.385   1.193   1.976 -0.0138  0.2341  0.2221
   51FTM     C639074  10.400   1.330   1.903 -0.7374  0.0923 -1.2845
   51FTM     C739075  10.328   1.451   1.970 -0.0780  0.1781 -0.3989
   51FTM     C839076  10.332   1.477   2.123  0.7408 -0.4572  0.5763
   51FTM     C939077  10.228   1.583   2.168 -0.1409  0.7594 -0.3275
   51FTM    C1039078  10.251   1.613   2.312 -0.8729  0.2549  0.0904
   51FTM    C1139079  10.411   1.331   1.749  0.1329 -0.1830 -0.3295
   51FTM    C1239080  10.485   1.445   1.687  0.5451 -0.5095 -0.3239
   52TPM     C139081   9.857   0.640   2.354 -0.1870 -0.0225  0.2988
   52TPM     C239082   9.776   0.553   2.422 -0.0034  0.0013  0.5522
   52TPM     C339083   9.848   0.459   2.503  0.2153  0.1117  0.4903
   52TPM     C439084   9.983   0.473   2.498  0.1984  0.1721  0.1899
   52TPM     S139085  10.031   0.608   2.388 -0.0973  0.0936 -0.0401
   53BDD     C139086  10.272   0.214   2.556 -0.1521 -0.2130  0.0795
   53BDD     C239087  10.195   0.207   2.669 -0.0958 -0.1344  0.1231
   53BDD     C339088  10.079   0.294   2.664  0.0173  0.0221  0.2100
   53BDD     C439089  10.069   0.366   2.548  0.0455  0.0605  0.2314
   53BDD     S139090  10.205   0.330   2.437 -0.0674 -0.0966  0.1443
   53BDD     C539091  10.225   0.120   2.784 -0.1439 -0.2002  0.0865
   53BDD     C639092   9.982   0.302   2.775  0.0931  0.1279  0.2687
   53BDD     O139093   9.881   0.377   2.772  0.1906  0.2628  0.3436
   53BDD     O239094  10.326   0.045   2.788 -0.2414 -0.3351  0.0116
   53BDD     C739095  10.012   0.215   2.891  0.0450  0.0621  0.2320
   53BDD     C839096  10.128   0.129   2.895 -0.0680 -0.0944  0.1451
   53BDD     C939097  10.138   0.057   3.011 -0.0963 -0.1328  0.1237
   53BDD     S239098  10.002   0.093   3.123  0.0167  0.0243  0.2108
   53BDD    C1039099   9.935   0.209   3.004  0.1013  0.1407  0.2757
   53BDD    C1139100   9.805   0.281   3.041  0.3699  0.2454  0.0814
   53BDD    C1239101   9.808   0.430   3.082 -0.1127  0.4477  0.1386
   53BDD    C1339102   9.665   0.492   3.086 -0.4715 -0.0878  0.1844
   53BDD    C1439103   9.571   0.469   2.969  0.3517 -0.0595 -0.5665
   53BDD    C1539104   9.442   0.552   2.978 -0.7535 -0.0292 -0.0099
   53BDD    C1639105   9.346   0.500   2.870 -0.6211 -0.4298 -0.0165
   53BDD    C1739106   9.901   0.478   3.199  0.1212 -0.2045  0.4512
   53BDD    C1839107   9.863   0.423   3.335 -0.3185  0.3383 -0.5724
   53BDD    C1939108  10.239  -0.041   3.078  0.0419  0.6984 -0.4967
   53BDD    C2039109  10.387  -0.008   3.081 -0.3990  0.0606  0.3306
   53BDD    C2139110  10.488  -0.110   3.137  0.2171  1.3797  0.0465
   53BDD    C2239111  10.476  -0.262   3.102 -0.5356  0.3924 -0.2503
   53BDD    C2339112  10.445  -0.300   2.957  0.5063 -0.4514  0.4519
   53BDD    C2439113  10.523  -0.224   2.848  0.3890 -0.0056  0.5980
   53BDD    C2539114  10.403   0.136   3.129 -0.6351  0.8512  0.6587
   53BDD    C2639115  10.538   0.191   3.112 -0.3467  0.3314 -0.2007
   54TPM     C139116  10.410   0.166   2.514  0.2656  0.2692  0.2121
   54TPM     C239117  10.426   0.102   2.394  0.1502  0.2932  0.1839
   54TPM     C339118  10.556   0.043   2.377  0.0646  0.1221  0.1296
   54TPM     C439119  10.639   0.060   2.484  0.1146 -0.0324  0.1164
   54TPM     S139120  10.559   0.154   2.615  0.2751  0.0268  0.1720
   55BDTP    C139121  11.211  -0.187   2.499  0.0207  0.0076  0.0419
   55BDTP    C239122  11.155  -0.230   2.623  0.1871  0.1266  0.1593
   55BDTP    C339123  11.027  -0.193   2.664  0.2238  0.1273  0.2742
   55BDTP    C439124  10.952  -0.110   2.579  0.0904  0.0045  0.2736
   55BDTP    C539125  11.008  -0.068   2.455 -0.0761 -0.1144  0.1562
   55BDTP    C639126  11.136  -0.105   2.414 -0.1127 -0.1147  0.0412
   55BDTP    C739127  10.818  -0.060   2.599  0.0976 -0.0194  0.3806
   55BDTP    C839128  10.771   0.018   2.498 -0.0534 -0.1493  0.3494
   55BDTP    S139129  10.891   0.037   2.363 -0.2259 -0.2592  0.1804
   55BDTP    C939130  11.345  -0.238   2.478  0.0135  0.0319 -0.0650
   55BDTP   C1039131  11.392  -0.315   2.579  0.1644  0.1616 -0.0339
   55BDTP    S239132  11.272  -0.335   2.715  0.3370  0.2713  0.1350
   56FTM     S139133  11.036  -0.204   2.950 -0.1514 -0.0460  0.1658
   56FTM     C139134  10.917  -0.314   3.028 -0.2333 -0.1618 -0.1226
   56FTM     C239135  10.840  -0.374   2.933  0.0926 -0.2809 -0.3124
   56FTM     C339136  10.869  -0.338   2.797  0.4180 -0.2892 -0.2466
   56FTM     C439137  10.971  -0.249   2.788  0.3387 -0.1726  0.0016
   56FTM     F139138  10.740  -0.464   2.963  0.1156 -0.3898 -0.5569
   56FTM     C539139  10.914  -0.354   3.175 -0.2317  0.1203  0.6221
   56FTM     C639140  11.009  -0.468   3.212  0.0234  0.5410  0.1433
   56FTM     C739141  10.958  -0.545   3.337 -0.2275 -0.2883 -0.1902
   56FTM     C839142  10.834  -0.638   3.333  0.0913  0.0059  0.1224
   56FTM     C939143  10.832  -0.748   3.220 -0.4553 -1.0331 -0.6426
   56FTM    C1039144  10.737  -0.859   3.237  0.0550  0.6291  0.1089
   56FTM    C1139145  11.159  -0.461   3.192  0.5355 -0.7786 -0.3290
   56FTM    C1239146  11.235  -0.360   3.266 -0.2811 -0.6250 -0.7235
   57FTM     S139147  11.343   0.022   2.268 -0.1027  0.5204  0.1459
   57FTM     C139148  11.317   0.034   2.090  0.1933  0.1151  0.0733
   57FTM     C239149  11.198  -0.022   2.057  0.5370 -0.5392 -0.0847
   57FTM     C339150  11.121  -0.077   2.165  0.5899 -0.7601 -0.1571
   57FTM     C439151  11.184  -0.062   2.285  0.2764 -0.2581 -0.0512
   57FTM     F139152  11.151  -0.028   1.927  0.8242 -0.9772 -0.1731
   57FTM     C539153  11.441   0.079   2.015  0.0229 -0.1715  0.4991
   57FTM     C639154  11.433   0.093   1.862  0.1005  0.2903 -0.3466
   57FTM     C739155  11.410  -0.036   1.780  0.7633  0.5483  0.0071
   57FTM     C839156  11.505  -0.156   1.789 -0.1235  0.4320 -0.0605
   57FTM     C939157  11.467  -0.279   1.704  0.5791  0.3177 -0.2470
   57FTM    C1039158  11.354  -0.366   1.751  0.4311 -0.6869 -0.2498
   57FTM    C1139159  11.365   0.215   1.803 -0.5772  0.5915 -0.1893
   57FTM    C1239160  11.404   0.352   1.862 -0.1469 -0.6873 -0.3760
   58TPM     C139161  11.519  -0.375   2.589 -0.0558 -0.3114  0.0583
   58TPM     C239162  11.612  -0.411   2.496 -0.0919 -0.2911  0.0143
   58TPM     C339163  11.737  -0.456   2.552 -0.0331 -0.2034 -0.0463
   58TPM     C439164  11.739  -0.453   2.688  0.0478 -0.1570 -0.0485
   58TPM     S139165  11.583  -0.394   2.757  0.0561 -0.2211  0.0263
   59BDD     C139166  11.925  -0.712   2.909 -0.0731 -0.1219 -0.0727
   59BDD     C239167  12.024  -0.647   2.839 -0.0471 -0.1185 -0.0333
   59BDD     C339168  11.973  -0.542   2.752  0.0015  0.0024  0.0834
   59BDD     C439169  11.837  -0.528   2.757  0.0121  0.0891  0.1314
   59BDD     S139170  11.763  -0.645   2.871 -0.0382  0.0257  0.0336
   59BDD     C539171  12.167  -0.680   2.849 -0.0663 -0.2260 -0.1016
   59BDD     C639172  12.062  -0.460   2.667  0.0357  0.0272  0.1433
   59BDD     O139173  12.018  -0.369   2.592  0.0777  0.1316  0.2440
   59BDD     O239174  12.211  -0.770   2.924 -0.1082 -0.3302 -0.2022
   59BDD     C739175  12.205  -0.492   2.677  0.0167 -0.0803  0.0751
   59BDD     C839176  12.256  -0.597   2.764 -0.0319 -0.2012 -0.0417
   59BDD     C939177  12.392  -0.611   2.759 -0.0424 -0.2882 -0.0896
   59BDD     S239178  12.466  -0.494   2.645  0.0078 -0.2247  0.0081
   59BDD    C1039179  12.304  -0.428   2.607  0.0426 -0.0770  0.1145
   59BDD    C1139180  12.299  -0.317   2.509  0.3492 -0.8674  0.7678
   59BDD    C1239181  12.267  -0.354   2.359 -0.1880  0.2193 -0.6894
   59BDD    C1339182  12.226  -0.233   2.267  0.3623  0.1818  0.5301
   59BDD    C1439183  12.100  -0.155   2.294 -0.1283  0.2608 -0.1878
   59BDD    C1539184  11.975  -0.206   2.224  0.1713 -0.1375 -0.2992
   59BDD    C1639185  11.854  -0.117   2.247 -0.2691  0.2971  0.0548
   59BDD    C1739186  12.370  -0.451   2.309 -0.5966 -0.7979  0.1007
   59BDD    C1839187  12.506  -0.394   2.265 -0.0588 -0.1373  0.1297
   59BDD    C1939188  12.505  -0.680   2.838  0.1686 -0.7052 -0.1568
   59BDD    C2039189  12.568  -0.810   2.777  0.4835 -0.5055  0.0934
   59BDD    C2139190  12.699  -0.850   2.844 -0.4377  0.4367 -0.3213
   59BDD    C2239191  12.691  -0.915   2.980 -0.1540  0.0994 -0.0675
   59BDD    C2339192  12.825  -0.967   3.030  0.2602 -0.9059 -1.1001
   59BDD    C2439193  12.842  -0.969   3.184  0.0426  0.3647 -0.2292
   59BDD    C2539194  12.468  -0.924   2.747  0.3052 -0.0681  0.0408
   59BDD    C2639195  12.509  -1.042   2.656  0.6268  0.2037  0.5998
   60TPM     C139196  11.916  -0.822   2.999  0.0243 -0.5012 -0.2656
   60TPM     C239197  11.815  -0.914   2.986  0.0167 -0.5512  0.1303
   60TPM     C339198  11.824  -1.023   3.079  0.0596 -0.1986  0.5462
   60TPM     C439199  11.931  -1.015   3.163  0.0999  0.1207  0.4673
   60TPM     S139200  12.030  -0.868   3.131  0.0867 -0.0007 -0.1430
    1BDTP    C139201   5.677   6.437   8.094 -0.3183 -0.0958 -0.0477
    1BDTP    C239202   5.659   6.520   7.980 -0.1887 -0.1173 -0.0838
    1BDTP    C339203   5.593   6.476   7.865 -0.1111 -0.1194 -0.1274
    1BDTP    C439204   5.543   6.345   7.863 -0.1636 -0.0993 -0.1361
    1BDTP    C539205   5.561   6.262   7.978 -0.2931 -0.0777 -0.1000
    1BDTP    C639206   5.626   6.305   8.093 -0.3706 -0.0757 -0.0565
    1BDTP    C739207   5.472   6.277   7.756 -0.1019 -0.0972 -0.1784
    1BDTP    C839208   5.436   6.150   7.785 -0.1777 -0.0755 -0.1761
    1BDTP    S139209   5.487   6.097   7.951 -0.3381 -0.0546 -0.1198
    1BDTP    C939210   5.748   6.504   8.201 -0.3799 -0.0979 -0.0052
    1BDTP   C1039211   5.783   6.631   8.173 -0.3040 -0.1197 -0.0076
    1BDTP    S239212   5.732   6.684   8.006 -0.1437 -0.1407 -0.0641
    2FTM     S139213   5.601   6.510   7.578 -0.1419  0.1658 -0.2706
    2FTM     C139214   5.532   6.667   7.520 -0.3064  0.1971  0.0060
    2FTM     C239215   5.501   6.746   7.627 -0.3341  0.0007  0.1448
    2FTM     C339216   5.528   6.691   7.756 -0.2316 -0.1816  0.0473
    2FTM     C439217   5.582   6.566   7.749 -0.1221 -0.1228 -0.1737
    2FTM     F139218   5.446   6.872   7.613 -0.4538 -0.0256  0.3686
    2FTM     C539219   5.506   6.692   7.377 -0.3363  0.2097 -0.3140
    2FTM     C639220   5.453   6.595   7.272 -0.0746 -0.5698  0.1711
    2FTM     C739221   5.438   6.672   7.140 -0.6098 -0.2572  0.1449
    2FTM     C839222   5.551   6.670   7.035  0.0807  0.3630 -0.2560
    2FTM     C939223   5.523   6.736   6.906  0.1405 -0.3663  0.1691
    2FTM    C1039224   5.626   6.713   6.797 -0.7932 -0.8034 -1.1280
    2FTM    C1139225   5.333   6.506   7.316  0.6089  0.2984 -0.2557
    2FTM    C1239226   5.271   6.405   7.213 -0.2414  0.2675  0.4873
    3FTM     S139227   5.683   6.043   8.197  0.0302 -0.3393  0.0906
    3FTM     C139228   5.654   6.022   8.374 -0.0927 -0.3424  0.0703
    3FTM     C239229   5.611   6.139   8.428 -0.0196 -0.3128  0.0644
    3FTM     C339230   5.598   6.250   8.337  0.1328 -0.2862  0.0741
    3FTM     C439231   5.633   6.216   8.210  0.1779 -0.2959  0.0888
    3FTM     F139232   5.581   6.153   8.562 -0.0861 -0.3078  0.0489
    3FTM     C539233   5.687   5.888   8.430 -0.5699  0.1613 -0.5180
    3FTM     C639234   5.790   5.883   8.545  0.0662 -0.6923  0.3824
    3FTM     C739235   5.800   5.755   8.629 -0.1791  0.0076 -0.1402
    3FTM     C839236   5.671   5.703   8.695  0.3462  0.4713 -0.2441
    3FTM     C939237   5.672   5.568   8.763  0.1892  0.3651  0.0937
    3FTM    C1039238   5.535   5.515   8.810 -0.0609  0.0062 -0.3731
    3FTM    C1139239   5.912   5.976   8.553  0.3027  0.2153  1.3079
    3FTM    C1239240   6.027   5.937   8.459 -0.7291  0.0378  0.0170
    4TPM     C139241   5.841   6.730   8.268 -0.2086  0.5484 -0.1003
    4TPM     C239242   5.926   6.834   8.243 -0.2880  0.6853  0.1862
    4TPM     C339243   5.972   6.901   8.362 -0.3121  0.3709  0.3767
    4TPM     C439244   5.922   6.849   8.477 -0.2511 -0.0058  0.2357
    4TPM     S139245   5.813   6.710   8.445 -0.1577  0.0075 -0.1516
    5BDD     C139246   6.065   6.828   8.843 -0.2255  0.0865 -0.1887
    5BDD     C239247   6.080   6.960   8.809 -0.1652  0.0846 -0.1693
    5BDD     C339248   6.038   6.989   8.673 -0.0780  0.1085 -0.1912
    5BDD     C439249   5.992   6.880   8.605 -0.0727  0.1285 -0.2269
    5BDD     S139250   5.997   6.732   8.707 -0.1770  0.1184 -0.2358
    5BDD     C539251   6.133   7.063   8.900 -0.1857  0.0608 -0.1304
    5BDD     C639252   6.046   7.125   8.615 -0.0026  0.1110 -0.1762
    5BDD     O139253   6.010   7.151   8.498  0.0727  0.1316 -0.1950
    5BDD     O239254   6.170   7.038   9.017 -0.2611  0.0402 -0.1116
    5BDD     C739255   6.099   7.228   8.706 -0.0231  0.0870 -0.1369
    5BDD     C839256   6.141   7.199   8.842 -0.1104  0.0631 -0.1149
    5BDD     C939257   6.188   7.308   8.910 -0.1156  0.0433 -0.0796
    5BDD     S239258   6.182   7.456   8.808 -0.0114  0.0533 -0.0708
    5BDD    C1039259   6.114   7.360   8.672  0.0371  0.0851 -0.1178
    5BDD    C1139260   6.076   7.447   8.556 -0.3325  0.7866  0.0835
    5BDD    C1239261   6.176   7.447   8.443 -1.3239  0.3471  0.0812
    5BDD    C1339262   6.121   7.503   8.315 -0.6022 -0.9369  0.2467
    5BDD    C1439263   5.996   7.448   8.249 -0.5578  0.3519  0.4317
    5BDD    C1539264   6.012   7.304   8.204 -0.0381  0.3033 -0.3752
    5BDD    C1639265   5.882   7.244   8.145 -0.0049  0.9949 -0.1369
    5BDD    C1739266   6.310   7.518   8.498 -0.2224 -0.3361  0.5233
    5BDD    C1839267   6.420   7.537   8.393  0.1926 -0.0784 -0.4230
    5BDD    C1939268   6.225   7.330   9.056 -0.2944  0.4044 -0.4226
    5BDD    C2039269   6.363   7.267   9.092  0.0016 -0.2645  0.3513
    5BDD    C2139270   6.485   7.323   9.015  0.7383 -0.4081 -0.7405
    5BDD    C2239271   6.622   7.277   9.045 -0.1448 -0.6723  0.0836
    5BDD    C2339272   6.725   7.322   8.939  1.2138  0.7235 -0.0722
    5BDD    C2439273   6.858   7.247   8.952 -0.6217 -0.2981 -0.4659
    5BDD    C2539274   6.379   7.238   9.245  0.1741 -0.0842 -0.3320
    5BDD    C2639275   6.418   7.363   9.327  0.0513 -0.1752  0.0077
    6TPM     C139276   6.081   6.747   8.962 -0.0889 -0.2241 -0.3962
    6TPM     C239277   6.188   6.764   9.045  0.3481 -0.3686 -0.9193
    6TPM     C339278   6.200   6.661   9.145  0.7933 -0.4687 -1.0734
    6TPM     C439279   6.103   6.566   9.138  0.6958 -0.4004 -0.6677
    6TPM     S139280   5.987   6.599   9.004  0.0290 -0.2033 -0.0549
    7BDTP    C139281   6.060   6.129   9.585  0.3381  0.2328  0.1779
    7BDTP    C239282   5.933   6.119   9.521  0.3426  0.1097  0.1891
    7BDTP    C339283   5.897   6.197   9.412  0.2762  0.0387  0.1595
    7BDTP    C439284   5.990   6.290   9.364  0.2018  0.0918  0.1178
    7BDTP    C539285   6.117   6.301   9.428  0.1972  0.2152  0.1063
    7BDTP    C639286   6.153   6.223   9.537  0.2637  0.2860  0.1356
    7BDTP    C739287   5.976   6.382   9.253  0.1250  0.0363  0.0816
    7BDTP    C839288   6.084   6.460   9.230  0.0637  0.1112  0.0448
    7BDTP    S139289   6.220   6.428   9.347  0.0948  0.2625  0.0501
    7BDTP    C939290   6.074   6.038   9.696  0.4150  0.2884  0.2134
    7BDTP   C1039291   5.966   5.960   9.719  0.4761  0.2134  0.2503
    7BDTP    S239292   5.830   5.992   9.602  0.4452  0.0623  0.2450
    8FTM     S139293   5.698   6.011   9.319  0.0012 -0.0292  0.0473
    8FTM     C139294   5.540   6.080   9.268  0.2520  0.3720 -0.1896
    8FTM     C239295   5.544   6.216   9.275  0.5547  0.3580 -0.0920
    8FTM     C339296   5.668   6.273   9.319  0.6087  0.0418  0.1662
    8FTM     C439297   5.761   6.177   9.348  0.3387 -0.1938  0.2699
    8FTM     F139298   5.437   6.297   9.241  0.8006  0.6303 -0.2313
    8FTM     C539299   5.429   5.992   9.209  0.2533  0.0803 -0.2395
    8FTM     C639300   5.442   5.921   9.068  0.4717 -0.2200  0.2102
    8FTM     C739301   5.462   6.017   8.950  0.2646  0.0257 -0.4334
    8FTM     C839302   5.366   6.003   8.836 -0.0906  0.6906  0.2790
    8FTM     C939303   5.228   6.049   8.874  0.8865 -0.0245 -0.1693
    8FTM    C1039304   5.123   6.013   8.773  0.0863 -0.2510  0.8651
    8FTM    C1139305   5.543   5.809   9.057  0.3829  0.5266 -0.6555
    8FTM    C1239306   5.515   5.695   9.159  0.1615  0.2092  0.0772
    9FTM     S139307   6.332   6.406   9.662 -0.0656 -0.0034 -0.1847
    9FTM     C139308   6.489   6.342   9.723 -0.4151 -0.1570  0.5896
    9FTM     C239309   6.498   6.209   9.696 -0.4280 -0.1731  0.6650
    9FTM     C339310   6.386   6.150   9.629 -0.1731 -0.0694  0.1380
    9FTM     C439311   6.288   6.241   9.603  0.0420  0.0292 -0.3572
    9FTM     F139312   6.609   6.132   9.731 -0.6715 -0.2826  1.2158
    9FTM     C539313   6.589   6.440   9.775 -0.5006 -0.1662 -0.2007
    9FTM     C639314   6.713   6.464   9.690  0.5712 -0.1092  0.3159
    9FTM     C739315   6.683   6.514   9.545  0.0472  0.2495 -0.6871
    9FTM     C839316   6.573   6.619   9.534  0.0203 -1.0088  0.9651
    9FTM     C939317   6.577   6.680   9.388  0.1091  0.1217  0.1784
    9FTM    C1039318   6.480   6.792   9.378 -0.2321 -1.1397  0.0768
    9FTM    C1139319   6.807   6.558   9.769 -0.0605  0.5907  0.2033
    9FTM    C1239320   6.923   6.629   9.701 -0.2146  0.2014 -0.4105
   10TPM     C139321   5.950   5.855   9.820  0.4413 -0.0731 -0.1155
   10TPM     C239322   5.844   5.771   9.838  0.5574 -0.3281 -0.5864
   10TPM     C339323   5.865   5.670   9.938  0.4022 -0.3519 -0.5768
   10TPM     C439324   5.988   5.676   9.996  0.1676 -0.1153 -0.0985
   10TPM     S139325   6.087   5.811   9.929  0.1244  0.1582  0.3805
   11BDD     C139326   5.998   5.383  10.250 -0.0823  0.2473  0.1760
   11BDD     C239327   6.129   5.409  10.225 -0.0736  0.1558  0.1283
   11BDD     C339328   6.150   5.520  10.133 -0.0337  0.0335 -0.0098
   11BDD     C439329   6.033   5.576  10.089 -0.0132  0.0337 -0.0653
   11BDD     S139330   5.890   5.495  10.160 -0.0417  0.1867  0.0514
   11BDD     C539331   6.241   5.334  10.284 -0.1011  0.1775  0.2078
   11BDD     C639332   6.284   5.565  10.091 -0.0178 -0.0788 -0.0817
   11BDD     O139333   6.302   5.660  10.012  0.0165 -0.1841 -0.2008
   11BDD     O239334   6.224   5.238  10.364 -0.1354  0.2829  0.3269
   11BDD     C739335   6.396   5.489  10.151 -0.0455 -0.0571 -0.0022
   11BDD     C839336   6.376   5.379  10.243 -0.0854  0.0650  0.1359
   11BDD     C939337   6.492   5.322  10.287 -0.1060  0.0651  0.1915
   11BDD     S239338   6.636   5.403  10.215 -0.0772 -0.0880  0.0747
   11BDD    C1039339   6.528   5.515  10.125 -0.0365 -0.1485 -0.0499
   11BDD    C1139340   6.594   5.625  10.047 -0.6088  0.5169 -0.0845
   11BDD    C1239341   6.621   5.760  10.120 -0.2286  0.8362  0.2790
   11BDD    C1339342   6.743   5.751  10.216 -0.7438 -0.2345  0.1657
   11BDD    C1439343   6.884   5.728  10.155  0.1694  0.3583 -0.2511
   11BDD    C1539344   6.990   5.704  10.263 -1.3934 -0.3334 -0.3097
   11BDD    C1639345   7.122   5.651  10.207 -0.3628 -0.3524  0.0390
   11BDD    C1739346   6.628   5.871  10.013  0.2284  0.2747  0.2996
   11BDD    C1839347   6.491   5.909   9.951 -0.2565 -0.1892 -0.0121
   11BDD    C1939348   6.537   5.217  10.385 -0.2870  0.3873 -0.4231
   11BDD    C2039349   6.610   5.282  10.507  0.0511  0.1655  0.1220
   11BDD    C2139350   6.726   5.202  10.571  0.5056  0.6768 -0.5955
   11BDD    C2239351   6.845   5.154  10.493 -0.3672  0.1810  0.0735
   11BDD    C2339352   6.943   5.078  10.576  0.3825 -0.2748  0.2452
   11BDD    C2439353   7.061   5.041  10.493  0.0889  0.0261  0.1440
   11BDD    C2539354   6.519   5.354  10.609 -0.1174 -0.5849 -0.1735
   11BDD    C2639355   6.569   5.488  10.660  0.2297 -0.5746 -0.2223
   12TPM     C139356   5.928   5.297  10.342 -0.1098  0.2373 -0.2468
   12TPM     C239357   5.859   5.342  10.450  0.3005  0.2347  0.0182
   12TPM     C339358   5.794   5.238  10.526  0.5076  0.2428  0.2093
   12TPM     C439359   5.814   5.113  10.474  0.2549  0.2514  0.0900
   12TPM     S139360   5.916   5.117  10.326 -0.2680  0.2499 -0.2757
   13BDTP    C139361   5.635   4.607  10.798 -0.0802 -0.0926 -0.2921
   13BDTP    C239362   5.727   4.552  10.704  0.0149  0.0257 -0.2690
   13BDTP    C339363   5.790   4.629  10.607  0.1235  0.1509 -0.1013
   13BDTP    C439364   5.761   4.766  10.602  0.1394  0.1602  0.0510
   13BDTP    C539365   5.669   4.821  10.696  0.0443  0.0421  0.0279
   13BDTP    C639366   5.606   4.745  10.793 -0.0644 -0.0832 -0.1398
   13BDTP    C739367   5.813   4.865  10.510  0.2438  0.2789  0.2380
   13BDTP    C839368   5.766   4.990  10.530  0.2319  0.2556  0.3549
   13BDTP    S139369   5.648   5.001  10.668  0.0867  0.0802  0.2446
   13BDTP    C939370   5.582   4.508  10.890 -0.1847 -0.2111 -0.4790
   13BDTP   C1039371   5.629   4.383  10.869 -0.1727 -0.1879 -0.5960
   13BDTP    S239372   5.747   4.373  10.731 -0.0275 -0.0126 -0.4857
   14FTM     S139373   5.864   4.583  10.336 -0.1689 -0.3659 -0.0492
   14FTM     C139374   6.005   4.474  10.307  0.2865  0.1926  0.0259
   14FTM     C239375   6.054   4.430  10.426  0.5050  0.5203  0.0581
   14FTM     C339376   5.988   4.478  10.544  0.3358  0.3612  0.0271
   14FTM     C439377   5.884   4.561  10.514 -0.0239 -0.1039 -0.0307
   14FTM     F139378   6.163   4.345  10.436  0.8713  0.9841  0.1176
   14FTM     C539379   6.059   4.450  10.163  0.1568  0.3847 -0.3196
   14FTM     C639380   6.194   4.388  10.128  0.0455  0.0216 -0.1628
   14FTM     C739381   6.194   4.237  10.147 -0.0269  0.0556  0.4354
   14FTM     C839382   6.139   4.157  10.026  0.1003 -0.5701  0.1289
   14FTM     C939383   6.239   4.150   9.908 -0.2000 -0.5021 -0.8163
   14FTM    C1039384   6.198   4.042   9.807  0.0620 -0.0008 -0.2816
   14FTM    C1139385   6.332   4.446  10.178 -0.0474  0.0941  0.1179
   14FTM    C1239386   6.347   4.596  10.176 -0.1460  0.4274 -0.0102
   15FTM     S139387   5.494   4.777  11.056 -0.2208 -0.2281 -0.0835
   15FTM     C139388   5.362   4.898  11.076 -0.0960 -0.0349 -0.4201
   15FTM     C239389   5.336   4.958  10.956  0.4725  0.1919 -0.4347
   15FTM     C339390   5.416   4.915  10.845  0.8371  0.2282 -0.1908
   15FTM     C439391   5.505   4.818  10.881  0.5378  0.0225  0.0172
   15FTM     F139392   5.239   5.056  10.941  0.6968  0.3799 -0.6696
   15FTM     C539393   5.329   4.932  11.217  0.4781 -0.0289 -0.0350
   15FTM     C639394   5.260   4.843  11.320 -0.2704 -0.0467  0.6084
   15FTM     C739395   5.234   4.912  11.452  0.2674 -0.3208 -0.1723
   15FTM     C839396   5.357   4.921  11.541  0.1011 -0.9212 -1.6081
   15FTM     C939397   5.321   4.968  11.688  0.1424 -0.4560 -0.3466
   15FTM    C1039398   5.447   4.994  11.765  0.1510 -0.1232  0.0055
   15FTM    C1139399   5.145   4.760  11.258 -0.4443 -0.0495  0.1970
   15FTM    C1239400   5.093   4.644  11.338 -0.3506  0.0245  0.5450
   16TPM     C139401   5.598   4.261  10.949  0.3078  0.0857 -0.3037
   16TPM     C239402   5.477   4.230  11.006  0.1171  0.2295 -0.6232
   16TPM     C339403   5.470   4.096  11.057 -0.1950  0.2247 -0.6772
   16TPM     C439404   5.585   4.024  11.039 -0.2421  0.0772 -0.3989
   16TPM     S139405   5.711   4.121  10.955  0.1065 -0.0683 -0.0443
   17BDD     C139406   5.635   3.643  10.960 -0.3020 -0.1144 -0.1299
   17BDD     C239407   5.543   3.644  11.061 -0.2236 -0.1021 -0.0586
   17BDD     C339408   5.513   3.777  11.110 -0.0056 -0.1162  0.1126
   17BDD     C439409   5.583   3.876  11.046  0.0792 -0.1390  0.1694
   17BDD     S139410   5.691   3.809  10.919 -0.1082 -0.1444  0.0124
   17BDD     C539411   5.479   3.523  11.116 -0.3462 -0.0770 -0.1453
   17BDD     C639412   5.417   3.802  11.219  0.1109 -0.1065  0.2137
   17BDD     O139413   5.391   3.917  11.262  0.2989 -0.1187  0.3613
   17BDD     O239414   5.504   3.408  11.073 -0.5342 -0.0649 -0.2929
   17BDD     C739415   5.353   3.681  11.274 -0.0118 -0.0814  0.1270
   17BDD     C839416   5.382   3.548  11.225 -0.2298 -0.0674 -0.0442
   17BDD     C939417   5.313   3.449  11.289 -0.3146 -0.0445 -0.1011
   17BDD     S239418   5.205   3.516  11.416 -0.1272 -0.0391  0.0559
   17BDD    C1039419   5.261   3.682  11.376  0.0665 -0.0691  0.1982
   17BDD    C1139420   5.196   3.788  11.463 -0.1065 -0.4404  0.3513
   17BDD    C1239421   5.224   3.791  11.612  0.1719  0.5558  0.4502
   17BDD    C1339422   5.371   3.831  11.648  0.4884  0.1162  0.5753
   17BDD    C1439423   5.424   3.975  11.620  0.6345 -0.3735  0.1124
   17BDD    C1539424   5.541   4.030  11.700  0.1483  0.1849  0.3743
   17BDD    C1639425   5.594   4.168  11.657 -0.5587  0.1793  0.1316
   17BDD    C1739426   5.111   3.858  11.692  0.3508  0.0813 -0.2472
   17BDD    C1839427   5.129   3.852  11.842 -0.2373  0.1099 -0.7693
   17BDD    C1939428   5.311   3.296  11.279 -0.0638 -0.6542 -0.2665
   17BDD    C2039429   5.171   3.229  11.256  0.2100 -0.1291  0.8328
   17BDD    C2139430   5.088   3.265  11.125 -0.7404  0.0288  0.4123
   17BDD    C2239431   5.032   3.399  11.089 -0.3942 -0.7176  0.7501
   17BDD    C2339432   4.942   3.462  11.196 -0.0094  0.1568  0.2177
   17BDD    C2439433   4.895   3.594  11.150  1.0404 -0.4847  0.0724
   17BDD    C2539434   5.181   3.080  11.250  0.3188 -0.5540 -0.1749
   17BDD    C2639435   5.227   3.005  11.369  0.2662 -0.0935 -0.0992
   18TPM     C139436   5.720   3.550  10.883 -0.0249  0.6974 -0.3482
   18TPM     C239437   5.677   3.426  10.844 -0.3777  0.8951 -0.6018
   18TPM     C339438   5.769   3.360  10.755 -0.4337  0.7028 -0.5154
   18TPM     C439439   5.880   3.432  10.727 -0.1235  0.3586 -0.1959
   18TPM     S139440   5.879   3.592  10.810  0.2663  0.2497  0.0223
   19BDTP    C139441   6.398   3.329  10.374  0.1563  0.0675  0.0380
   19BDTP    C239442   6.304   3.238  10.319  0.1391  0.1008  0.0125
   19BDTP    C339443   6.173   3.228  10.365  0.1376  0.1115  0.0107
   19BDTP    C439444   6.134   3.312  10.471  0.1539  0.0882  0.0353
   19BDTP    C539445   6.228   3.403  10.526  0.1711  0.0549  0.0608
   19BDTP    C639446   6.359   3.413  10.480  0.1725  0.0443  0.0626
   19BDTP    C739447   6.004   3.320  10.535  0.1558  0.0933  0.0386
   19BDTP    C839448   5.997   3.411  10.635  0.1733  0.0659  0.0650
   19BDTP    S139449   6.153   3.500  10.661  0.1899  0.0296  0.0894
   19BDTP    C939450   6.528   3.322  10.310  0.1543  0.0623  0.0347
   19BDTP   C1039451   6.535   3.230  10.210  0.1367  0.0897  0.0083
   19BDTP    S239452   6.379   3.141  10.183  0.1202  0.1261 -0.0161
   20FTM     S139453   5.968   3.023  10.391 -0.1524  0.2521 -0.1063
   20FTM     C139454   5.895   2.966  10.237  0.3341  0.3622 -0.3818
   20FTM     C239455   5.950   3.032  10.132  0.4691  0.6381 -0.1393
   20FTM     C339456   6.051   3.129  10.164  0.2084  0.7774  0.2657
   20FTM     C439457   6.073   3.138  10.298 -0.1373  0.6023  0.3357
   20FTM     F139458   5.914   3.009  10.000  0.8365  0.7810 -0.2697
   20FTM     C539459   5.794   2.860  10.248  0.4672 -0.0248  0.5448
   20FTM     C639460   5.786   2.773  10.376  0.3925 -0.1834 -0.4280
   20FTM     C739461   5.698   2.649  10.343  0.7531  0.0061  0.9512
   20FTM     C839462   5.743   2.554  10.235 -0.1331 -0.7713  0.7218
   20FTM     C939463   5.640   2.443  10.210  0.1495 -0.0719  1.1066
   20FTM    C1039464   5.688   2.359  10.088  0.7906  0.0245 -0.2672
   20FTM    C1139465   5.749   2.835  10.514  0.1003 -0.0003  1.0070
   20FTM    C1239466   5.619   2.925  10.527 -0.9801  0.9476  0.2534
   21FTM     S139467   6.538   3.635  10.446 -0.0257 -0.1437  0.1963
   21FTM     C139468   6.606   3.707  10.596 -0.0730  0.0327  0.1338
   21FTM     C239469   6.563   3.637  10.705 -0.1606  0.2009  0.2078
   21FTM     C339470   6.477   3.526  10.679 -0.1955  0.2027  0.3149
   21FTM     C439471   6.452   3.510  10.546 -0.1326  0.0302  0.3233
   21FTM     F139472   6.600   3.670  10.835 -0.2143  0.3632  0.1828
   21FTM     C539473   6.706   3.818  10.594 -0.1214  0.4574 -0.1653
   21FTM     C639474   6.859   3.805  10.570  0.1283  0.7353 -0.5140
   21FTM     C739475   6.942   3.927  10.596  0.1782 -0.9957  0.5866
   21FTM     C839476   6.933   3.999  10.722 -0.0825  0.2141  0.1303
   21FTM     C939477   7.031   3.936  10.817 -0.3306 -0.4171  0.5345
   21FTM    C1039478   7.023   4.004  10.947 -0.7117  0.3832  0.1122
   21FTM    C1139479   6.909   3.712  10.458  0.9185 -0.3523 -0.4411
   21FTM    C1239480   6.889   3.758  10.313 -0.1187  0.4794  0.0729
   22TPM     C139481   6.643   3.208  10.114 -0.1813  0.0502 -0.0145
   22TPM     C239482   6.656   3.099  10.033 -0.2109 -0.0408  0.1031
   22TPM     C339483   6.762   3.111   9.937 -0.1159 -0.2324  0.1838
   22TPM     C439484   6.830   3.229   9.944 -0.0138 -0.2876  0.1277
   22TPM     S139485   6.765   3.335  10.074 -0.0297 -0.1004 -0.0327
   23BDD     C139486   7.071   3.443   9.718 -0.0604 -0.0190  0.1503
   23BDD     C239487   7.097   3.313   9.682 -0.0886 -0.0132  0.1093
   23BDD     C339488   7.014   3.216   9.752 -0.1094 -0.0174  0.0786
   23BDD     C439489   6.927   3.273   9.840 -0.0971 -0.0264  0.0966
   23BDD     S139490   6.942   3.452   9.842 -0.0583 -0.0302  0.1532
   23BDD     C539491   7.198   3.274   9.582 -0.0969 -0.0034  0.0969
   23BDD     C639492   7.025   3.071   9.728 -0.1409 -0.0124  0.0326
   23BDD     O139493   6.954   2.987   9.788 -0.1591 -0.0160  0.0061
   23BDD     O239494   7.269   3.358   9.522 -0.0788  0.0002  0.1233
   23BDD     C739495   7.127   3.032   9.628 -0.1495 -0.0027  0.0202
   23BDD     C839496   7.209   3.129   9.558 -0.1284  0.0016  0.0510
   23BDD     C939497   7.297   3.072   9.470 -0.1409  0.0106  0.0329
   23BDD     S239498   7.282   2.893   9.468 -0.1795  0.0145 -0.0241
   23BDD    C1039499   7.153   2.902   9.592 -0.1776  0.0032 -0.0208
   23BDD    C1139500   7.097   2.769   9.626  0.2982  0.3320 -0.3228
   23BDD    C1239501   6.996   2.706   9.538  0.2666 -0.0327  0.5158
   23BDD    C1339502   6.908   2.594   9.602  0.6885  0.1517 -0.2662
   23BDD    C1439503   6.837   2.616   9.733  0.3947 -0.0631 -0.3900
   23BDD    C1539504   6.755   2.741   9.753 -0.1189 -0.1172  0.4300
   23BDD    C1639505   6.670   2.736   9.877 -0.2522  0.2346  0.1902
   23BDD    C1739506   7.059   2.673   9.395  0.6011 -0.0875 -0.6022
   23BDD    C1839507   7.162   2.560   9.387 -0.3520 -0.3720 -0.0571
   23BDD    C1939508   7.404   3.119   9.374 -0.6114  0.0357  0.6681
   23BDD    C2039509   7.350   3.180   9.238  0.2010 -0.2903 -0.1622
   23BDD    C2139510   7.268   3.082   9.151 -0.1368 -0.4200  0.3822
   23BDD    C2239511   7.332   2.956   9.103 -0.8636  0.7979  0.2547
   23BDD    C2339512   7.237   2.868   9.024 -0.4099 -0.1082  0.7086
   23BDD    C2439513   7.285   2.723   9.012 -0.5724 -0.7125 -0.3967
   23BDD    C2539514   7.454   3.254   9.162  0.1946 -0.5597 -0.0662
   23BDD    C2639515   7.522   3.374   9.229 -0.0116  0.0878 -0.0930
   24TPM     C139516   7.104   3.580   9.670  0.0468  0.3587  0.2425
   24TPM     C239517   7.230   3.620   9.638  0.0923  0.2459  0.2803
   24TPM     C339518   7.240   3.760   9.604  0.1820  0.1825  0.0370
   24TPM     C439519   7.122   3.827   9.611  0.2049  0.2471 -0.1864
   24TPM     S139520   6.987   3.717   9.660  0.1143  0.3941 -0.1061
   25BDTP    C139521   6.902   4.396   9.471  0.1782  0.0330 -0.1783
   25BDTP    C239522   7.022   4.426   9.541  0.0678 -0.0107  0.0298
   25BDTP    C339523   7.107   4.328   9.591  0.0021 -0.0410  0.0832
   25BDTP    C439524   7.072   4.194   9.569  0.0472 -0.0280 -0.0763
   25BDTP    C539525   6.952   4.163   9.499  0.1577  0.0156 -0.2847
   25BDTP    C639526   6.867   4.261   9.450  0.2234  0.0461 -0.3377
   25BDTP    C739527   7.144   4.075   9.611 -0.0049 -0.0536 -0.0588
   25BDTP    C839528   7.085   3.958   9.575  0.0602 -0.0317 -0.2418
   25BDTP    S139529   6.929   3.983   9.484  0.1968  0.0247 -0.4616
   25BDTP    C939530   6.830   4.514   9.429  0.2304  0.0588 -0.1957
   25BDTP   C1039531   6.889   4.631   9.465  0.1652  0.0368 -0.0129
   25BDTP    S239532   7.044   4.607   9.556  0.0287 -0.0196  0.2069
   26FTM     S139533   7.202   4.434   9.829  0.0374  0.3240  0.1909
   26FTM     C139534   7.380   4.425   9.860  0.0421 -0.0545  0.0586
   26FTM     C239535   7.443   4.376   9.750 -0.1284 -0.0596 -0.0385
   26FTM     C339536   7.360   4.344   9.638 -0.2697  0.2239 -0.0165
   26FTM     C439537   7.228   4.369   9.663 -0.2052  0.4533  0.1013
   26FTM     F139538   7.581   4.358   9.744 -0.1667 -0.3211 -0.1531
   26FTM     C539539   7.431   4.489   9.981 -0.2380  0.1557  0.2827
   26FTM     C639540   7.360   4.491  10.116  0.2057 -0.8670  0.1444
   26FTM     C739541   7.410   4.592  10.214 -0.1242 -0.3329  0.2580
   26FTM     C839542   7.380   4.738  10.189  0.3698 -0.0633  0.3530
   26FTM     C939543   7.395   4.821  10.315 -0.0815  0.0247  0.4374
   26FTM    C1039544   7.446   4.962  10.279  0.1130 -0.2420  0.0125
   26FTM    C1139545   7.324   4.352  10.166 -0.2104 -0.1811  0.3537
   26FTM    C1239546   7.421   4.252  10.217  0.6215 -0.0639 -0.8440
   27FTM     S139547   6.634   4.089   9.461 -0.2257 -0.0429 -0.2223
   27FTM     C139548   6.493   4.144   9.363  0.1623  0.4681 -0.5038
   27FTM     C239549   6.525   4.258   9.296  0.6994  0.3704 -0.4237
   27FTM     C339550   6.657   4.308   9.316  0.8386 -0.0964 -0.1457
   27FTM     C439551   6.729   4.230   9.401  0.3936 -0.3650 -0.0079
   27FTM     F139552   6.435   4.323   9.212  1.0970  0.6980 -0.5980
   27FTM     C539553   6.361   4.072   9.347 -0.3706  0.2819  0.5465
   27FTM     C639554   6.359   3.918   9.333 -0.2726  0.0939 -0.3296
   27FTM     C739555   6.433   3.863   9.211 -0.5421  0.7372 -0.7084
   27FTM     C839556   6.392   3.925   9.077 -0.1060 -0.1187 -0.0812
   27FTM     C939557   6.250   3.931   9.032 -0.5880  0.7055 -0.2681
   27FTM    C1039558   6.227   3.986   8.894 -0.2393 -0.4220  0.2350
   27FTM    C1139559   6.387   3.845   9.468  0.9315 -0.5193 -0.0481
   27FTM    C1239560   6.336   3.703   9.488 -0.4837  0.0979  0.0683
   28TPM     C139561   6.829   4.760   9.449 -0.0747  0.5511  0.0976
   28TPM     C239562   6.868   4.881   9.498 -0.4159  0.8123 -0.2615
   28TPM     C339563   6.784   4.990   9.457 -0.7043  0.4605 -0.6216
   28TPM     C439564   6.681   4.952   9.376 -0.5827 -0.0687 -0.5366
   28TPM     S139565   6.682   4.774   9.346 -0.0911 -0.1646  0.0084
   29BDD     C139566   6.322   5.106   9.389 -0.0156 -0.0214  0.1893
   29BDD     C239567   6.403   5.208   9.346 -0.0347 -0.0401  0.1092
   29BDD     C339568   6.543   5.171   9.338 -0.0538 -0.0801 -0.0553
   29BDD     C439569   6.567   5.041   9.375 -0.0491 -0.0916 -0.0978
   29BDD     S139570   6.416   4.957   9.423 -0.0203 -0.0530  0.0646
   29BDD     C539571   6.354   5.342   9.310 -0.0360 -0.0213  0.1807
   29BDD     C639572   6.648   5.265   9.294 -0.0762 -0.1054 -0.1638
   29BDD     O139573   6.769   5.233   9.288 -0.0927 -0.1400 -0.3054
   29BDD     O239574   6.233   5.374   9.317 -0.0194  0.0132  0.3226
   29BDD     C739575   6.599   5.400   9.259 -0.0776 -0.0870 -0.0918
   29BDD     C839576   6.459   5.437   9.267 -0.0584 -0.0468  0.0725
   29BDD     C939577   6.434   5.566   9.229 -0.0631 -0.0354  0.1154
   29BDD     S239578   6.585   5.651   9.182 -0.0919 -0.0740 -0.0470
   29BDD    C1039579   6.679   5.502   9.216 -0.0966 -0.1055 -0.1719
   29BDD    C1139580   6.832   5.510   9.207  0.1556  1.1415 -0.5614
   29BDD    C1239581   6.915   5.601   9.293 -1.1321 -0.6439 -0.2480
   29BDD    C1339582   6.937   5.538   9.432  0.5280  0.0834 -0.3452
   29BDD    C1439583   7.031   5.609   9.530  0.7758 -0.1929 -0.0592
   29BDD    C1539584   7.032   5.548   9.669 -0.6234 -0.1545 -0.5835
   29BDD    C1639585   7.116   5.620   9.778 -0.0794 -0.2018 -0.0377
   29BDD    C1739586   6.893   5.754   9.294  0.5751 -0.2213  0.0827
   29BDD    C1839587   6.913   5.823   9.163  0.1008 -0.4089 -0.1505
   29BDD    C1939588   6.310   5.654   9.219  0.1464 -0.2240  0.1913
   29BDD    C2039589   6.263   5.688   9.077  0.8140 -0.0877 -0.1157
   29BDD    C2139590   6.255   5.571   8.969 -0.0760  0.2990 -0.5054
   29BDD    C2239591   6.162   5.454   9.000  0.1569 -0.2751 -0.3870
   29BDD    C2339592   6.146   5.353   8.879 -0.1317 -0.4650 -0.8105
   29BDD    C2439593   6.044   5.246   8.892  0.3989 -0.4585 -0.3956
   29BDD    C2539594   6.152   5.790   9.091  0.5658 -1.2392  0.3404
   29BDD    C2639595   6.113   5.884   8.966 -0.1387  0.4968  0.3306
   30TPM     C139596   6.178   5.095   9.414  0.3646 -0.0783 -0.1007
   30TPM     C239597   6.132   4.993   9.491  0.4629 -0.0943 -0.0634
   30TPM     C339598   5.993   4.963   9.471  0.4340 -0.0817  0.1178
   30TPM     C439599   5.932   5.043   9.379  0.3138 -0.0559  0.2190
   30TPM     S139600   6.047   5.163   9.310  0.2271 -0.0458  0.0917
   31BDTP    C139601   5.363   4.876   9.170  0.1729 -0.2605  0.2012
   31BDTP    C239602   5.426   4.922   9.051 -0.0278 -0.0294  0.1831
   31BDTP    C339603   5.555   4.974   9.049 -0.1267  0.2185  0.1080
   31BDTP    C439604   5.625   4.980   9.171 -0.0231  0.2402  0.0470
   31BDTP    C539605   5.562   4.934   9.290  0.1774  0.0092  0.0648
   31BDTP    C639606   5.433   4.882   9.292  0.2764 -0.2388  0.1403
   31BDTP    C739607   5.759   5.029   9.194 -0.0942  0.4757 -0.0354
   31BDTP    C839608   5.800   5.022   9.323  0.0415  0.4331 -0.0801
   31BDTP    S139609   5.674   4.952   9.433  0.2785  0.0888 -0.0236
   31BDTP    C939610   5.229   4.827   9.147  0.2440 -0.4960  0.2837
   31BDTP   C1039611   5.188   4.834   9.018  0.1085 -0.4536  0.3283
   31BDTP    S239612   5.314   4.904   8.908 -0.1288 -0.1092  0.2718
   32FTM     S139613   5.678   4.888   8.811 -0.0906  0.0756 -0.1686
   32FTM     C139614   5.700   5.013   8.683 -0.7041  0.1314 -0.2263
   32FTM     C239615   5.660   5.134   8.729 -0.9933  0.0180 -0.1698
   32FTM     C339616   5.612   5.138   8.864 -0.7608 -0.1159 -0.0811
   32FTM     C439617   5.614   5.015   8.923 -0.2779 -0.1046 -0.0685
   32FTM     F139618   5.666   5.249   8.652 -1.4855  0.0288 -0.1957
   32FTM     C539619   5.739   4.967   8.546 -0.2323 -0.7058 -0.1689
   32FTM     C639620   5.775   4.816   8.516 -0.3969 -0.1330  0.2098
   32FTM     C739621   5.905   4.749   8.575  0.2604  0.2713  0.6662
   32FTM     C839622   6.033   4.828   8.572 -0.0919  0.7707 -0.3931
   32FTM     C939623   6.113   4.808   8.440 -0.6766 -0.0209  0.0420
   32FTM    C1039624   6.248   4.879   8.445 -0.3523 -0.4552  0.6041
   32FTM    C1139625   5.662   4.708   8.526 -0.0093  0.2827 -0.2533
   32FTM    C1239626   5.541   4.737   8.451  1.2902 -0.0784 -0.0775
   33FTM     S139627   5.187   4.848   9.446 -0.0514  0.0385 -0.0768
   33FTM     C139628   5.207   4.752   9.597  0.1890  0.2415  0.0198
   33FTM     C239629   5.339   4.724   9.617  0.2680  0.6444  0.0823
   33FTM     C339630   5.430   4.774   9.517  0.1490  0.8162  0.0596
   33FTM     C439631   5.365   4.843   9.419 -0.0266  0.5352 -0.0234
   33FTM     F139632   5.386   4.652   9.725  0.4524  0.8823  0.1643
   33FTM     C539633   5.089   4.731   9.683  0.1012 -0.0201 -0.1816
   33FTM     C639634   4.994   4.609   9.675  0.2269  0.0113  0.0156
   33FTM     C739635   4.892   4.608   9.570 -0.8237  0.4497  0.1527
   33FTM     C839636   4.781   4.709   9.577  0.5706 -0.4934  0.9694
   33FTM     C939637   4.695   4.697   9.703  0.3202 -0.0456  0.3022
   33FTM    C1039638   4.581   4.595   9.691 -0.1311  0.0974  0.4804
   33FTM    C1139639   5.050   4.470   9.698  0.2370  0.4430 -0.2209
   33FTM    C1239640   5.120   4.438   9.834 -0.0092 -0.2984  0.3786
   34TPM     C139641   5.066   4.787   8.971 -0.1113 -0.0581 -0.0494
   34TPM     C239642   5.029   4.658   8.990 -0.0937 -0.0241  0.2265
   34TPM     C339643   4.913   4.619   8.914 -0.1265 -0.1847  0.3569
   34TPM     C439644   4.862   4.719   8.836 -0.1693 -0.3413  0.1805
   34TPM     S139645   4.957   4.871   8.854 -0.1716 -0.2975 -0.1666
   35BDD     C139646   4.553   4.579   8.647  0.0632  0.2057 -0.2043
   35BDD     C239647   4.527   4.713   8.661  0.0621  0.1992 -0.1419
   35BDD     C339648   4.633   4.785   8.729  0.0324  0.1570 -0.0505
   35BDD     C439649   4.738   4.705   8.766  0.0113  0.1320 -0.0445
   35BDD     S139650   4.711   4.534   8.719  0.0273  0.1595 -0.1528
   35BDD     C539651   4.405   4.779   8.611  0.0883  0.2315 -0.1640
   35BDD     C639652   4.627   4.930   8.754  0.0261  0.1432  0.0274
   35BDD     O139653   4.718   4.993   8.813  0.0005  0.1068  0.1063
   35BDD     O239654   4.313   4.716   8.553  0.1140  0.2677 -0.2429
   35BDD     C739655   4.504   4.996   8.705  0.0525  0.1755  0.0055
   35BDD     C839656   4.398   4.924   8.637  0.0821  0.2176 -0.0858
   35BDD     C939657   4.293   5.004   8.600  0.1032  0.2428 -0.0920
   35BDD     S239658   4.320   5.175   8.647  0.0873  0.2153  0.0162
   35BDD    C1039659   4.479   5.130   8.719  0.0513  0.1692  0.0677
   35BDD    C1139660   4.550   5.254   8.784 -0.0476  1.0980  0.3239
   35BDD    C1239661   4.542   5.259   8.942  1.1016 -0.0264  0.0574
   35BDD    C1339662   4.398   5.278   8.984  0.3519  0.2785 -0.0581
   35BDD    C1439663   4.365   5.288   9.131  0.3905  0.4745  0.3549
   35BDD    C1539664   4.222   5.302   9.153  0.3919 -0.5164 -0.0757
   35BDD    C1639665   4.175   5.352   9.289 -0.2760 -0.3418 -0.7690
   35BDD    C1739666   4.641   5.351   9.011  0.5588  0.3642  0.4349
   35BDD    C1839667   4.651   5.495   8.960  0.3700 -0.3727 -0.3025
   35BDD    C1939668   4.154   4.983   8.540 -0.4359 -0.0026 -0.1093
   35BDD    C2039669   4.110   5.076   8.431  0.3413  0.1764  0.3289
   35BDD    C2139670   4.214   5.064   8.322 -0.4014  0.1218  0.1914
   35BDD    C2239671   4.229   4.942   8.230  0.2325 -0.4170  0.3246
   35BDD    C2339672   4.356   4.932   8.148  0.1190 -0.1111 -0.7046
   35BDD    C2439673   4.342   4.811   8.060  0.3054 -0.6184  0.1365
   35BDD    C2539674   3.972   5.057   8.370  0.7058 -0.5878  0.2017
   35BDD    C2639675   3.855   5.065   8.472  0.1247 -0.5426  0.1972
   36TPM     C139676   4.484   4.462   8.594  0.2651 -0.1275  0.2874
   36TPM     C239677   4.533   4.337   8.620 -0.0541 -0.1657  0.7303
   36TPM     C339678   4.469   4.233   8.543 -0.0319 -0.2245  0.7908
   36TPM     C439679   4.372   4.279   8.458  0.3043 -0.2309  0.3942
   36TPM     S139680   4.354   4.458   8.470  0.6214 -0.1628 -0.0900
   37BDTP    C139681   4.105   3.903   8.022  0.1575 -0.0389 -0.2146
   37BDTP    C239682   4.072   4.034   7.976  0.0271 -0.0473 -0.1439
   37BDTP    C339683   4.108   4.149   8.044 -0.1245 -0.0486 -0.0594
   37BDTP    C439684   4.182   4.135   8.163 -0.1488 -0.0411 -0.0434
   37BDTP    C539685   4.215   4.004   8.209 -0.0184 -0.0328 -0.1137
   37BDTP    C639686   4.179   3.889   8.141  0.1332 -0.0314 -0.1986
   37BDTP    C739687   4.231   4.239   8.251 -0.2949 -0.0408  0.0387
   37BDTP    C839688   4.299   4.193   8.359 -0.2807 -0.0327  0.0331
   37BDTP    S139689   4.310   4.012   8.365 -0.0802 -0.0243 -0.0765
   37BDTP    C939690   4.056   3.799   7.934  0.3036 -0.0391 -0.2964
   37BDTP   C1039691   3.988   3.844   7.826  0.2895 -0.0473 -0.2910
   37BDTP    S239692   3.977   4.025   7.820  0.0890 -0.0558 -0.1813
   38FTM     S139693   3.864   4.278   7.991 -0.0272 -0.0893  0.0727
   38FTM     C139694   3.866   4.457   7.972 -0.1725 -0.1467 -0.4939
   38FTM     C239695   3.993   4.504   7.981 -0.2622  0.0359 -0.1501
   38FTM     C339696   4.095   4.405   8.004 -0.2244  0.2265  0.5579
   38FTM     C439697   4.044   4.279   8.012 -0.1016  0.1890  0.7626
   38FTM     F139698   4.025   4.638   7.970 -0.3839  0.0408 -0.4560
   38FTM     C539699   3.736   4.528   7.937 -0.4665 -0.4214  0.5057
   38FTM     C639700   3.619   4.518   8.033 -0.4173 -0.6282 -0.5549
   38FTM     C739701   3.648   4.581   8.177  0.2687  0.6914  0.4373
   38FTM     C839702   3.696   4.724   8.178 -0.1575 -0.4652 -0.3764
   38FTM     C939703   3.606   4.839   8.140 -0.1863  0.2546  0.2473
   38FTM    C1039704   3.682   4.973   8.122 -0.2106  0.6066  0.2711
   38FTM    C1139705   3.531   4.392   8.028 -0.5606  0.7324  0.2393
   38FTM    C1239706   3.473   4.348   7.890  0.1518 -0.1434 -0.1745
   39FTM     S139707   4.285   3.622   8.110  0.0481 -0.2069  0.0285
   39FTM     C139708   4.265   3.511   8.251 -0.2619  0.1277  0.2534
   39FTM     C239709   4.199   3.575   8.351 -0.3767  0.4082  0.0031
   39FTM     C339710   4.160   3.710   8.325 -0.2339  0.3805 -0.3698
   39FTM     C439711   4.198   3.752   8.201 -0.0024  0.0687 -0.4063
   39FTM     F139712   4.170   3.514   8.472 -0.6179  0.7066  0.0966
   39FTM     C539713   4.337   3.383   8.257 -0.4968 -0.2060  0.0483
   39FTM     C639714   4.276   3.272   8.344 -1.3232 -0.1726 -0.5118
   39FTM     C739715   4.372   3.150   8.362  0.2189  0.0658 -0.3670
   39FTM     C839716   4.498   3.156   8.448 -0.4358 -0.0381  0.5123
   39FTM     C939717   4.594   3.038   8.430  0.5527  0.4266 -0.4051
   39FTM    C1039718   4.725   3.043   8.507 -0.0173  0.0809 -0.4560
   39FTM    C1139719   4.128   3.238   8.321  0.0369  0.4212 -0.5120
   39FTM    C1239720   4.053   3.167   8.439  0.4478 -0.0128 -0.5438
   40TPM     C139721   3.915   3.767   7.736 -0.0550  0.1179  0.2929
   40TPM     C239722   3.830   3.806   7.638 -0.2528 -0.0576  0.3929
   40TPM     C339723   3.789   3.699   7.551 -0.1177 -0.1387  0.4287
   40TPM     C439724   3.843   3.578   7.583  0.1831 -0.0251  0.3559
   40TPM     S139725   3.951   3.590   7.727  0.3201  0.1949  0.2355
   41BDD     C139726   3.744   3.343   7.282  0.1854 -0.1287 -0.0933
   41BDD     C239727   3.775   3.259   7.385  0.1634 -0.1065 -0.0687
   41BDD     C339728   3.816   3.328   7.506  0.0576 -0.0777 -0.0490
   41BDD     C439729   3.816   3.464   7.493  0.0003 -0.0785 -0.0587
   41BDD     S139730   3.765   3.515   7.328  0.0750 -0.1152 -0.0935
   41BDD     C539731   3.767   3.111   7.377  0.2390 -0.1108 -0.0623
   41BDD     C639732   3.853   3.257   7.630  0.0170 -0.0506 -0.0212
   41BDD     O139733   3.888   3.317   7.734 -0.0744 -0.0259 -0.0043
   41BDD     O239734   3.732   3.052   7.273  0.3303 -0.1355 -0.0793
   41BDD     C739735   3.845   3.110   7.621  0.0924 -0.0550 -0.0148
   41BDD     C839736   3.804   3.040   7.501  0.1984 -0.0836 -0.0345
   41BDD     C939737   3.804   2.904   7.514  0.2556 -0.0829 -0.0246
   41BDD     S239738   3.855   2.854   7.678  0.1809 -0.0462  0.0100
   41BDD    C1039739   3.876   3.026   7.725  0.0705 -0.0327  0.0098
   41BDD    C1139740   3.898   3.048   7.874  0.1902  0.3330  0.1960
   41BDD    C1239741   4.038   3.059   7.940 -0.3202  0.1746  0.4291
   41BDD    C1339742   4.108   2.917   7.954 -0.2104 -0.1055  0.1986
   41BDD    C1439743   4.043   2.801   8.021  0.5122 -0.1372 -0.2671
   41BDD    C1539744   3.999   2.796   8.174 -0.3606  0.0575  0.3519
   41BDD    C1639745   4.110   2.801   8.275 -0.1747 -0.8514 -0.0146
   41BDD    C1739746   4.129   3.164   7.859  0.1705 -0.3692 -0.4943
   41BDD    C1839747   4.266   3.192   7.919 -0.0942  0.4450  0.4906
   41BDD    C1939748   3.766   2.789   7.419 -0.0461 -0.3251 -0.4264
   41BDD    C2039749   3.636   2.711   7.457  0.1347  0.8211  0.2902
   41BDD    C2139750   3.508   2.790   7.467  0.2547  0.1041 -0.1610
   41BDD    C2239751   3.435   2.854   7.343 -0.5090 -0.0258 -0.2909
   41BDD    C2339752   3.311   2.932   7.380  0.2623  0.3906  0.8771
   41BDD    C2439753   3.241   2.986   7.258  0.6680  0.2277  0.2420
   41BDD    C2539754   3.601   2.571   7.380 -0.0896 -0.8680  0.0368
   41BDD    C2639755   3.714   2.464   7.366 -0.1034 -0.0799  0.1076
   42TPM     C139756   3.680   3.335   7.149 -0.4119  0.1336 -0.2257
   42TPM     C239757   3.586   3.243   7.113 -0.5415  0.2695 -0.2376
   42TPM     C339758   3.519   3.273   6.990 -0.5286  0.4020 -0.2122
   42TPM     C439759   3.561   3.389   6.931 -0.3892  0.3673 -0.1808
   42TPM     S139760   3.690   3.469   7.028 -0.2623  0.1629 -0.1809
   43BDTP    C139761   3.349   3.725   6.442  0.1666  0.0799 -0.0339
   43BDTP    C239762   3.412   3.823   6.524  0.0628  0.0660  0.0626
   43BDTP    C339763   3.472   3.791   6.645 -0.0420  0.0366  0.1065
   43BDTP    C439764   3.469   3.657   6.688 -0.0448  0.0198  0.0530
   43BDTP    C539765   3.405   3.559   6.605  0.0591  0.0336 -0.0434
   43BDTP    C639766   3.346   3.591   6.484  0.1639  0.0630 -0.0873
   43BDTP    C739767   3.524   3.600   6.809 -0.1429 -0.0110  0.0834
   43BDTP    C839768   3.505   3.467   6.822 -0.1182 -0.0210  0.0151
   43BDTP    S139769   3.415   3.394   6.682  0.0330  0.0072 -0.0970
   43BDTP    C939770   3.294   3.782   6.320  0.2648  0.1106 -0.0641
   43BDTP   C1039771   3.312   3.915   6.307  0.2401  0.1207  0.0043
   43BDTP    S239772   3.402   3.988   6.448  0.0889  0.0924  0.1162
   44FTM     S139773   3.408   4.042   6.763 -0.0196  0.2549 -0.0256
   44FTM     C139774   3.516   4.097   6.897 -0.0137 -0.2458  0.1771
   44FTM     C239775   3.618   4.009   6.912 -0.3417 -0.6220  0.2432
   44FTM     C339776   3.619   3.896   6.823 -0.6111 -0.5460  0.1427
   44FTM     C439777   3.514   3.899   6.736 -0.4853 -0.0967 -0.0051
   44FTM     F139778   3.718   4.025   7.008 -0.4174 -1.0581  0.3986
   44FTM     C539779   3.494   4.234   6.964 -0.1960 -0.2184 -0.5275
   44FTM     C639780   3.357   4.314   6.962 -0.3065 -0.4120  0.1327
   44FTM     C739781   3.379   4.465   7.002 -0.5250 -0.1658  0.2653
   44FTM     C839782   3.451   4.567   6.906 -0.0142  0.5357 -0.1281
   44FTM     C939783   3.382   4.584   6.766 -0.6731  0.3828 -0.0525
   44FTM    C1039784   3.454   4.686   6.678 -0.0375 -0.1440 -0.0102
   44FTM    C1139785   3.228   4.246   6.998  1.0424  0.3836  0.0638
   44FTM    C1239786   3.102   4.324   6.969  0.9877  0.7882  0.0093
   45FTM     S139787   3.388   3.358   6.322 -0.2353 -0.1135 -0.2320
   45FTM     C139788   3.240   3.263   6.282 -0.2699 -0.1008 -0.1362
   45FTM     C239789   3.130   3.327   6.330 -0.2452 -0.0209 -0.1842
   45FTM     C339790   3.154   3.450   6.400 -0.1989  0.0340 -0.2958
   45FTM     C439791   3.286   3.481   6.405 -0.1879 -0.0051 -0.3344
   45FTM     F139792   3.002   3.277   6.314 -0.2629  0.0072 -0.1301
   45FTM     C539793   3.266   3.138   6.199  0.5843  0.2513  0.5424
   45FTM     C639794   3.161   3.041   6.162  0.3938  0.3388 -0.1288
   45FTM     C739795   3.036   3.088   6.086 -0.1772  0.3461 -0.1699
   45FTM     C839796   3.061   3.171   5.960 -0.2537 -0.0080 -0.5691
   45FTM     C939797   2.935   3.188   5.876  0.3053  0.3899 -0.3489
   45FTM    C1039798   2.957   3.281   5.752  0.1057 -0.3707  0.0594
   45FTM    C1139799   3.108   2.940   6.268 -0.2972  0.8849  0.4675
   45FTM    C1239800   3.210   2.831   6.317 -0.2730 -0.2969  0.2461
   46TPM     C139801   3.284   4.002   6.196 -0.3044 -0.4122 -0.1950
   46TPM     C239802   3.164   4.022   6.135 -0.1512 -0.5394 -0.5438
   46TPM     C339803   3.172   4.111   6.021  0.0904 -0.5593 -0.5445
   46TPM     C439804   3.297   4.157   5.996  0.1215 -0.4474 -0.1962
   46TPM     S139805   3.417   4.092   6.114 -0.1543 -0.3069  0.1626
   47BDD     C139806   3.474   4.294   5.677  0.0704 -0.0796 -0.0071
   47BDD     C239807   3.364   4.373   5.695  0.1003 -0.0412  0.0074
   47BDD     C339808   3.284   4.336   5.810  0.1256  0.0132  0.0432
   47BDD     C439809   3.334   4.228   5.878  0.1148  0.0157  0.0553
   47BDD     S139810   3.485   4.167   5.803  0.0721 -0.0499  0.0228
   47BDD     C539811   3.329   4.487   5.607  0.1066 -0.0535 -0.0110
   47BDD     C639812   3.161   4.408   5.848  0.1598  0.0607  0.0639
   47BDD     O139813   3.092   4.376   5.947  0.1817  0.1076  0.0948
   47BDD     O239814   3.399   4.519   5.508  0.0848 -0.1006 -0.0417
   47BDD     C739815   3.126   4.521   5.760  0.1662  0.0485  0.0455
   47BDD     C839816   3.206   4.559   5.645  0.1408 -0.0060  0.0098
   47BDD     C939817   3.156   4.667   5.577  0.1518 -0.0087 -0.0023
   47BDD     S239818   3.005   4.728   5.652  0.1945  0.0568  0.0302
   47BDD    C1039819   3.016   4.601   5.778  0.1961  0.0865  0.0602
   47BDD    C1139820   2.905   4.608   5.886  0.1824  0.0076 -0.0381
   47BDD    C1239821   2.903   4.721   5.989  0.1928  0.6035 -0.4627
   47BDD    C1339822   2.789   4.711   6.093 -0.8590 -0.0134  0.6094
   47BDD    C1439823   2.790   4.596   6.199  0.4949  0.0692 -0.3720
   47BDD    C1539824   2.686   4.609   6.313 -0.7741  0.6297 -0.4449
   47BDD    C1639825   2.537   4.580   6.286 -0.3107 -0.2211  0.0002
   47BDD    C1739826   3.042   4.762   6.036 -0.7169 -0.6567 -0.0668
   47BDD    C1839827   3.052   4.891   6.121 -0.2090 -0.0023 -0.1822
   47BDD    C1939828   3.213   4.746   5.463  0.3939 -0.3806 -0.0197
   47BDD    C2039829   3.175   4.711   5.321  0.3598 -0.0498  0.4539
   47BDD    C2139830   3.246   4.793   5.210  0.7876 -0.3506 -0.4431
   47BDD    C2239831   3.401   4.791   5.208  0.8208  0.2887 -1.3425
   47BDD    C2339832   3.470   4.647   5.207 -0.2885  0.3608  0.2442
   47BDD    C2439833   3.451   4.581   5.065  0.5009  0.0046  0.1193
   47BDD    C2539834   3.031   4.671   5.284 -0.1629 -0.4469  0.5374
   47BDD    C2639835   2.923   4.774   5.304  0.2090 -0.5318  0.3074
   48TPM     C139836   3.595   4.291   5.597  0.1561  0.2221 -0.0925
   48TPM     C239837   3.604   4.338   5.470  0.0212  0.2683 -0.0850
   48TPM     C339838   3.728   4.307   5.405 -0.0879  0.2054 -0.2640
   48TPM     C439839   3.814   4.235   5.483 -0.0361  0.1109 -0.4080
   48TPM     S139840   3.744   4.201   5.645  0.1559  0.0941 -0.3281
   49BDTP    C139841   4.397   4.017   5.405 -0.0423  0.1752  0.0604
   49BDTP    C239842   4.372   4.084   5.281  0.0075  0.1954  0.0612
   49BDTP    C339843   4.252   4.146   5.253  0.0299  0.2263  0.0348
   49BDTP    C439844   4.151   4.144   5.351  0.0018  0.2379  0.0064
   49BDTP    C539845   4.176   4.077   5.474 -0.0480  0.2178  0.0057
   49BDTP    C639846   4.296   4.014   5.503 -0.0702  0.1870  0.0320
   49BDTP    C739847   4.018   4.202   5.344  0.0170  0.2691 -0.0237
   49BDTP    C839848   3.944   4.182   5.455 -0.0185  0.2735 -0.0470
   49BDTP    S139849   4.031   4.087   5.584 -0.0762  0.2385 -0.0336
   49BDTP    C939850   4.530   3.959   5.411 -0.0575  0.1439  0.0907
   49BDTP   C1039851   4.605   3.978   5.300 -0.0219  0.1397  0.1140
   49BDTP    S239852   4.518   4.073   5.171  0.0357  0.1746  0.1005
   50FTM     S139853   4.217   4.133   4.966  0.2373 -0.1317 -0.2226
   50FTM     C139854   4.184   4.289   4.884 -0.0368 -0.0900 -0.0376
   50FTM     C239855   4.184   4.390   4.974 -0.4865 -0.2302  0.1240
   50FTM     C339856   4.209   4.353   5.110 -0.6415 -0.3749  0.1140
   50FTM     C439857   4.229   4.219   5.124 -0.2994 -0.3445 -0.0610
   50FTM     F139858   4.161   4.523   4.939 -0.7844 -0.2354  0.2906
   50FTM     C539859   4.176   4.294   4.735 -0.5948  1.1351  0.5338
   50FTM     C639860   4.317   4.308   4.663 -0.0861  0.2130  0.6706
   50FTM     C739861   4.429   4.205   4.692 -0.2512 -0.1563 -0.4378
   50FTM     C839862   4.404   4.055   4.687  0.0949 -0.2249  0.4825
   50FTM     C939863   4.358   3.999   4.555 -0.1457  0.1223  0.8046
   50FTM    C1039864   4.326   3.851   4.546 -0.2518  0.7676 -0.3088
   50FTM    C1139865   4.378   4.452   4.650 -0.0854  0.8290  0.6333
   50FTM    C1239866   4.286   4.569   4.609 -0.4480  0.2829  0.2070
   51FTM     S139867   4.465   3.914   5.732  0.0208  0.0922  0.0419
   51FTM     C139868   4.387   3.779   5.822  0.4087 -0.0430  0.1791
   51FTM     C239869   4.263   3.754   5.771  0.3792 -0.2867  0.3636
   51FTM     C339870   4.223   3.837   5.661  0.0608 -0.3808  0.4085
   51FTM     C439871   4.318   3.928   5.627 -0.1606 -0.2034  0.2531
   51FTM     F139872   4.180   3.655   5.820  0.6388 -0.4390  0.5031
   51FTM     C539873   4.465   3.698   5.920 -0.3679 -0.8258 -0.3867
   51FTM     C639874   4.473   3.733   6.075 -0.0355  0.4048  0.1476
   51FTM     C739875   4.338   3.698   6.149 -0.4243  0.4460 -0.0145
   51FTM     C839876   4.286   3.551   6.141 -0.0830 -0.7053 -0.8122
   51FTM     C939877   4.153   3.533   6.223  0.2648 -0.2187 -0.0736
   51FTM    C1039878   4.098   3.390   6.224 -0.1588 -0.4703 -0.1298
   51FTM    C1139879   4.539   3.872   6.104  0.5720  0.4178  0.7915
   51FTM    C1239880   4.571   3.908   6.246  0.7471 -0.9243 -0.3156
   52TPM     C139881   4.739   3.936   5.280 -0.3700  0.1170  0.1844
   52TPM     C239882   4.781   3.903   5.155 -0.7302 -0.4141  0.1957
   52TPM     C339883   4.918   3.858   5.149 -0.7724 -0.5226  0.0039
   52TPM     C439884   4.980   3.857   5.271 -0.4440 -0.0742 -0.1537
   52TPM     S139885   4.869   3.913   5.402 -0.0533  0.5244 -0.0715
   53BDD     C139886   5.370   3.817   5.231  0.0542  0.0881  0.0286
   53BDD     C239887   5.338   3.758   5.350  0.0609  0.0589  0.0161
   53BDD     C339888   5.196   3.764   5.381  0.0645  0.0635  0.0318
   53BDD     C439889   5.122   3.827   5.285  0.0605  0.0961  0.0561
   53BDD     S139890   5.225   3.883   5.149  0.0521  0.1233  0.0612
   53BDD     C539891   5.436   3.694   5.440  0.0641  0.0257 -0.0110
   53BDD     C639892   5.139   3.707   5.504  0.0718  0.0353  0.0221
   53BDD     O139893   5.017   3.712   5.531  0.0749  0.0393  0.0355
   53BDD     O239894   5.558   3.689   5.413  0.0610  0.0218 -0.0246
   53BDD     C739895   5.237   3.643   5.594  0.0750  0.0023 -0.0049
   53BDD     C839896   5.379   3.637   5.564  0.0714 -0.0023 -0.0206
   53BDD     C939897   5.453   3.574   5.660  0.0752 -0.0349 -0.0449
   53BDD     S239898   5.350   3.518   5.796  0.0837 -0.0621 -0.0500
   53BDD    C1039899   5.205   3.584   5.714  0.0815 -0.0268 -0.0174
   53BDD    C1139900   5.072   3.556   5.782 -0.0855  0.8765  0.1460
   53BDD    C1239901   5.048   3.635   5.915 -0.1434  0.0235  0.8146
   53BDD    C1339902   5.072   3.789   5.909 -0.0858  0.0088 -0.3755
   53BDD    C1439903   5.003   3.879   5.812  0.4652  0.5649  0.7148
   53BDD    C1539904   4.864   3.929   5.867 -0.0787 -0.3384  0.0023
   53BDD    C1639905   4.808   4.010   5.748  0.1594  0.0236  0.2039
   53BDD    C1739906   4.914   3.589   5.963  0.1091  0.0034  0.3876
   53BDD    C1839907   4.874   3.636   6.109 -0.5366  0.6061 -0.0399
   53BDD    C1939908   5.591   3.519   5.663  0.2388 -0.1485 -0.3007
   53BDD    C2039909   5.673   3.556   5.789 -0.2340 -0.0251 -0.0056
   53BDD    C2139910   5.807   3.477   5.779 -0.6120 -0.1834  0.1786
   53BDD    C2239911   5.872   3.458   5.914 -0.2591 -0.5658 -0.1398
   53BDD    C2339912   5.996   3.377   5.921  0.6263  0.1216  0.6878
   53BDD    C2439913   5.978   3.230   5.888 -0.0318 -0.2147  0.5556
   53BDD    C2539914   5.669   3.703   5.833  0.0096  0.1566  0.0837
   53BDD    C2639915   5.731   3.815   5.746 -0.0202 -0.4131  0.3737
   54TPM     C139916   5.495   3.856   5.162  0.0743 -0.1932 -0.4129
   54TPM     C239917   5.594   3.768   5.128  0.2847  0.1085 -0.5908
   54TPM     C339918   5.689   3.822   5.034  0.2040  0.5510 -0.4243
   54TPM     C439919   5.663   3.951   4.997 -0.0679  0.5865 -0.1193
   54TPM     S139920   5.516   4.015   5.079 -0.2444  0.0598 -0.0181
   55BDTP    C139921   5.895   4.414   4.643 -0.2648  0.0452  0.1895
   55BDTP    C239922   6.013   4.341   4.674 -0.2424  0.0975  0.2272
   55BDTP    C339923   6.011   4.224   4.749 -0.2233  0.0557  0.1626
   55BDTP    C439924   5.887   4.177   4.795 -0.2264 -0.0423  0.0557
   55BDTP    C539925   5.769   4.251   4.764 -0.2489 -0.0948  0.0180
   55BDTP    C639926   5.771   4.367   4.689 -0.2680 -0.0528  0.0825
   55BDTP    C739927   5.860   4.059   4.875 -0.2093 -0.1012 -0.0260
   55BDTP    C839928   5.729   4.040   4.904 -0.2176 -0.1938 -0.1220
   55BDTP    S139929   5.621   4.170   4.835 -0.2484 -0.2198 -0.1224
   55BDTP    C939930   5.922   4.533   4.563 -0.2820  0.1041  0.2712
   55BDTP   C1039931   6.053   4.552   4.534 -0.2736  0.1968  0.3672
   55BDTP    S239932   6.160   4.422   4.603 -0.2428  0.2227  0.3677
   56FTM     S139933   6.194   4.044   4.623 -0.1466 -0.1668 -0.0384
   56FTM     C139934   6.335   3.986   4.720 -0.0078 -0.0776 -0.1863
   56FTM     C239935   6.329   4.038   4.846  0.2974  0.2267 -0.2922
   56FTM     C339936   6.217   4.123   4.874  0.4389  0.4045 -0.2654
   56FTM     C439937   6.135   4.137   4.766  0.2350  0.2309 -0.1346
   56FTM     F139938   6.424   4.010   4.943  0.4671  0.3620 -0.4197
   56FTM     C539939   6.428   3.895   4.651 -0.1026  0.3476 -0.1932
   56FTM     C639940   6.571   3.929   4.625 -0.7095  0.0756 -0.0260
   56FTM     C739941   6.594   4.057   4.541 -0.1510  0.0427 -0.3484
   56FTM     C839942   6.591   4.202   4.599  0.0266 -0.0224 -0.0372
   56FTM     C939943   6.691   4.231   4.715  0.2740 -0.5509 -0.8878
   56FTM    C1039944   6.825   4.264   4.658 -0.0957 -0.6561 -0.6753
   56FTM    C1139945   6.660   3.810   4.590  0.5518 -0.0190  0.2462
   56FTM    C1239946   6.810   3.821   4.593 -0.0509  0.1606  0.6583
   57FTM     S139947   5.569   4.520   4.808 -0.0705 -0.3230 -0.0039
   57FTM     C139948   5.451   4.596   4.694  0.0959  0.0960  0.1020
   57FTM     C239949   5.478   4.556   4.567  0.4220  0.7370 -0.0422
   57FTM     C339950   5.588   4.465   4.550  0.5585  0.9364 -0.2391
   57FTM     C439951   5.648   4.435   4.669  0.3297  0.4320 -0.2460
   57FTM     F139952   5.403   4.599   4.458  0.6160  1.1809 -0.0043
   57FTM     C539953   5.356   4.697   4.756 -0.1900 -0.1460 -0.1438
   57FTM     C639954   5.209   4.719   4.714 -1.1441  0.4862 -0.2141
   57FTM     C739955   5.186   4.797   4.587  0.0760  0.4911  0.3692
   57FTM     C839956   5.205   4.948   4.590 -0.0744  0.0030  0.3058
   57FTM     C939957   5.147   5.024   4.465  0.0338  0.6526 -0.3605
   57FTM    C1039958   5.180   5.169   4.460 -0.6595 -0.4454  0.0796
   57FTM    C1139959   5.122   4.601   4.738  0.4676  0.4441 -0.0578
   57FTM    C1239960   5.111   4.547   4.884  0.3999 -0.0807 -0.1398
   58TPM     C139961   6.105   4.660   4.450 -0.2981 -0.1163 -0.1580
   58TPM     C239962   6.232   4.681   4.408 -0.3176 -0.2948 -0.3054
   58TPM     C339963   6.249   4.800   4.328 -0.2139 -0.2335 -0.1931
   58TPM     C439964   6.133   4.870   4.310 -0.1154 -0.0083  0.0398
   58TPM     S139965   5.994   4.791   4.393 -0.1462  0.1450  0.1363
   59BDD     C139966   6.239   5.167   4.072  0.1146 -0.0851  0.3216
   59BDD     C239967   6.107   5.144   4.045  0.1106 -0.0468  0.3086
   59BDD     C339968   6.050   5.036   4.124  0.0439  0.0393  0.3799
   59BDD     C439969   6.140   4.977   4.209 -0.0023  0.0655  0.4466
   59BDD     S139970   6.301   5.054   4.197  0.0350 -0.0160  0.4240
   59BDD     C539971   6.028   5.221   3.947  0.1680 -0.0881  0.2300
   59BDD     C639972   5.909   4.994   4.111  0.0280  0.0925  0.3798
   59BDD     O139973   5.860   4.900   4.179 -0.0296  0.1668  0.4413
   59BDD     O239974   6.076   5.315   3.880  0.2257 -0.1624  0.1685
   59BDD     C739975   5.830   5.071   4.013  0.0854  0.0515  0.3014
   59BDD     C839976   5.886   5.179   3.935  0.1521 -0.0347  0.2298
   59BDD     C939977   5.797   5.237   3.849  0.1981 -0.0609  0.1634
   59BDD     S239978   5.635   5.160   3.861  0.1610  0.0205  0.1856
   59BDD    C1039979   5.698   5.048   3.986  0.0814  0.0896  0.2882
   59BDD    C1139980   5.591   4.943   4.034  0.8287 -0.4092 -0.3963
   59BDD    C1239981   5.489   4.977   4.150 -0.1985  0.0845 -0.1364
   59BDD    C1339982   5.402   5.097   4.114  0.1887  0.1819 -0.2422
   59BDD    C1439983   5.298   5.082   4.003  0.4239  0.3766 -0.1829
   59BDD    C1539984   5.193   5.184   3.969  0.1703 -0.1886 -0.4025
   59BDD    C1639985   5.113   5.219   4.096 -0.4152  0.5971  0.1195
   59BDD    C1739986   5.542   4.977   4.297  0.1346  0.3846  0.3780
   59BDD    C1839987   5.604   4.842   4.332 -0.3955  0.4881  0.3919
   59BDD    C1939988   5.806   5.354   3.748 -0.1348 -0.2862 -0.5866
   59BDD    C2039989   5.799   5.501   3.806  0.2957 -0.8108  0.6990
   59BDD    C2139990   5.807   5.607   3.694  0.0013 -0.3054  0.5048
   59BDD    C2239991   5.923   5.613   3.601  0.1209  0.7661 -0.2510
   59BDD    C2339992   6.060   5.653   3.664 -0.2194  0.6681 -0.4205
   59BDD    C2439993   6.174   5.637   3.563 -0.1298 -0.3946  0.1601
   59BDD    C2539994   5.677   5.527   3.890 -0.5337 -0.0645  0.6849
   59BDD    C2639995   5.663   5.647   3.976 -0.3748 -0.0902  0.4250
   60TPM     C139996   6.342   5.256   4.017  0.0366  0.5228 -0.1775
   60TPM     C239997   6.349   5.285   3.884  0.1943  0.4703 -0.1813
   60TPM     C339998   6.468   5.356   3.846  0.4565  0.0559 -0.1454
   60TPM     C439999   6.552   5.381   3.950  0.4991 -0.2074 -0.1141
   60TPM     S140000   6.487   5.317   4.105  0.2090  0.0494 -0.1279
   9.62179   9.62179   9.62179
