10pm6 after resize
40000
    1BDTP    C1    1   9.298  10.229   0.434 -0.6683  0.4723 -0.5850
    1BDTP    C2    2   9.306  10.092   0.396 -0.2058  0.3874 -0.1958
    1BDTP    C3    3   9.376  10.049   0.284  0.1776  0.2706  0.0862
    1BDTP    C4    4   9.441  10.145   0.206  0.1023  0.2356 -0.0201
    1BDTP    C5    5   9.433  10.283   0.243 -0.3603  0.3204 -0.4093
    1BDTP    C6    6   9.363  10.326   0.355 -0.7434  0.4375 -0.6912
    1BDTP    C7    7   9.520  10.125   0.086  0.4439  0.1199  0.2212
    1BDTP    C8    8   9.571  10.238   0.032  0.2632  0.1137  0.0343
    1BDTP    S1    9   9.526  10.387   0.126 -0.3657  0.2539 -0.4736
    1BDTP    C9   10   9.219  10.250   0.554 -1.0099  0.5884 -0.8263
    1BDTP   C10   11   9.168  10.137   0.607 -0.8290  0.5946 -0.6394
    1BDTP    S2   12   9.213   9.987   0.513 -0.2002  0.4544 -0.1315
    2FTM     S1   13   9.530   9.829   0.352 -0.2426  0.2078 -0.1773
    2FTM     C1   14   9.497   9.673   0.269 -0.1037 -0.0869  0.3111
    2FTM     C2   15   9.388   9.686   0.188 -0.0226 -0.3908  0.1500
    2FTM     C3   16   9.325   9.814   0.186 -0.0618 -0.4129 -0.3510
    2FTM     C4   17   9.388   9.903   0.268 -0.1771 -0.1162 -0.5810
    2FTM     F1   18   9.338   9.581   0.111  0.0923 -0.6673  0.4466
    2FTM     C5   19   9.570   9.549   0.320  1.1670  1.7061 -2.3039
    2FTM     C6   20   9.522   9.495   0.471 -1.5475 -0.4530 -0.8574
    2FTM     C7   21   9.583   9.587   0.587  1.0539 -1.8969  0.2340
    2FTM     C8   22   9.493   9.612   0.717  0.5342 -0.0108 -1.2014
    2FTM     C9   23   9.394   9.509   0.762  0.1229  1.3197  0.2814
    2FTM    C10   24   9.293   9.559   0.855  0.1814  0.7867 -0.6620
    2FTM    C11   25   9.513   9.339   0.479  0.9209 -0.4659 -0.2233
    2FTM    C12   26   9.639   9.250   0.457  0.2167  0.2735 -1.0007
    3FTM     S1   27   9.335  10.594   0.241  0.3426 -0.1231  0.2188
    3FTM     C1   28   9.288  10.722   0.359  0.8599  0.3223 -0.0471
    3FTM     C2   29   9.271  10.667   0.483  0.8056  0.6781  0.1061
    3FTM     C3   30   9.294  10.526   0.493  0.3691  0.6275  0.4318
    3FTM     C4   31   9.328  10.471   0.373  0.0793  0.2192  0.5311
    3FTM     F1   32   9.235  10.742   0.594  1.1482  1.0715 -0.0395
    3FTM     C5   33   9.327  10.872   0.334  0.1349  1.3239 -0.6958
    3FTM     C6   34   9.264  10.989   0.413  0.7555  1.4110 -0.6214
    3FTM     C7   35   9.326  11.113   0.440 -1.0679 -0.1543 -1.6974
    3FTM     C8   36   9.377  11.209   0.326  0.3745 -0.4220 -0.4922
    3FTM     C9   37   9.289  11.209   0.201  0.9993 -1.1186  0.7190
    3FTM    C10   38   9.348  11.292   0.098 -0.3603  0.8882  0.5300
    3FTM    C11   39   9.111  10.981   0.442  0.7937 -0.6655  0.3965
    3FTM    C12   40   9.038  11.101   0.514 -0.0881 -0.2286 -0.8920
    4TPM     C1   41   9.098  10.130   0.729 -0.5684 -0.0598  0.3770
    4TPM     C2   42   9.024  10.226   0.792 -0.2897 -0.1378  0.8336
    4TPM     C3   43   8.968  10.183   0.918 -0.0861 -0.4418  0.8224
    4TPM     C4   44   9.000  10.055   0.951 -0.2099 -0.5954  0.3573
    4TPM     S1   45   9.103   9.977   0.825 -0.5961 -0.3667 -0.1063
    5BDD     C1   46   8.824   9.834   1.222  0.0210  0.0862  0.0722
    5BDD     C2   47   8.935   9.885   1.283  0.0162  0.1216  0.0516
    5BDD     C3   48   9.007   9.980   1.201  0.0086  0.0935  0.0126
    5BDD     C4   49   8.951   9.999   1.078  0.0078  0.0371  0.0039
    5BDD     S1   50   8.803   9.900   1.057  0.0162  0.0155  0.0441
    5BDD     C5   51   8.978   9.849   1.420  0.0184  0.1824  0.0671
    5BDD     C6   52   9.130  10.048   1.247  0.0024  0.1230 -0.0148
    5BDD     O1   53   9.193  10.129   1.176 -0.0043  0.0989 -0.0485
    5BDD     O2   54   8.915   9.767   1.491  0.0248  0.2065  0.1008
    5BDD     C7   55   9.173  10.011   1.384  0.0041  0.1841  0.0007
    5BDD     C8   56   9.101   9.917   1.466  0.0117  0.2122  0.0398
    5BDD     C9   57   9.157   9.897   1.589  0.0126  0.2687  0.0484
    5BDD     S2   58   9.305   9.996   1.610  0.0042  0.2901  0.0082
    5BDD    C10   59   9.284  10.063   1.445 -0.0007  0.2193 -0.0198
    5BDD    C11   60   9.380  10.167   1.398 -0.5722 -0.3388 -0.5910
    5BDD    C12   61   9.394  10.294   1.496  0.5494 -0.0948  0.7532
    5BDD    C13   62   9.286  10.352   1.593  0.6496 -1.0578  0.8766
    5BDD    C14   63   9.172  10.440   1.529 -0.4068 -0.2551 -0.0688
    5BDD    C15   64   9.220  10.568   1.459 -0.7795  0.7039  0.0321
    5BDD    C16   65   9.114  10.668   1.413  1.3943 -0.5269 -0.1490
    5BDD    C17   66   9.532  10.304   1.544  0.1091  1.2343  0.2098
    5BDD    C18   67   9.599  10.439   1.563  1.0592 -0.9070 -0.0930
    5BDD    C19   68   9.128   9.798   1.700 -0.0152  0.4713  0.2343
    5BDD    C20   69   9.232   9.691   1.719  0.6422  1.5293 -0.4421
    5BDD    C21   70   9.207   9.563   1.629  0.6653  0.0854  0.1225
    5BDD    C22   71   9.213   9.432   1.703 -0.1574  0.7433  0.6594
    5BDD    C23   72   9.249   9.307   1.612  1.2105 -0.0144 -1.1308
    5BDD    C24   73   9.396   9.271   1.645 -0.5348 -0.4640  0.2988
    5BDD    C25   74   9.358   9.725   1.793 -0.8727  0.6208  0.2053
    5BDD    C26   75   9.482   9.710   1.710 -0.0991 -0.0491 -0.2767
    6TPM     C1   76   8.707   9.737   1.265 -0.1416  0.3003 -0.1170
    6TPM     C2   77   8.659   9.744   1.393 -0.2201  0.3607 -0.1496
    6TPM     C3   78   8.529   9.684   1.409 -0.1485  0.2012 -0.1622
    6TPM     C4   79   8.478   9.632   1.294 -0.0157  0.0184 -0.1393
    6TPM     S1   80   8.591   9.654   1.155  0.0294  0.0345 -0.0997
    7BDTP    C1   81   7.881   9.461   1.155  0.0745  0.1588  0.0659
    7BDTP    C2   82   7.879   9.475   1.297 -0.1653  0.0675  0.0724
    7BDTP    C3   83   7.991   9.512   1.370 -0.2292 -0.2000  0.3086
    7BDTP    C4   84   8.111   9.536   1.300 -0.0482 -0.3860  0.5500
    7BDTP    C5   85   8.113   9.523   1.158  0.1917 -0.2944  0.5434
    7BDTP    C6   86   8.001   9.485   1.085  0.2555 -0.0269  0.3073
    7BDTP    C7   87   8.239   9.576   1.354 -0.0709 -0.6722  0.8188
    7BDTP    C8   88   8.336   9.592   1.261  0.1373 -0.7987  1.0119
    7BDTP    S1   89   8.278   9.560   1.092  0.3920 -0.5729  0.8804
    7BDTP    C9   90   7.753   9.421   1.101  0.0974  0.4451 -0.2030
    7BDTP   C10   91   7.656   9.405   1.194 -0.1110  0.5717 -0.3961
    7BDTP    S2   92   7.713   9.437   1.363 -0.3658  0.3460 -0.2646
    8FTM     S1   93   8.095   9.622   1.618  1.0498  0.0372  0.2322
    8FTM     C1   94   8.013   9.572   1.770  0.5846  0.9680  0.3018
    8FTM     C2   95   7.917   9.481   1.743  0.5373  0.9439  0.5483
    8FTM     C3   96   7.901   9.444   1.606  0.8522  0.2174  0.6946
    8FTM     C4   97   7.988   9.510   1.525  1.1504 -0.3323  0.5556
    8FTM     F1   98   7.837   9.424   1.842  0.2060  1.5783  0.6562
    8FTM     C5   99   8.083   9.625   1.893  0.6971 -0.1274 -0.2798
    8FTM     C6  100   7.998   9.662   2.012 -1.0899  1.6091  1.5289
    8FTM     C7  101   7.989   9.816   2.025  0.3698  1.6281  0.0051
    8FTM     C8  102   7.849   9.874   1.961  0.1934  0.5632  0.1451
    8FTM     C9  103   7.710   9.860   2.022  1.6809  1.2751  0.9806
    8FTM    C10  104   7.662   9.917   2.150  1.2091 -0.1919 -0.2713
    8FTM    C11  105   7.913   9.559   2.086  1.2036  1.1133  0.6956
    8FTM    C12  106   7.879   9.596   2.229 -0.6116 -0.3396  0.4727
    9FTM     S1  107   7.972   9.368   0.819 -0.5369 -0.0166 -0.0212
    9FTM     C1  108   7.943   9.484   0.685 -0.6856  0.1928  0.1909
    9FTM     C2  109   7.952   9.612   0.732 -0.4644  0.1228  0.3441
    9FTM     C3  110   7.981   9.626   0.871 -0.1729 -0.0925  0.3069
    9FTM     C4  111   7.995   9.506   0.934 -0.1707 -0.1906  0.1190
    9FTM     F1  112   7.933   9.723   0.651 -0.5130  0.2496  0.5273
    9FTM     C5  113   7.959   9.438   0.542 -0.2719  0.4922  1.0714
    9FTM     C6  114   8.062   9.467   0.420  1.3016  0.1303 -0.3994
    9FTM     C7  115   8.161   9.579   0.444 -0.2004  0.1033  0.7285
    9FTM     C8  116   8.269   9.587   0.535 -0.6353 -1.0802  0.8177
    9FTM     C9  117   8.296   9.492   0.647  0.8187  0.8189  1.2406
    9FTM    C10  118   8.428   9.408   0.633 -0.3226  0.6362 -1.4628
    9FTM    C11  119   8.031   9.421   0.278  0.6659 -0.9189 -0.0885
    9FTM    C12  120   7.960   9.547   0.214 -0.5096 -1.6194  0.5780
   10TPM     C1  121   7.514   9.384   1.184  0.4712  0.7192 -0.3457
   10TPM     C2  122   7.425   9.341   1.277  0.9944  1.1241  0.3623
   10TPM     C3  123   7.291   9.328   1.227  0.6956  0.9196  1.1859
   10TPM     C4  124   7.278   9.361   1.096 -0.0555  0.3591  1.1059
   10TPM     S1  125   7.435   9.412   1.024 -0.4468  0.0428 -0.0245
   11BDD     C1  126   6.887   9.337   1.038  0.0215  0.1110  0.3619
   11BDD     C2  127   6.931   9.426   0.944  0.0557  0.0138  0.2855
   11BDD     C3  128   7.075   9.439   0.940  0.0653 -0.1135  0.2107
   11BDD     C4  129   7.139   9.359   1.031  0.0385 -0.1119  0.2311
   11BDD     S1  130   7.023   9.263   1.128 -0.0007  0.0498  0.3454
   11BDD     C5  131   6.842   9.502   0.854  0.0803  0.0348  0.2786
   11BDD     C6  132   7.145   9.529   0.846  0.1009 -0.2327  0.1217
   11BDD     O1  133   7.269   9.540   0.843  0.1092 -0.3426  0.0572
   11BDD     O2  134   6.717   9.491   0.858  0.0720  0.1447  0.3431
   11BDD     C7  135   7.056   9.606   0.757  0.1258 -0.2117  0.1147
   11BDD     C8  136   6.911   9.593   0.760  0.1160 -0.0844  0.1896
   11BDD     C9  137   6.847   9.672   0.669  0.1429 -0.0858  0.1692
   11BDD     S2  138   6.964   9.769   0.573  0.1821 -0.2475  0.0549
   11BDD    C10  139   7.100   9.695   0.663  0.1600 -0.3088  0.0384
   11BDD    C11  140   7.242   9.739   0.630 -1.0995 -0.1667  0.4769
   11BDD    C12  141   7.284   9.882   0.626  0.8547 -0.4386 -0.1961
   11BDD    C13  142   7.375   9.943   0.507  0.4899  0.4182  0.6621
   11BDD    C14  143   7.323   9.923   0.356  0.5939 -0.0805 -0.1621
   11BDD    C15  144   7.429   9.877   0.257 -1.0721  0.5607  0.3238
   11BDD    C16  145   7.412   9.917   0.104  1.1090 -0.4240 -0.4930
   11BDD    C17  146   7.324   9.922   0.759 -0.6410  0.7099 -0.4193
   11BDD    C18  147   7.328  10.066   0.806  1.0752 -0.6556  0.9382
   11BDD    C19  148   6.707   9.694   0.622 -1.0080  0.1755  0.1407
   11BDD    C20  149   6.624   9.810   0.696  0.5390  0.0830  1.1231
   11BDD    C21  150   6.536   9.735   0.787 -0.2359  0.7236 -0.2992
   11BDD    C22  151   6.426   9.818   0.873 -0.9617 -1.7614  0.8045
   11BDD    C23  152   6.404   9.754   1.009  0.0367 -0.5898  0.5549
   11BDD    C24  153   6.523   9.749   1.094 -0.0211 -1.0013 -0.5190
   11BDD    C25  154   6.706   9.927   0.769  0.2120  0.9021  1.4138
   11BDD    C26  155   6.778  10.034   0.696  0.6131 -0.8225 -1.3370
   12TPM     C1  156   6.744   9.278   1.074 -0.1327  0.2764  0.7374
   12TPM     C2  157   6.721   9.143   1.077 -0.3293  0.3154  1.0452
   12TPM     C3  158   6.581   9.108   1.074 -0.3698  0.5021  0.7229
   12TPM     C4  159   6.498   9.216   1.067 -0.2041  0.6054  0.1694
   12TPM     S1  160   6.590   9.371   1.066  0.0177  0.4738  0.0109
   13BDTP    C1  161   5.890   9.365   1.011  0.0335  0.3724 -0.1810
   13BDTP    C2  162   5.909   9.369   1.152 -0.2546  0.2933 -0.1368
   13BDTP    C3  163   6.030   9.336   1.212 -0.3524  0.3345  0.0853
   13BDTP    C4  164   6.136   9.296   1.129 -0.1574  0.4590  0.2730
   13BDTP    C5  165   6.117   9.291   0.988  0.1305  0.5379  0.2288
   13BDTP    C6  166   5.996   9.325   0.928  0.2284  0.4967  0.0067
   13BDTP    C7  167   6.270   9.256   1.168 -0.2093  0.5222  0.5178
   13BDTP    C8  168   6.351   9.223   1.065  0.0229  0.6433  0.6578
   13BDTP    S1  169   6.269   9.236   0.903  0.3400  0.6943  0.4992
   13BDTP    C9  170   5.756   9.404   0.972  0.0854  0.3092 -0.4258
   13BDTP   C10  171   5.675   9.438   1.076 -0.1470  0.1881 -0.5657
   13BDTP    S2  172   5.757   9.424   1.237 -0.4640  0.1369 -0.4071
   14FTM     S1  173   6.023   9.239   1.473  0.4443 -0.1255 -0.5685
   14FTM     C1  174   6.121   9.329   1.595  1.1362 -0.6079 -0.7549
   14FTM     C2  175   6.168   9.444   1.540  0.2829 -0.0665 -0.3988
   14FTM     C3  176   6.133   9.469   1.404 -0.9315  0.7362  0.0303
   14FTM     C4  177   6.055   9.369   1.352 -1.0108  0.8125  0.0019
   14FTM     F1  178   6.247   9.534   1.611  0.5507 -0.2666 -0.4403
   14FTM     C5  179   6.158   9.268   1.723 -0.8864  0.2584  0.5806
   14FTM     C6  180   6.212   9.355   1.850 -0.4106  0.4485 -0.1850
   14FTM     C7  181   6.340   9.292   1.937  1.0416 -1.2127  1.2458
   14FTM     C8  182   6.333   9.144   1.999  0.4846 -1.8419 -0.6967
   14FTM     C9  183   6.356   9.034   1.896 -0.6058 -1.0075 -0.2623
   14FTM    C10  184   6.337   8.903   1.957 -0.6111  1.3102 -0.7151
   14FTM    C11  185   6.093   9.406   1.927  0.1361 -0.0223  0.1885
   14FTM    C12  186   6.117   9.547   1.987  0.2675 -0.0490  1.0026
   15FTM     S1  187   5.888   9.235   0.658 -0.5168  0.4138  0.4003
   15FTM     C1  188   5.929   9.365   0.539 -0.1776  0.0402  0.1029
   15FTM     C2  189   6.010   9.457   0.598  0.4953 -0.3006 -0.2618
   15FTM     C3  190   6.044   9.434   0.735  0.7812 -0.2928 -0.3305
   15FTM     C4  191   5.988   9.319   0.783  0.3119  0.0664 -0.0079
   15FTM     F1  192   6.057   9.569   0.530  0.8922 -0.6404 -0.5551
   15FTM     C5  193   5.889   9.357   0.399  1.6190  0.1053 -1.2868
   15FTM     C6  194   5.783   9.236   0.364  0.0053  0.5581  1.1572
   15FTM     C7  195   5.629   9.238   0.392  0.9432 -0.1748 -0.7954
   15FTM     C8  196   5.548   9.376   0.394 -0.8389  0.7160 -0.7495
   15FTM     C9  197   5.416   9.381   0.466  0.8912  0.1176  0.1412
   15FTM    C10  198   5.406   9.328   0.603  0.4083  0.4776 -0.4853
   15FTM    C11  199   5.814   9.210   0.211 -0.3427  0.0800 -0.9511
   15FTM    C12  200   5.863   9.066   0.195  0.2868 -0.9853 -1.3304
   16TPM     C1  201   5.537   9.450   1.088 -0.2920 -0.1487 -0.3380
   16TPM     C2  202   5.456   9.393   1.182 -0.6431  0.0942 -0.4907
   16TPM     C3  203   5.317   9.425   1.165 -0.5521  0.2680 -0.9362
   16TPM     C4  204   5.292   9.506   1.058 -0.1313  0.1576 -1.1233
   16TPM     S1  205   5.443   9.549   0.970  0.1845 -0.1769 -0.7482
   17BDD     C1  206   4.924   9.596   0.973  0.3105  0.4672  0.0013
   17BDD     C2  207   4.960   9.676   1.078  0.2733  0.4327  0.0406
   17BDD     C3  208   5.095   9.653   1.125  0.1959  0.2894  0.2003
   17BDD     C4  209   5.161   9.556   1.054  0.1752  0.2169  0.2806
   17BDD     S1  210   5.058   9.487   0.925  0.2514  0.3231  0.1616
   17BDD     C5  211   4.870   9.776   1.140  0.3074  0.5300 -0.0674
   17BDD     C6  212   5.155   9.729   1.237  0.1452  0.2296  0.2676
   17BDD     O1  213   5.272   9.710   1.277  0.0783  0.1061  0.4054
   17BDD     O2  214   4.753   9.795   1.100  0.3741  0.6535 -0.2051
   17BDD     C7  215   5.065   9.829   1.298  0.1793  0.3271  0.1597
   17BDD     C8  216   4.930   9.852   1.252  0.2567  0.4704 -0.0001
   17BDD     C9  217   4.864   9.949   1.322  0.2774  0.5426 -0.0803
   17BDD     S2  218   4.967  10.018   1.451  0.2012  0.4364  0.0386
   17BDD    C10  219   5.101   9.909   1.403  0.1421  0.2923  0.1990
   17BDD    C11  220   5.223   9.918   1.510 -0.4029  0.5906  0.2755
   17BDD    C12  221   5.232   9.847   1.653 -0.3664 -0.5293  0.0836
   17BDD    C13  222   5.280   9.705   1.638  0.0244 -0.8743 -0.5095
   17BDD    C14  223   5.432   9.696   1.617 -0.3569  0.6955 -1.0456
   17BDD    C15  224   5.484   9.566   1.556  1.1332 -1.2216  0.7886
   17BDD    C16  225   5.440   9.440   1.616  0.4358 -0.2078  0.7160
   17BDD    C17  226   5.129   9.887   1.741 -0.6212  1.9971 -2.3688
   17BDD    C18  227   5.148   9.846   1.889  0.3986 -0.7665  0.1847
   17BDD    C19  228   4.744  10.038   1.294 -1.1655 -0.0105  0.0429
   17BDD    C20  229   4.630   9.994   1.373  0.2803 -1.6469 -0.0638
   17BDD    C21  230   4.502  10.005   1.291  0.1400 -1.0614 -1.0122
   17BDD    C22  231   4.388   9.899   1.297 -1.6013 -0.5537 -0.1727
   17BDD    C23  232   4.382   9.792   1.172 -1.3390  0.5584 -1.0522
   17BDD    C24  233   4.310   9.660   1.196  1.4276 -1.6339 -0.4280
   17BDD    C25  234   4.625  10.018   1.519  0.4115  0.0818  0.5685
   17BDD    C26  235   4.563  10.156   1.565 -0.0763  0.4649  0.9880
   18TPM     C1  236   4.804   9.562   0.888 -0.4173 -0.7368  0.3005
   18TPM     C2  237   4.802   9.449   0.811 -0.5596 -0.6988  0.2474
   18TPM     C3  238   4.676   9.425   0.746 -0.4762 -0.2978 -0.0751
   18TPM     C4  239   4.581   9.519   0.774 -0.2702 -0.0302 -0.2679
   18TPM     S1  240   4.645   9.647   0.885 -0.1651 -0.2655 -0.0554
   19BDTP    C1  241   3.986   9.488   0.551 -0.4523  0.6723 -0.6338
   19BDTP    C2  242   4.062   9.418   0.452 -0.5401  0.0973 -0.3037
   19BDTP    C3  243   4.199   9.400   0.461 -0.6216 -0.4072 -0.0111
   19BDTP    C4  244   4.265   9.453   0.573 -0.6162 -0.3419 -0.0449
   19BDTP    C5  245   4.190   9.523   0.672 -0.5283  0.2334 -0.3750
   19BDTP    C6  246   4.053   9.541   0.663 -0.4470  0.7374 -0.6677
   19BDTP    C7  247   4.407   9.447   0.605 -0.6909 -0.7984  0.2209
   19BDTP    C8  248   4.441   9.508   0.721 -0.6639 -0.5970  0.1078
   19BDTP    S1  249   4.298   9.582   0.807 -0.5399  0.2000 -0.3513
   19BDTP    C9  250   3.845   9.494   0.519 -0.3776  1.1289 -0.8997
   19BDTP   C10  251   3.811   9.433   0.403 -0.4047  0.9272 -0.7866
   19BDTP    S2  252   3.953   9.359   0.317 -0.5286  0.1303 -0.3274
   20FTM     S1  253   4.411   9.229   0.389 -0.3250 -0.2014  0.3736
   20FTM     C1  254   4.460   9.223   0.216  0.9266  0.5671  0.6757
   20FTM     C2  255   4.376   9.301   0.141  1.3546  0.7615  0.3917
   20FTM     C3  256   4.272   9.368   0.213  0.7496  0.3345 -0.0670
   20FTM     C4  257   4.275   9.341   0.346 -0.1714 -0.2041 -0.1365
   20FTM     F1  258   4.390   9.316   0.004  2.3193  1.3368  0.5302
   20FTM     C5  259   4.587   9.150   0.206 -0.0254  0.6942  0.6356
   20FTM     C6  260   4.623   9.011   0.252 -0.2752  1.9174  0.7319
   20FTM     C7  261   4.711   8.968   0.382 -0.9007 -0.3696 -0.4433
   20FTM     C8  262   4.865   9.010   0.343 -0.7827  0.3525  0.4299
   20FTM     C9  263   4.969   9.004   0.451  0.7084 -0.4839 -0.5064
   20FTM    C10  264   5.113   8.998   0.389 -0.1455  0.6162 -0.3337
   20FTM    C11  265   4.543   8.892   0.195 -1.4429 -0.6063 -0.0084
   20FTM    C12  266   4.549   8.878   0.034  0.0143  0.4117 -0.2924
   21FTM     S1  267   4.038   9.799   0.805 -0.1054 -0.4228  0.3809
   21FTM     C1  268   3.889   9.822   0.903 -0.2520 -0.0987  0.0856
   21FTM     C2  269   3.816   9.707   0.904 -0.6149  0.1233 -0.2372
   21FTM     C3  270   3.871   9.597   0.830 -0.7969  0.0567 -0.2738
   21FTM     C4  271   3.989   9.629   0.771 -0.5657 -0.2253  0.0310
   21FTM     F1  272   3.696   9.695   0.971 -0.8041  0.4001 -0.5188
   21FTM     C5  273   3.891   9.937   0.995 -1.1130 -0.3843  0.3305
   21FTM     C6  274   3.829  10.066   0.944 -0.5769 -1.2999  0.6012
   21FTM     C7  275   3.763  10.143   1.053  0.0075 -0.5008  0.0650
   21FTM     C8  276   3.613  10.159   1.067  0.7100 -1.4732 -0.9665
   21FTM     C9  277   3.531  10.038   1.083 -0.0140  1.0719  1.1132
   21FTM    C10  278   3.389  10.063   1.099  1.3591  0.2313 -0.4638
   21FTM    C11  279   3.931  10.139   0.849 -0.4704 -0.4901 -0.1862
   21FTM    C12  280   4.058  10.196   0.915  1.3106  1.4072  0.5887
   22TPM     C1  281   3.670   9.416   0.359  0.4234  1.7297 -0.4279
   22TPM     C2  282   3.614   9.361   0.247  0.2735  1.4050 -0.1937
   22TPM     C3  283   3.471   9.372   0.243  0.0935  0.0019  0.7217
   22TPM     C4  284   3.417   9.436   0.351  0.1060 -0.7429  1.1856
   22TPM     S1  285   3.545   9.488   0.467  0.3481  0.2781  0.4969
   23BDD     C1  286   3.034   9.466   0.276  0.1224  0.1293 -0.0194
   23BDD     C2  287   3.084   9.593   0.260 -0.0078  0.1824 -0.0069
   23BDD     C3  288   3.225   9.604   0.293 -0.0356  0.3390  0.0577
   23BDD     C4  289   3.281   9.486   0.335  0.0738  0.4030  0.0936
   23BDD     S1  290   3.161   9.353   0.335  0.2191  0.2720  0.0488
   23BDD     C5  291   3.004   9.707   0.213 -0.1113  0.0911 -0.0539
   23BDD     C6  292   3.299   9.732   0.283 -0.1696  0.4191  0.0816
   23BDD     O1  293   3.420   9.742   0.312 -0.1935  0.5543  0.1374
   23BDD     O2  294   2.882   9.697   0.184 -0.0874 -0.0439 -0.1096
   23BDD     C7  295   3.218   9.846   0.236 -0.2732  0.3283  0.0347
   23BDD     C8  296   3.078   9.835   0.202 -0.2455  0.1717 -0.0300
   23BDD     C9  297   3.022   9.953   0.161 -0.3548  0.1075 -0.0658
   23BDD     S2  298   3.142  10.086   0.161 -0.5001  0.2384 -0.0210
   23BDD    C10  299   3.268   9.973   0.219 -0.4033  0.3812  0.0472
   23BDD    C11  300   3.401  10.039   0.240 -0.1119  0.2317  1.7310
   23BDD    C12  301   3.382  10.182   0.301 -1.3930 -1.0130 -0.8190
   23BDD    C13  302   3.413  10.311   0.223 -0.1409  0.6058 -0.8475
   23BDD    C14  303   3.544  10.305   0.148  0.5182  0.3381 -0.9711
   23BDD    C15  304   3.569  10.414   0.056 -0.5281  0.2482 -1.0609
   23BDD    C16  305   3.701  10.355  -0.012  0.4547 -1.2630 -0.7037
   23BDD    C17  306   3.408  10.213   0.446 -0.4772  1.0564  0.1840
   23BDD    C18  307   3.493  10.113   0.527 -0.1702 -0.8424  0.5491
   23BDD    C19  308   2.883   9.985   0.110 -0.6012 -0.5793  0.3975
   23BDD    C20  309   2.783  10.071   0.197 -0.2293  0.1452  0.5106
   23BDD    C21  310   2.758   9.998   0.327 -0.0070  1.0753  1.2748
   23BDD    C22  311   2.717  10.087   0.443 -0.2874 -0.9411  0.2349
   23BDD    C23  312   2.829  10.153   0.517 -0.0169 -0.4786 -0.3309
   23BDD    C24  313   2.751  10.226   0.630 -0.5909  0.5389  0.5454
   23BDD    C25  314   2.641  10.069   0.123 -1.3472  0.8106 -1.1370
   23BDD    C26  315   2.616  10.152  -0.008  0.0890 -0.4044 -0.2401
   24TPM     C1  316   2.907   9.401   0.233  0.1466 -0.1661  0.4757
   24TPM     C2  317   2.833   9.437   0.123  0.1596 -0.1156  0.4836
   24TPM     C3  318   2.711   9.362   0.109  0.0865 -0.0036  0.5191
   24TPM     C4  319   2.691   9.269   0.207  0.0178  0.0314  0.5384
   24TPM     S1  320   2.827   9.269   0.326  0.0403 -0.0754  0.5128
   25BDTP    C1  321   2.223   8.870   0.091 -0.0570 -0.0591 -0.1058
   25BDTP    C2  322   2.337   8.785   0.098  0.0906  0.1276 -0.2234
   25BDTP    C3  323   2.464   8.832   0.131  0.0259  0.3145 -0.2353
   25BDTP    C4  324   2.479   8.969   0.159 -0.1948  0.3169 -0.1262
   25BDTP    C5  325   2.365   9.054   0.153 -0.3424  0.1302 -0.0086
   25BDTP    C6  326   2.238   9.007   0.120 -0.2777 -0.0565  0.0033
   25BDTP    C7  327   2.600   9.039   0.195 -0.2997  0.4918 -0.1153
   25BDTP    C8  328   2.582   9.172   0.216 -0.5162  0.4454  0.0033
   25BDTP    S1  329   2.410   9.226   0.193 -0.6176  0.1740  0.1179
   25BDTP    C9  330   2.102   8.800   0.055  0.0479 -0.2341 -0.1167
   25BDTP   C10  331   2.119   8.667   0.034  0.2643 -0.1876 -0.2353
   25BDTP    S2  332   2.292   8.613   0.057  0.3658  0.0837 -0.3499
   26FTM     S1  333   2.689   8.720   0.278  0.0074  0.2177  0.1159
   26FTM     C1  334   2.793   8.613   0.176  0.1919  0.8701 -0.3913
   26FTM     C2  335   2.735   8.596   0.054  0.0300  1.0362 -0.3397
   26FTM     C3  336   2.610   8.662   0.033 -0.2407  0.6745  0.0870
   26FTM     C4  337   2.571   8.733   0.142 -0.2877  0.2167  0.3715
   26FTM     F1  338   2.792   8.518  -0.046  0.1175  1.5249 -0.6757
   26FTM     C5  339   2.908   8.549   0.241  0.7222  0.1822 -1.0340
   26FTM     C6  340   3.001   8.665   0.285  0.6015 -0.3413  0.7587
   26FTM     C7  341   3.112   8.589   0.367  0.5866  0.0514  0.2130
   26FTM     C8  342   3.156   8.630   0.514 -1.4333 -0.0339  1.0672
   26FTM     C9  343   3.062   8.640   0.626  1.1481 -1.4766  0.0732
   26FTM    C10  344   2.951   8.532   0.657 -0.2083  0.1567  1.6676
   26FTM    C11  345   3.053   8.756   0.176 -0.3756  0.0967  0.1471
   26FTM    C12  346   3.019   8.904   0.201 -0.0908 -0.1887 -0.1256
   27FTM     S1  347   2.067   9.135   0.300 -0.2527 -0.1238 -0.1897
   27FTM     C1  348   1.991   9.288   0.243 -0.0545  0.0452 -0.0039
   27FTM     C2  349   2.014   9.305   0.110 -0.1206  0.1254 -0.0058
   27FTM     C3  350   2.090   9.202   0.046 -0.3247  0.0615 -0.1483
   27FTM     C4  351   2.127   9.103   0.133 -0.4177 -0.0717 -0.2593
   27FTM     F1  352   1.967   9.414   0.038 -0.0004  0.2608  0.1214
   27FTM     C5  353   1.900   9.334   0.351  0.7564 -0.6597  0.4523
   27FTM     C6  354   1.928   9.440   0.457  0.8202  0.0461  0.2603
   27FTM     C7  355   1.984   9.567   0.415  1.1567 -1.4791  0.4200
   27FTM     C8  356   1.897   9.660   0.327 -1.7166 -1.0219  0.3054
   27FTM     C9  357   1.906   9.801   0.368 -0.2276  0.4473 -0.3065
   27FTM    C10  358   1.773   9.869   0.336 -0.1150  0.2305  0.4116
   27FTM    C11  359   1.874   9.438   0.597 -1.0413 -0.6120 -0.1997
   27FTM    C12  360   1.972   9.494   0.697 -0.2402  0.5223 -0.1322
   28TPM     C1  361   2.018   8.563   0.033  0.2678  0.0943  0.0530
   28TPM     C2  362   2.029   8.431   0.001  0.3501 -0.0687  0.7273
   28TPM     C3  363   1.903   8.363  -0.011  0.3903 -0.1991  1.0089
   28TPM     C4  364   1.795   8.444   0.011  0.3386 -0.1357  0.5493
   28TPM     S1  365   1.846   8.613   0.050  0.2344  0.0958 -0.2812
   29BDD     C1  366   1.467   8.232  -0.045  0.1241 -0.0618  0.0608
   29BDD     C2  367   1.451   8.347  -0.118  0.0799 -0.0412  0.1025
   29BDD     C3  368   1.560   8.441  -0.100 -0.0392  0.0658  0.2673
   29BDD     C4  369   1.657   8.398  -0.014 -0.0840  0.1250  0.3482
   29BDD     S1  370   1.618   8.235   0.051  0.0198  0.0510  0.2244
   29BDD     C5  371   1.336   8.374  -0.206  0.1455 -0.1190 -0.0072
   29BDD     C6  372   1.563   8.572  -0.169 -0.1042  0.1051  0.3378
   29BDD     O1  373   1.657   8.654  -0.154 -0.2069  0.1974  0.4799
   29BDD     O2  374   1.242   8.292  -0.221  0.2481 -0.2115 -0.1493
   29BDD     C7  375   1.448   8.599  -0.257 -0.0387  0.0272  0.2284
   29BDD     C8  376   1.339   8.504  -0.275  0.0804 -0.0799  0.0637
   29BDD     C9  377   1.243   8.548  -0.361  0.1252 -0.1392 -0.0172
   29BDD     S2  378   1.281   8.711  -0.426  0.0214 -0.0649  0.1066
   29BDD    C10  379   1.432   8.714  -0.330 -0.0829  0.0477  0.2706
   29BDD    C11  380   1.514   8.816  -0.392 -0.0230  0.1530  0.6678
   29BDD    C12  381   1.643   8.760  -0.463  1.4882 -1.0210 -2.0775
   29BDD    C13  382   1.622   8.690  -0.590  0.6351 -0.2935  1.0318
   29BDD    C14  383   1.731   8.583  -0.626 -0.3935 -0.0467 -0.9176
   29BDD    C15  384   1.714   8.549  -0.780  0.3114 -0.1155 -0.2636
   29BDD    C16  385   1.645   8.398  -0.788 -0.7734  0.2497  0.7138
   29BDD    C17  386   1.765   8.869  -0.446  1.7150 -0.1698 -1.4294
   29BDD    C18  387   1.819   8.922  -0.299 -0.9955 -0.2890 -0.3448
   29BDD    C19  388   1.110   8.499  -0.397  0.8413  1.0384  0.5936
   29BDD    C20  389   1.098   8.355  -0.466 -1.3618  0.1335  0.6692
   29BDD    C21  390   1.208   8.329  -0.587  1.3448  0.0313 -0.3654
   29BDD    C22  391   1.216   8.174  -0.630 -0.6709  0.6889 -0.7202
   29BDD    C23  392   1.365   8.109  -0.619 -0.1924 -0.7708  1.1811
   29BDD    C24  393   1.354   7.957  -0.590  0.7059 -0.5539  0.2290
   29BDD    C25  394   0.955   8.320  -0.484  1.4503  0.0476  0.1349
   29BDD    C26  395   0.920   8.172  -0.527 -0.0315 -0.1295 -0.1113
   30TPM     C1  396   1.387   8.109  -0.023  0.3574  0.0572  0.0273
   30TPM     C2  397   1.345   8.079   0.103  0.0170  0.1826 -0.0541
   30TPM     C3  398   1.260   7.963   0.110 -0.1614  0.3037 -0.1912
   30TPM     C4  399   1.238   7.904  -0.011  0.0428  0.2707 -0.2139
   30TPM     S1  400   1.323   7.992  -0.144  0.4798  0.0825 -0.0628
   31BDTP    C1  401   0.866   7.382   0.011 -0.0083 -0.2847 -0.1385
   31BDTP    C2  402   0.825   7.446  -0.110 -0.0711 -0.0056  0.0310
   31BDTP    C3  403   0.883   7.564  -0.155 -0.1475  0.1416  0.3128
   31BDTP    C4  404   0.986   7.621  -0.078 -0.1629  0.0080  0.4334
   31BDTP    C5  405   1.027   7.557   0.042 -0.1002 -0.2711  0.2641
   31BDTP    C6  406   0.969   7.439   0.088 -0.0238 -0.4185 -0.0177
   31BDTP    C7  407   1.060   7.743  -0.104 -0.2372  0.1182  0.7203
   31BDTP    C8  408   1.154   7.772  -0.011 -0.2334 -0.0623  0.7739
   31BDTP    S1  409   1.161   7.650   0.123 -0.1351 -0.3972  0.4684
   31BDTP    C9  410   0.791   7.260   0.037  0.0660 -0.3949 -0.4254
   31BDTP   C10  411   0.698   7.231  -0.056  0.0621 -0.2146 -0.4790
   31BDTP    S2  412   0.691   7.353  -0.191 -0.0362  0.1204 -0.1735
   32FTM     S1  413   0.850   7.777  -0.348  0.4666 -0.0130 -0.1916
   32FTM     C1  414   0.836   7.723  -0.520  0.0065 -0.4826 -0.0126
   32FTM     C2  415   0.839   7.588  -0.526 -0.6025 -0.5221  0.3982
   32FTM     C3  416   0.852   7.519  -0.401 -0.7450 -0.1978  0.5934
   32FTM     C4  417   0.859   7.605  -0.295 -0.2282  0.1002  0.3240
   32FTM     F1  418   0.831   7.517  -0.645 -1.0671 -0.8546  0.6213
   32FTM     C5  419   0.822   7.835  -0.624  0.2618  0.1210 -0.3596
   32FTM     C6  420   0.837   7.810  -0.772  0.5739  0.5332  0.7040
   32FTM     C7  421   0.729   7.747  -0.869  0.2560  0.5374  0.0363
   32FTM     C8  422   0.593   7.809  -0.858 -0.5538  1.4220 -0.3250
   32FTM     C9  423   0.495   7.751  -0.948 -0.4635 -0.2153  0.5597
   32FTM    C10  424   0.370   7.839  -0.959  0.6034  0.1412 -1.0176
   32FTM    C11  425   0.950   7.898  -0.826 -0.5030  1.1073  0.0470
   32FTM    C12  426   1.060   7.804  -0.885 -0.2080  1.9712  1.0062
   33FTM     S1  427   0.954   7.495   0.373 -0.6632  0.3731 -0.4603
   33FTM     C1  428   1.000   7.361   0.485 -0.3690  1.0605  0.2675
   33FTM     C2  429   1.045   7.255   0.413 -0.4730  0.6387  0.8135
   33FTM     C3  430   1.047   7.271   0.270 -0.7803 -0.2236  0.7018
   33FTM     C4  431   1.001   7.393   0.232 -0.9162 -0.4702  0.0490
   33FTM     F1  432   1.087   7.136   0.472 -0.2961  1.0086  1.4468
   33FTM     C5  433   0.977   7.359   0.637  0.5240 -0.0130  0.7547
   33FTM     C6  434   1.025   7.472   0.733  0.5715 -0.3372  1.2227
   33FTM     C7  435   1.107   7.572   0.663 -0.3910  0.6834 -0.0903
   33FTM     C8  436   1.245   7.529   0.701  0.2308 -0.2407  1.2200
   33FTM     C9  437   1.352   7.626   0.642  0.3979 -0.6630 -0.4994
   33FTM    C10  438   1.434   7.708   0.748  0.9029 -0.0986 -0.6133
   33FTM    C11  439   0.933   7.526   0.844  0.4105 -0.7950 -0.1258
   33FTM    C12  440   0.871   7.422   0.934 -0.2289  0.8177 -0.1340
   34TPM     C1  441   0.618   7.111  -0.061  0.7263 -0.6903 -0.3656
   34TPM     C2  442   0.485   7.112  -0.090  0.7015 -0.0838 -0.2491
   34TPM     C3  443   0.414   6.995  -0.046  0.0969  0.4621  0.2735
   34TPM     C4  444   0.494   6.904   0.018 -0.3393  0.2717  0.5553
   34TPM     S1  445   0.665   6.960   0.026 -0.0178 -0.6186  0.1800
   35BDD     C1  446   0.443   6.524   0.042 -0.1451  0.2122  0.2552
   35BDD     C2  447   0.345   6.581   0.117 -0.1397  0.2269  0.2512
   35BDD     C3  448   0.350   6.726   0.119 -0.1544  0.2283  0.2025
   35BDD     C4  449   0.453   6.777   0.045 -0.1709  0.2145  0.1701
   35BDD     S1  450   0.550   6.648  -0.032 -0.1691  0.1991  0.1981
   35BDD     C5  451   0.242   6.504   0.191 -0.1208  0.2402  0.2920
   35BDD     C6  452   0.253   6.808   0.195 -0.1517  0.2432  0.1899
   35BDD     O1  453   0.257   6.933   0.197 -0.1644  0.2443  0.1479
   35BDD     O2  454   0.237   6.378   0.189 -0.1081  0.2391  0.3340
   35BDD     C7  455   0.150   6.731   0.268 -0.1328  0.2565  0.2308
   35BDD     C8  456   0.145   6.586   0.266 -0.1180  0.2552  0.2794
   35BDD     C9  457   0.042   6.534   0.340 -0.1016  0.2691  0.3119
   35BDD     S2  458  -0.055   6.664   0.417 -0.1033  0.2843  0.2837
   35BDD    C10  459   0.051   6.788   0.344 -0.1273  0.2714  0.2268
   35BDD    C11  460   0.008   6.931   0.350  0.4772  0.9622  0.3750
   35BDD    C12  461   0.027   7.021   0.469 -0.9000 -0.6967 -1.0772
   35BDD    C13  462   0.051   7.161   0.413 -1.2994  0.1117  0.4726
   35BDD    C14  463   0.155   7.262   0.480  0.8650  0.0980 -0.1270
   35BDD    C15  464   0.275   7.199   0.517  1.3199 -0.4218  0.8232
   35BDD    C16  465   0.378   7.247   0.434  0.1996 -0.6436  0.3987
   35BDD    C17  466  -0.070   6.981   0.574  0.2560  1.3213  0.0134
   35BDD    C18  467  -0.089   7.086   0.687 -0.2119  0.5757 -0.3502
   35BDD    C19  468   0.011   6.404   0.402 -2.3959 -0.7910  0.5221
   35BDD    C20  469  -0.117   6.332   0.362  0.0677  0.5669 -0.1579
   35BDD    C21  470  -0.132   6.185   0.392 -0.0025 -0.1702 -0.3259
   35BDD    C22  471  -0.082   6.130   0.527  0.9286 -1.2633  0.4070
   35BDD    C23  472   0.060   6.094   0.530  1.0783  1.0032 -0.4278
   35BDD    C24  473   0.050   5.967   0.623  0.0930 -1.2466  0.2139
   35BDD    C25  474  -0.145   6.347   0.208 -0.6750  0.6988  0.1777
   35BDD    C26  475  -0.272   6.281   0.146 -0.1960 -0.2588  1.1637
   36TPM     C1  476   0.487   6.381   0.008  0.1481  0.1268  0.0049
   36TPM     C2  477   0.570   6.365  -0.100 -0.4069  0.9757 -0.5741
   36TPM     C3  478   0.601   6.228  -0.129 -0.1425  1.2230 -1.5175
   36TPM     C4  479   0.541   6.139  -0.045  0.6142  0.5628 -1.6586
   36TPM     S1  480   0.441   6.222   0.080  1.0549 -0.4302 -0.6024
   37BDTP    C1  481   0.745   5.542   0.010 -0.0871 -0.1622 -0.0517
   37BDTP    C2  482   0.701   5.569   0.143  0.0699 -0.2596  0.0217
   37BDTP    C3  483   0.644   5.691   0.179  0.1558 -0.2692  0.1893
   37BDTP    C4  484   0.631   5.790   0.081  0.0837 -0.1787  0.2892
   37BDTP    C5  485   0.675   5.762  -0.052 -0.0733 -0.0813  0.2158
   37BDTP    C6  486   0.731   5.641  -0.088 -0.1592 -0.0715  0.0484
   37BDTP    C7  487   0.575   5.923   0.095  0.1492 -0.1694  0.4651
   37BDTP    C8  488   0.576   5.996  -0.020  0.0502 -0.0710  0.5269
   37BDTP    S1  489   0.647   5.906  -0.161 -0.1398  0.0240  0.3710
   37BDTP    C9  490   0.800   5.409  -0.004 -0.1525 -0.1712 -0.2275
   37BDTP   C10  491   0.800   5.336   0.111 -0.0536 -0.2698 -0.2894
   37BDTP    S2  492   0.729   5.426   0.252  0.1364 -0.3645 -0.1333
   38FTM     S1  493   0.374   5.737   0.249  0.1573 -0.0426  0.1197
   38FTM     C1  494   0.337   5.713   0.424  0.2871  0.3588  0.2055
   38FTM     C2  495   0.450   5.678   0.490  0.3773  0.7151  0.2403
   38FTM     C3  496   0.570   5.669   0.412  0.3516  0.6983  0.2032
   38FTM     C4  497   0.547   5.698   0.280  0.2380  0.3165  0.1379
   38FTM     F1  498   0.453   5.653   0.627  0.4885  1.0779  0.3077
   38FTM     C5  499   0.197   5.719   0.477  0.5849  0.3371  1.2601
   38FTM     C6  500   0.104   5.603   0.426 -0.6676 -0.6409  0.3274
   38FTM     C7  501   0.090   5.572   0.270  0.5042  0.0344 -1.2778
   38FTM     C8  502  -0.013   5.668   0.208 -0.4140  0.2421  1.1833
   38FTM     C9  503  -0.157   5.680   0.252  0.8921 -0.7023 -0.5656
   38FTM    C10  504  -0.237   5.800   0.205  1.1271  0.5180  0.8277
   38FTM    C11  505   0.020   5.524   0.536  0.0843 -0.7959  0.0278
   38FTM    C12  506  -0.128   5.544   0.552  0.5925  0.6390 -1.5092
   39FTM     S1  507   0.906   5.749  -0.288  0.2030  0.1191 -0.4406
   39FTM     C1  508   0.969   5.636  -0.413  0.9231 -0.3131  0.2955
   39FTM     C2  509   0.904   5.517  -0.405  0.9989 -0.3462  0.4373
   39FTM     C3  510   0.803   5.507  -0.304  0.5134 -0.0446 -0.0067
   39FTM     C4  511   0.791   5.621  -0.232  0.0507  0.2280 -0.5053
   39FTM     F1  512   0.932   5.410  -0.490  1.5124 -0.6512  0.9780
   39FTM     C5  513   1.091   5.670  -0.495  0.1967  0.8421 -0.7480
   39FTM     C6  514   1.240   5.645  -0.489  0.5943 -1.1948 -0.3387
   39FTM     C7  515   1.284   5.526  -0.575  0.4841 -0.0217 -0.9682
   39FTM     C8  516   1.294   5.522  -0.738  0.2580 -0.4305 -2.0786
   39FTM     C9  517   1.399   5.467  -0.806 -0.7907 -0.3327  0.7830
   39FTM    C10  518   1.357   5.467  -0.952 -1.0152  0.7476 -0.2767
   39FTM    C11  519   1.301   5.632  -0.348 -1.8439  1.0831  1.3643
   39FTM    C12  520   1.291   5.766  -0.264  1.0546  0.2174  0.1223
   40TPM     C1  521   0.859   5.210   0.128  0.2544  0.8329  0.1368
   40TPM     C2  522   0.918   5.118   0.046  1.5615  1.6954  0.0425
   40TPM     C3  523   0.967   5.002   0.114  2.2028  1.8182 -0.1983
   40TPM     C4  524   0.947   5.005   0.249  1.3847  1.0492 -0.2876
   40TPM     S1  525   0.862   5.156   0.300 -0.2720  0.1029 -0.0728
   41BDD     C1  526   1.126   4.687   0.395  0.0753 -0.1832  0.3026
   41BDD     C2  527   1.058   4.740   0.501  0.0446 -0.1693  0.2755
   41BDD     C3  528   0.987   4.862   0.467 -0.1042 -0.2791  0.1891
   41BDD     C4  529   1.002   4.900   0.337 -0.1848 -0.3750  0.1515
   41BDD     S1  530   1.107   4.785   0.247 -0.0800 -0.3346  0.2217
   41BDD     C5  531   1.055   4.681   0.636  0.1509 -0.0546  0.3281
   41BDD     C6  532   0.906   4.937   0.566 -0.1611 -0.2847  0.1469
   41BDD     O1  533   0.845   5.042   0.537 -0.2894 -0.3792  0.0724
   41BDD     O2  534   1.116   4.576   0.665  0.2793  0.0399  0.4027
   41BDD     C7  535   0.903   4.878   0.701 -0.0547 -0.1700  0.1995
   41BDD     C8  536   0.974   4.756   0.735  0.0941 -0.0602  0.2860
   41BDD     C9  537   0.958   4.719   0.865  0.1747  0.0358  0.3236
   41BDD     S2  538   0.854   4.833   0.955  0.0699 -0.0047  0.2534
   41BDD    C10  539   0.834   4.932   0.806 -0.0854 -0.1559  0.1725
   41BDD    C11  540   0.743   5.053   0.824  0.5505  0.8121 -0.5735
   41BDD    C12  541   0.815   5.197   0.830  0.4442 -0.1806 -1.2801
   41BDD    C13  542   0.714   5.307   0.891 -0.1906 -0.2017  0.3623
   41BDD    C14  543   0.557   5.259   0.893 -0.9968 -0.0284 -0.3100
   41BDD    C15  544   0.501   5.387   0.960  0.3260  0.2329  0.3363
   41BDD    C16  545   0.459   5.498   0.861  0.0690 -0.4676  0.4481
   41BDD    C17  546   0.962   5.229   0.856 -0.9117  0.2979 -0.3430
   41BDD    C18  547   1.057   5.178   0.970 -0.6095 -0.3309  0.1033
   41BDD    C19  548   0.999   4.587   0.937 -0.3103 -1.1285  0.5178
   41BDD    C20  549   1.121   4.588   1.029  0.5785 -1.1800 -0.6599
   41BDD    C21  550   1.100   4.594   1.190  0.2641  0.0434 -1.3335
   41BDD    C22  551   1.006   4.715   1.241 -0.3397 -0.8720 -0.4791
   41BDD    C23  552   1.039   4.747   1.389 -0.7523 -0.0703 -0.8707
   41BDD    C24  553   1.158   4.681   1.469  0.7024  0.1146 -0.5238
   41BDD    C25  554   1.256   4.606   0.957 -0.0588 -0.7278  0.9290
   41BDD    C26  555   1.381   4.612   1.049 -0.7871  0.6527  0.2380
   42TPM     C1  556   1.199   4.565   0.382  0.4436  0.3447 -0.1091
   42TPM     C2  557   1.121   4.456   0.408  0.4698  0.4424  0.3826
   42TPM     C3  558   1.159   4.338   0.335  0.3637  0.1730  0.7529
   42TPM     C4  559   1.265   4.357   0.252  0.2565 -0.1299  0.5435
   42TPM     S1  560   1.327   4.526   0.260  0.2815 -0.0983 -0.1429
   43BDTP    C1  561   1.496   3.845  -0.015 -0.0675 -0.1897  0.3245
   43BDTP    C2  562   1.616   3.916   0.015 -0.0965 -0.1581  0.3668
   43BDTP    C3  563   1.616   4.041   0.074 -0.1536 -0.1208  0.2888
   43BDTP    C4  564   1.492   4.099   0.106 -0.1835 -0.1144  0.1630
   43BDTP    C5  565   1.372   4.028   0.077 -0.1545 -0.1459  0.1207
   43BDTP    C6  566   1.372   3.903   0.018 -0.0974 -0.1833  0.1988
   43BDTP    C7  567   1.467   4.228   0.168 -0.2427 -0.0783  0.0649
   43BDTP    C8  568   1.336   4.256   0.187 -0.2593 -0.0814 -0.0475
   43BDTP    S1  569   1.225   4.124   0.128 -0.2023 -0.1301 -0.0450
   43BDTP    C9  570   1.521   3.716  -0.077 -0.0083 -0.2258  0.4227
   43BDTP   C10  571   1.652   3.687  -0.095  0.0083 -0.2229  0.5350
   43BDTP    S2  572   1.762   3.820  -0.036 -0.0487 -0.1739  0.5329
   44FTM     S1  573   1.745   4.307   0.023 -0.2891  0.1522  0.1267
   44FTM     C1  574   1.902   4.328   0.110 -0.5325  0.3162  0.5334
   44FTM     C2  575   1.941   4.211   0.165 -0.7077  0.4303  0.9054
   44FTM     C3  576   1.854   4.099   0.145 -0.6645  0.3979  0.8970
   44FTM     C4  577   1.744   4.132   0.071 -0.4491  0.2544  0.5059
   44FTM     F1  578   2.059   4.197   0.238 -0.9177  0.5709  1.2755
   44FTM     C5  579   1.947   4.472   0.143 -0.6403  0.4456  0.9374
   44FTM     C6  580   2.009   4.567   0.047 -0.1698  0.1248 -1.6164
   44FTM     C7  581   1.904   4.633  -0.042  0.1034  0.3747 -0.0587
   44FTM     C8  582   1.819   4.754   0.018  0.1333 -0.5646  0.0439
   44FTM     C9  583   1.908   4.843   0.110 -0.3228  1.0273  0.1305
   44FTM    C10  584   1.857   4.940   0.204  0.1470  0.4379 -0.5434
   44FTM    C11  585   2.128   4.494  -0.025 -0.1849  0.7610 -0.4698
   44FTM    C12  586   2.193   4.530  -0.170  1.1072 -1.0911 -1.1843
   45FTM     S1  587   1.235   3.698  -0.144  0.3304 -0.1459  0.1485
   45FTM     C1  588   1.073   3.645  -0.084  0.3986 -0.9416 -0.3368
   45FTM     C2  589   1.037   3.721   0.023 -0.5044 -0.8051 -0.7272
   45FTM     C3  590   1.129   3.823   0.063 -1.2855 -0.0907 -0.6733
   45FTM     C4  591   1.241   3.825  -0.015 -0.9703  0.3336 -0.2279
   45FTM     F1  592   0.917   3.703   0.090 -0.6773 -1.3190 -1.1559
   45FTM     C5  593   0.989   3.548  -0.157  0.7991  0.1054  1.3346
   45FTM     C6  594   0.963   3.401  -0.125 -0.5860 -0.3608 -0.4353
   45FTM     C7  595   1.039   3.327  -0.020 -0.2458  0.7997 -0.7499
   45FTM     C8  596   0.966   3.322   0.103  0.1081  0.4962 -0.9276
   45FTM     C9  597   0.985   3.204   0.192 -0.5616 -0.7350 -0.8506
   45FTM    C10  598   0.891   3.207   0.323 -0.6626  0.4155 -1.2154
   45FTM    C11  599   0.875   3.319  -0.227 -0.0804 -1.0194 -0.3377
   45FTM    C12  600   0.906   3.325  -0.385  0.6915 -0.3663 -1.5636
   46TPM     C1  601   1.703   3.554  -0.133 -0.6297  0.0708 -0.3363
   46TPM     C2  602   1.766   3.463  -0.053 -0.1826  0.7004  0.0489
   46TPM     C3  603   1.816   3.349  -0.124  0.5995  0.7552  0.4907
   46TPM     C4  604   1.792   3.352  -0.258  0.7488  0.1674  0.4420
   46TPM     S1  605   1.703   3.502  -0.306 -0.0933 -0.5062 -0.1702
   47BDD     C1  606   1.906   3.012  -0.419 -0.2625 -0.1533 -0.0345
   47BDD     C2  607   1.925   3.107  -0.516 -0.1954 -0.1174  0.0134
   47BDD     C3  608   1.887   3.240  -0.475 -0.2885 -0.1436  0.0134
   47BDD     C4  609   1.840   3.247  -0.347 -0.4251 -0.1990 -0.0342
   47BDD     S1  610   1.840   3.085  -0.269 -0.4468 -0.2222 -0.0823
   47BDD     C5  611   1.979   3.077  -0.651 -0.0434 -0.0578  0.0603
   47BDD     C6  612   1.899   3.358  -0.565 -0.2384 -0.1128  0.0603
   47BDD     O1  613   1.867   3.473  -0.529 -0.3186 -0.1354  0.0603
   47BDD     O2  614   2.012   2.961  -0.686  0.0368 -0.0352  0.0603
   47BDD     C7  615   1.953   3.328  -0.699 -0.0864 -0.0532  0.1073
   47BDD     C8  616   1.991   3.194  -0.740  0.0067 -0.0269  0.1073
   47BDD     C9  617   2.038   3.188  -0.868  0.1433  0.0285  0.1550
   47BDD     S2  618   2.039   3.349  -0.946  0.1649  0.0517  0.2030
   47BDD    C10  619   1.972   3.422  -0.796 -0.0193 -0.0173  0.1550
   47BDD    C11  620   1.943   3.573  -0.816 -0.1596  0.6003 -0.1223
   47BDD    C12  621   2.041   3.680  -0.767  0.6651  1.5084  0.1928
   47BDD    C13  622   2.109   3.642  -0.637 -1.1312  0.3306  1.0543
   47BDD    C14  623   2.141   3.735  -0.517  0.4981 -0.0811  0.5812
   47BDD    C15  624   2.169   3.683  -0.385 -0.6585  0.1685 -0.5710
   47BDD    C16  625   2.029   3.667  -0.318 -1.4776 -0.1454  0.6820
   47BDD    C17  626   2.093   3.804  -0.828  0.8465 -0.0901  0.6252
   47BDD    C18  627   1.970   3.911  -0.875 -0.5959  0.7570  0.7826
   47BDD    C19  628   2.074   3.072  -0.955  0.4979 -0.8956  0.1993
   47BDD    C20  629   2.198   3.098  -1.067  0.6856  0.3706 -1.0143
   47BDD    C21  630   2.312   3.199  -1.059 -0.8344 -0.0029  0.6468
   47BDD    C22  631   2.417   3.157  -0.946 -0.1891  0.9536  0.5869
   47BDD    C23  632   2.510   3.024  -0.981 -0.1431  0.4182 -1.4692
   47BDD    C24  633   2.584   3.015  -1.099  0.1060  1.1174  1.0366
   47BDD    C25  634   2.146   3.059  -1.210  1.1816 -0.0068 -1.3952
   47BDD    C26  635   2.096   3.169  -1.306  0.6279  0.3524 -1.8000
   48TPM     C1  636   1.899   2.861  -0.413 -0.9031 -0.0974  0.3778
   48TPM     C2  637   1.829   2.790  -0.506 -0.4736 -0.1541  0.0875
   48TPM     C3  638   1.839   2.647  -0.489  0.9328 -0.2118 -0.8993
   48TPM     C4  639   1.917   2.609  -0.384  1.5758 -0.1991 -1.3608
   48TPM     S1  640   1.985   2.752  -0.297  0.4460 -0.1125 -0.5798
   49BDTP    C1  641   1.964   2.015  -0.193 -0.0144  0.4805 -0.0594
   49BDTP    C2  642   2.068   2.077  -0.118 -0.0969  0.3846  0.1340
   49BDTP    C3  643   2.096   2.213  -0.126  0.0712  0.3513  0.1538
   49BDTP    C4  644   2.018   2.291  -0.213  0.3331  0.4156 -0.0255
   49BDTP    C5  645   1.914   2.230  -0.288  0.4155  0.5116 -0.2191
   49BDTP    C6  646   1.886   2.094  -0.280  0.2474  0.5448 -0.2389
   49BDTP    C7  647   2.029   2.434  -0.238  0.5425  0.3976 -0.0430
   49BDTP    C8  648   1.939   2.481  -0.328  0.7752  0.4745 -0.2382
   49BDTP    S1  649   1.828   2.352  -0.392  0.7619  0.5804 -0.4270
   49BDTP    C9  650   1.954   1.873  -0.168 -0.2239  0.4984 -0.0420
   49BDTP   C10  651   2.044   1.826  -0.078 -0.4566  0.4216  0.1533
   49BDTP    S2  652   2.154   1.954  -0.013 -0.4433  0.3157  0.3419
   50FTM     S1  653   2.337   2.360  -0.128  0.3778 -0.2740 -0.2253
   50FTM     C1  654   2.391   2.417   0.034  0.4916 -0.5506 -0.1654
   50FTM     C2  655   2.312   2.363   0.131  0.3080 -0.3997 -0.2303
   50FTM     C3  656   2.207   2.276   0.086  0.0732 -0.0679 -0.3283
   50FTM     C4  657   2.205   2.263  -0.049  0.0773  0.0387 -0.3388
   50FTM     F1  658   2.330   2.389   0.266  0.3416 -0.5531 -0.2048
   50FTM     C5  659   2.524   2.491   0.032  0.3720 -0.6399  0.9494
   50FTM     C6  660   2.511   2.647   0.022  0.3492  0.8929 -0.8266
   50FTM     C7  661   2.497   2.719   0.171  0.9917 -0.7661  0.6874
   50FTM     C8  662   2.601   2.683   0.279 -0.5616  0.6499  0.0883
   50FTM     C9  663   2.555   2.742   0.400  0.8202 -0.1168 -0.8048
   50FTM    C10  664   2.657   2.709   0.516  1.3191  0.0854  0.2976
   50FTM    C11  665   2.445   2.711  -0.095  1.4526 -0.0374 -1.3048
   50FTM    C12  666   2.294   2.715  -0.069  0.7421 -0.2202  0.9146
   51FTM     S1  667   1.766   2.093  -0.534 -0.1135 -0.0108  0.5319
   51FTM     C1  668   1.652   1.959  -0.576  0.0654 -0.0620  0.1975
   51FTM     C2  669   1.639   1.875  -0.470 -0.0316 -0.1937  0.0808
   51FTM     C3  670   1.715   1.908  -0.353 -0.2458 -0.2613  0.2408
   51FTM     C4  671   1.789   2.021  -0.370 -0.3151 -0.1786  0.4877
   51FTM     F1  672   1.557   1.763  -0.473  0.0678 -0.2609 -0.1769
   51FTM     C5  673   1.571   1.978  -0.709 -0.1047  0.9029 -0.7312
   51FTM     C6  674   1.422   2.035  -0.713  0.5405 -0.2331 -0.2371
   51FTM     C7  675   1.397   2.197  -0.687  1.0610  0.1667 -1.1377
   51FTM     C8  676   1.438   2.288  -0.814  0.4938  0.5462 -1.4349
   51FTM     C9  677   1.577   2.338  -0.865  0.6591  0.4478 -0.5292
   51FTM    C10  678   1.655   2.390  -0.748  0.2425 -0.2819  0.3940
   51FTM    C11  679   1.309   1.932  -0.692 -0.0083  1.1885 -0.0823
   51FTM    C12  680   1.159   1.973  -0.685 -0.0414 -1.2313  0.7329
   52TPM     C1  681   2.079   1.694  -0.034  0.1922 -0.2065  1.2923
   52TPM     C2  682   2.197   1.648   0.018  0.2449 -0.8796  0.6084
   52TPM     C3  683   2.203   1.504   0.028 -0.0259 -0.9879 -0.5510
   52TPM     C4  684   2.090   1.441  -0.017 -0.2851 -0.3973 -0.7508
   52TPM     S1  685   1.967   1.559  -0.075 -0.2066  0.3472  0.5196
   53BDD     C1  686   1.971   1.084  -0.092 -0.4810 -0.1177  0.3403
   53BDD     C2  687   2.027   1.075   0.032 -0.3493 -0.1383  0.2797
   53BDD     C3  688   2.082   1.200   0.081 -0.0393 -0.2108  0.1223
   53BDD     C4  689   2.067   1.304  -0.008  0.0609 -0.2444  0.0654
   53BDD     S1  690   1.983   1.251  -0.157 -0.2258 -0.1876  0.2046
   53BDD     C5  691   2.033   0.950   0.111 -0.5038 -0.0920  0.3638
   53BDD     C6  692   2.147   1.213   0.212  0.1461 -0.2441  0.0343
   53BDD     O1  693   2.194   1.322   0.254  0.4134 -0.3067 -0.1011
   53BDD     O2  694   1.985   0.842   0.070 -0.7711 -0.0295  0.4997
   53BDD     C7  695   2.153   1.089   0.292 -0.0083 -0.1979  0.1187
   53BDD     C8  696   2.098   0.963   0.243 -0.3183 -0.1254  0.2759
   53BDD     C9  697   2.113   0.860   0.332 -0.4187 -0.0917  0.3331
   53BDD     S2  698   2.197   0.913   0.481 -0.1319 -0.1485  0.1939
   53BDD    C10  699   2.209   1.079   0.416  0.1233 -0.2185  0.0582
   53BDD    C11  700   2.251   1.187   0.520 -0.1193  1.6081  0.4388
   53BDD    C12  701   2.178   1.220   0.649  1.1367  0.0911 -0.3856
   53BDD    C13  702   2.270   1.271   0.760  0.5073 -1.6347 -0.3904
   53BDD    C14  703   2.364   1.171   0.824 -0.1419 -0.5933 -1.0532
   53BDD    C15  704   2.325   1.115   0.966  0.5202  0.3314  0.0138
   53BDD    C16  705   2.444   1.035   1.019 -0.6004  1.1110  0.4786
   53BDD    C17  706   2.026   1.274   0.649 -0.9018 -0.4758 -1.0000
   53BDD    C18  707   1.922   1.171   0.592  0.7501  1.1316 -0.4960
   53BDD    C19  708   2.077   0.713   0.353 -0.9728  0.1706  0.5529
   53BDD    C20  709   2.193   0.612   0.334  0.2775  0.2988  0.6307
   53BDD    C21  710   2.152   0.477   0.374  0.8708  0.3336  1.5745
   53BDD    C22  711   2.070   0.435   0.493 -0.7955  0.4068 -0.6913
   53BDD    C23  712   2.151   0.469   0.631 -0.5971 -0.4939  0.3234
   53BDD    C24  713   2.275   0.377   0.636  0.6584 -0.9228  0.8323
   53BDD    C25  714   2.267   0.619   0.193  0.4796  0.1118 -0.7879
   53BDD    C26  715   2.350   0.501   0.123  0.6495  0.2734  0.8720
   54TPM     C1  716   1.868   1.004  -0.161 -0.1494  0.3765 -0.0853
   54TPM     C2  717   1.739   1.009  -0.116 -0.1997  0.3624 -0.2282
   54TPM     C3  718   1.644   0.953  -0.208 -0.0717  0.1920 -0.2580
   54TPM     C4  719   1.700   0.904  -0.323  0.0762  0.0762 -0.1377
   54TPM     S1  720   1.879   0.926  -0.323  0.0653  0.1741  0.0237
   55BDTP    C1  721   1.522   0.680  -0.881 -0.1850 -0.2058 -0.1180
   55BDTP    C2  722   1.521   0.561  -0.802 -0.0761 -0.1394 -0.0153
   55BDTP    C3  723   1.550   0.561  -0.667 -0.0592  0.0016 -0.0186
   55BDTP    C4  724   1.582   0.683  -0.605 -0.1541  0.0811 -0.1276
   55BDTP    C5  725   1.583   0.802  -0.684 -0.2630  0.0147 -0.2298
   55BDTP    C6  726   1.554   0.803  -0.819 -0.2798 -0.1263 -0.2273
   55BDTP    C7  727   1.615   0.708  -0.466 -0.1575  0.2285 -0.1521
   55BDTP    C8  728   1.641   0.837  -0.437 -0.2623  0.2754 -0.2668
   55BDTP    S1  729   1.626   0.947  -0.581 -0.3715  0.1395 -0.3600
   55BDTP    C9  730   1.489   0.656  -1.020 -0.1816 -0.3533 -0.0937
   55BDTP   C10  731   1.463   0.526  -1.049 -0.0768 -0.4002  0.0212
   55BDTP    S2  732   1.478   0.416  -0.905  0.0323 -0.2642  0.1141
   56FTM     S1  733   1.610   0.281  -0.618  0.0459  0.3115 -0.3184
   56FTM     C1  734   1.551   0.217  -0.459 -0.0186  0.1265 -0.4158
   56FTM     C2  735   1.487   0.316  -0.391 -0.1133  0.0261 -0.3595
   56FTM     C3  736   1.480   0.444  -0.456 -0.1408  0.0854 -0.2401
   56FTM     C4  737   1.540   0.443  -0.578 -0.0647  0.2362 -0.2034
   56FTM     F1  738   1.432   0.296  -0.265 -0.1807 -0.1255 -0.4129
   56FTM     C5  739   1.547   0.068  -0.419 -0.1849 -0.3702 -0.6661
   56FTM     C6  740   1.643   0.018  -0.316  0.3949  0.8084 -0.6869
   56FTM     C7  741   1.777   0.033  -0.370 -0.1779  0.5088 -0.8888
   56FTM     C8  742   1.898   0.088  -0.298 -1.0498  0.9511 -0.0369
   56FTM     C9  743   2.015   0.079  -0.386 -0.1037  1.1688  0.0369
   56FTM    C10  744   2.123   0.098  -0.294 -0.5142 -1.3871 -0.5621
   56FTM    C11  745   1.589  -0.126  -0.297 -0.3185  1.5533 -1.2979
   56FTM    C12  746   1.649  -0.224  -0.178  0.5179 -0.7333 -0.3510
   57FTM     S1  747   1.639   0.965  -1.059  0.2793  0.0387 -0.0428
   57FTM     C1  748   1.561   1.128  -1.066  0.3217  0.1058  0.8120
   57FTM     C2  749   1.484   1.147  -0.956  0.3502 -0.4386  0.9322
   57FTM     C3  750   1.479   1.039  -0.862  0.3411 -0.9291  0.3803
   57FTM     C4  751   1.557   0.934  -0.901  0.3044 -0.7547 -0.1807
   57FTM     F1  752   1.411   1.263  -0.935  0.3864 -0.5249  1.5490
   57FTM     C5  753   1.618   1.222  -1.169 -0.8439 -0.4848 -0.7575
   57FTM     C6  754   1.603   1.373  -1.202 -0.2141  0.6541 -0.4303
   57FTM     C7  755   1.710   1.440  -1.274  0.7919  0.0327  0.8527
   57FTM     C8  756   1.846   1.440  -1.240  0.5842 -0.3994 -0.9961
   57FTM     C9  757   1.879   1.459  -1.096 -0.3600  0.0974 -0.4581
   57FTM    C10  758   2.027   1.486  -1.099  1.3932  0.0307  0.1991
   57FTM    C11  759   1.472   1.438  -1.210  1.1642  0.1794  0.3819
   57FTM    C12  760   1.360   1.383  -1.307  0.4090  0.9087 -1.3029
   58TPM     C1  761   1.480   0.489  -1.181  0.6455  0.5224 -0.1648
   58TPM     C2  762   1.517   0.368  -1.232  1.7173  0.7031  0.1316
   58TPM     C3  763   1.514   0.363  -1.376  1.6594  0.2966  0.1452
   58TPM     C4  764   1.475   0.480  -1.434  0.5435 -0.1941 -0.1414
   58TPM     S1  765   1.438   0.607  -1.311 -0.5292 -0.1806 -0.4527
   59BDD     C1  766   1.357   0.454  -1.806 -0.2475  0.1966 -0.0892
   59BDD     C2  767   1.456   0.548  -1.807 -0.2013  0.1489 -0.0772
   59BDD     C3  768   1.514   0.572  -1.676 -0.2901  0.2080 -0.0479
   59BDD     C4  769   1.459   0.495  -1.578 -0.4027  0.3000 -0.0378
   59BDD     S1  770   1.331   0.387  -1.642 -0.4053  0.3188 -0.0644
   59BDD     C5  771   1.500   0.621  -1.928 -0.0739  0.0472 -0.0920
   59BDD     C6  772   1.622   0.670  -1.654 -0.2600  0.1712 -0.0305
   59BDD     O1  773   1.672   0.691  -1.541 -0.3365  0.2221 -0.0050
   59BDD     O2  774   1.449   0.600  -2.041  0.0027 -0.0038 -0.1173
   59BDD     C7  775   1.666   0.743  -1.775 -0.1326  0.0695 -0.0455
   59BDD     C8  776   1.608   0.719  -1.906 -0.0438  0.0103 -0.0749
   59BDD     C9  777   1.662   0.796  -2.005  0.0688 -0.0816 -0.0849
   59BDD     S2  778   1.791   0.904  -1.941  0.0714 -0.1005 -0.0582
   59BDD    C10  779   1.765   0.838  -1.776 -0.0864  0.0218 -0.0336
   59BDD    C11  780   1.836   0.890  -1.663  0.5365  0.4849  0.3351
   59BDD    C12  781   1.938   0.992  -1.694 -0.0940  0.4524 -0.4520
   59BDD    C13  782   1.898   1.139  -1.670 -0.2485  0.5763  1.0716
   59BDD    C14  783   1.877   1.224  -1.803 -0.8720 -0.8134 -0.3927
   59BDD    C15  784   1.790   1.352  -1.768 -0.2303 -1.1631 -0.6188
   59BDD    C16  785   1.767   1.450  -1.889  0.2090 -0.3287  0.4048
   59BDD    C17  786   2.063   0.973  -1.769 -0.6090  0.6650  1.5237
   59BDD    C18  787   2.132   0.834  -1.765 -0.3684  0.1075  0.8087
   59BDD    C19  788   1.647   0.808  -2.148  1.1756  0.8944 -0.3489
   59BDD    C20  789   1.770   0.828  -2.225  0.9244 -0.0170 -0.0329
   59BDD    C21  790   1.858   0.705  -2.235 -0.3691  0.9508 -0.8362
   59BDD    C22  791   1.811   0.599  -2.341  0.5317 -0.9950 -0.1450
   59BDD    C23  792   1.916   0.506  -2.386  0.1352  0.1746  0.5786
   59BDD    C24  793   1.889   0.408  -2.495  0.1075 -0.4806  0.5675
   59BDD    C25  794   1.748   0.893  -2.367 -1.7667  0.1131  0.0933
   59BDD    C26  795   1.872   0.923  -2.445 -0.6214 -0.0678  0.8673
   60TPM     C1  796   1.263   0.400  -1.912  0.0037  0.6660 -0.8452
   60TPM     C2  797   1.317   0.356  -2.030  0.0362  0.9828 -0.9518
   60TPM     C3  798   1.221   0.295  -2.118  0.2424  0.2383 -0.6778
   60TPM     C4  799   1.094   0.293  -2.069  0.3672 -0.6462 -0.3629
   60TPM     S1  800   1.086   0.368  -1.905  0.2329 -0.6072 -0.3875
    1BDTP    C1  801   9.038   7.642  10.607  0.1955 -0.1062  0.1581
    1BDTP    C2  802   8.941   7.554  10.663 -0.1082  0.2145  0.1409
    1BDTP    C3  803   8.862   7.471  10.586 -0.2375  0.3380  0.1402
    1BDTP    C4  804   8.879   7.474  10.446 -0.0596  0.1360  0.1564
    1BDTP    C5  805   8.976   7.561  10.390  0.2439 -0.1847  0.1736
    1BDTP    C6  806   9.055   7.645  10.467  0.3734 -0.3083  0.1747
    1BDTP    C7  807   8.808   7.396  10.346 -0.1448  0.2103  0.1587
    1BDTP    C8  808   8.847   7.421  10.219  0.0777 -0.0359  0.1764
    1BDTP    S1  809   8.978   7.546  10.208  0.4261 -0.3966  0.1929
    1BDTP    C9  810   9.109   7.719  10.707  0.2806 -0.1805  0.1559
    1BDTP   C10  811   9.070   7.694  10.834  0.0582  0.0657  0.1380
    1BDTP    S2  812   8.939   7.569  10.845 -0.2903  0.4263  0.1220
    2FTM     S1  813   8.780   7.241  10.749  0.1529  0.4399  0.5486
    2FTM     C1  814   8.613   7.258  10.814 -0.2210  0.0576 -0.2810
    2FTM     C2  815   8.555   7.370  10.762 -0.5817 -0.5717 -1.2999
    2FTM     C3  816   8.634   7.447  10.672 -0.5891 -0.7900 -1.4927
    2FTM     C4  817   8.758   7.392  10.653 -0.2223 -0.3119 -0.5919
    2FTM     F1  818   8.425   7.409  10.795 -0.9265 -0.9878 -2.1186
    2FTM     C5  819   8.537   7.166  10.907  0.1724  0.3729 -0.8369
    2FTM     C6  820   8.488   7.183  11.054  0.1695 -1.4462 -1.0995
    2FTM     C7  821   8.422   7.075  11.130  0.1382 -0.7023 -0.8869
    2FTM     C8  822   8.273   7.031  11.099 -0.2081  1.4729  0.5017
    2FTM     C9  823   8.182   7.152  11.074 -0.4265 -0.6131 -0.0929
    2FTM    C10  824   8.069   7.156  10.976  1.0439 -0.7442 -0.3559
    2FTM    C11  825   8.616   7.255  11.128  0.6253  0.2019 -1.2778
    2FTM    C12  826   8.737   7.176  11.154  0.1095  1.2580  0.5379
    3FTM     S1  827   9.156   7.911  10.410  0.3252  0.2360  0.3030
    3FTM     C1  828   9.311   7.914  10.319  0.1125  0.4508 -0.0554
    3FTM     C2  829   9.354   7.786  10.297  0.1559  0.5059 -0.2999
    3FTM     C3  830   9.272   7.682  10.350  0.3519  0.3871 -0.2253
    3FTM     C4  831   9.161   7.730  10.413  0.4626  0.2363  0.0866
    3FTM     F1  832   9.472   7.757  10.229  0.0205  0.6673 -0.6058
    3FTM     C5  833   9.362   8.048  10.279  1.1849  1.2936 -0.5268
    3FTM     C6  834   9.393   8.102  10.129  1.3495 -0.5063  0.4766
    3FTM     C7  835   9.272   8.109  10.017 -0.1705 -0.1638 -0.3943
    3FTM     C8  836   9.173   8.220  10.039  0.2274  0.2793 -0.4853
    3FTM     C9  837   9.224   8.363  10.041  0.2376 -0.4558 -0.3579
    3FTM    C10  838   9.123   8.462  10.102  0.3659  0.0068  0.4640
    3FTM    C11  839   9.541   8.106  10.091  0.1635 -0.2556  1.8885
    3FTM    C12  840   9.584   8.044   9.955 -1.2320  0.3916 -0.9673
    4TPM     C1  841   9.110   7.758  10.946 -0.1934  0.2063 -0.6869
    4TPM     C2  842   9.033   7.788  11.053 -0.2687  0.2811 -0.7622
    4TPM     C3  843   9.087   7.893  11.136 -0.1349  0.0709 -0.5832
    4TPM     C4  844   9.206   7.942  11.092  0.0431 -0.1642 -0.3711
    4TPM     S1  845   9.260   7.859  10.941  0.0551 -0.1383 -0.3815
    5BDD     C1  846   9.362   8.181  11.363 -0.0773  0.2080 -0.0456
    5BDD     C2  847   9.304   8.266  11.273 -0.0224  0.1562 -0.1314
    5BDD     C3  848   9.246   8.199  11.158 -0.1013  0.0741 -0.0434
    5BDD     C4  849   9.261   8.063  11.162 -0.2155  0.0649  0.1078
    5BDD     S1  850   9.349   8.010  11.309 -0.2322  0.1581  0.1512
    5BDD     C5  851   9.299   8.413  11.290  0.1051  0.1800 -0.2975
    5BDD     C6  852   9.178   8.272  11.049 -0.0603  0.0081 -0.1135
    5BDD     O1  853   9.128   8.214  10.950 -0.1285 -0.0627 -0.0379
    5BDD     O2  854   9.349   8.471  11.389  0.1733  0.2508 -0.3731
    5BDD     C7  855   9.173   8.418  11.066  0.0668  0.0317 -0.2794
    5BDD     C8  856   9.231   8.486  11.181  0.1459  0.1137 -0.3669
    5BDD     C9  857   9.216   8.622  11.177  0.2601  0.1228 -0.5186
    5BDD     S2  858   9.128   8.675  11.030  0.2767  0.0298 -0.5623
    5BDD    C10  859   9.115   8.504  10.977  0.1221 -0.0205 -0.3653
    5BDD    C11  860   9.066   8.504  10.831 -0.5092 -0.5056  0.1191
    5BDD    C12  861   9.162   8.504  10.705  1.3913 -0.7239  0.1210
    5BDD    C13  862   9.078   8.518  10.564  0.0812 -0.2423  0.3231
    5BDD    C14  863   9.013   8.653  10.551 -1.1947 -0.6475 -0.6848
    5BDD    C15  864   8.957   8.727  10.427 -0.8519 -0.5057  0.1355
    5BDD    C16  865   9.003   8.879  10.415  0.1036  0.0218 -0.6749
    5BDD    C17  866   9.302   8.566  10.703 -0.5745  1.1594 -0.5641
    5BDD    C18  867   9.399   8.522  10.600 -0.8912  0.5968  0.8356
    5BDD    C19  868   9.302   8.723  11.251  0.6544 -0.6735  0.3037
    5BDD    C20  869   9.435   8.734  11.186  0.0168 -1.1047 -1.1614
    5BDD    C21  870   9.432   8.771  11.030  0.9301  0.1724  0.0779
    5BDD    C22  871   9.376   8.909  10.955  1.2193  0.5785 -0.1644
    5BDD    C23  872   9.326   8.896  10.812 -0.0455  0.9987  0.2174
    5BDD    C24  873   9.419   8.926  10.686  0.2727 -0.6885 -1.6337
    5BDD    C25  874   9.516   8.828  11.278 -0.6197 -0.6244  0.9117
    5BDD    C26  875   9.668   8.838  11.250  0.2865 -0.6306  0.0580
    6TPM     C1  876   9.436   8.196  11.480 -0.6939 -0.8292 -0.1393
    6TPM     C2  877   9.553   8.267  11.471 -0.0994 -1.8330 -0.9247
    6TPM     C3  878   9.610   8.299  11.599  0.5434 -1.5182 -1.2818
    6TPM     C4  879   9.538   8.252  11.705  0.4390 -0.2749 -0.7686
    6TPM     S1  880   9.391   8.164  11.651 -0.4866  0.6022  0.2130
    7BDTP    C1  881   9.687   8.157  12.310 -0.0691 -0.2787  0.2734
    7BDTP    C2  882   9.555   8.103  12.303 -0.1028 -0.1879  0.2012
    7BDTP    C3  883   9.480   8.106  12.186 -0.0875 -0.0172  0.1953
    7BDTP    C4  884   9.537   8.165  12.072 -0.0372  0.0677  0.2638
    7BDTP    C5  885   9.668   8.219  12.080 -0.0038 -0.0236  0.3360
    7BDTP    C6  886   9.744   8.217  12.196 -0.0189 -0.1943  0.3419
    7BDTP    C7  887   9.478   8.180  11.940 -0.0133  0.2436  0.2721
    7BDTP    C8  888   9.558   8.242  11.850  0.0358  0.2878  0.3461
    7BDTP    S1  889   9.719   8.290  11.919  0.0589  0.1137  0.4157
    7BDTP    C9  890   9.746   8.143  12.442 -0.0930 -0.4549  0.2651
    7BDTP   C10  891   9.666   8.081  12.532 -0.1421 -0.4997  0.1911
    7BDTP    S2  892   9.505   8.033  12.463 -0.1655 -0.3254  0.1215
    8FTM     S1  893   9.214   8.110  12.111 -0.0424 -0.0838  0.2083
    8FTM     C1  894   9.129   7.952  12.120 -0.1665 -0.0453 -0.2379
    8FTM     C2  895   9.213   7.856  12.168  0.0329 -0.4529 -1.3403
    8FTM     C3  896   9.346   7.899  12.200  0.2882 -0.8111 -1.8918
    8FTM     C4  897   9.364   8.032  12.175  0.2837 -0.6731 -1.1888
    8FTM     F1  898   9.175   7.724  12.186 -0.0038 -0.5256 -1.9154
    8FTM     C5  899   8.983   7.966  12.103  0.4166 -0.6680  0.5950
    8FTM     C6  900   8.889   7.895  12.006  0.4833 -0.0953  0.9322
    8FTM     C7  901   8.947   7.773  11.944 -0.1374 -0.0926 -0.9094
    8FTM     C8  902   8.893   7.640  11.990 -0.4780 -0.9802  0.0658
    8FTM     C9  903   8.750   7.610  11.957  0.6189 -0.3384  0.1738
    8FTM    C10  904   8.649   7.540  12.056 -0.9234  0.9820 -0.2341
    8FTM    C11  905   8.805   7.970  11.897  0.0805 -0.0780 -0.0730
    8FTM    C12  906   8.672   8.018  11.923  1.9634 -0.0258  0.1815
    9FTM     S1  907  10.014   8.247  12.112  0.1531  0.0509 -0.0100
    9FTM     C1  908  10.091   8.398  12.173  0.0200  0.1306 -0.0358
    9FTM     C2  909  10.004   8.465  12.254 -0.0165  0.0346  0.0054
    9FTM     C3  910   9.876   8.405  12.272  0.0551 -0.1035  0.0583
    9FTM     C4  911   9.863   8.288  12.203  0.1494 -0.1139  0.0575
    9FTM     F1  912  10.037   8.585  12.316 -0.1173  0.0653 -0.0024
    9FTM     C5  913  10.242   8.433  12.136 -0.2951  0.5214  1.3336
    9FTM     C6  914  10.336   8.526  12.220 -0.1170 -1.2463  0.4359
    9FTM     C7  915  10.461   8.591  12.166 -0.6099 -0.2445 -0.2051
    9FTM     C8  916  10.536   8.525  12.043  0.4244  0.1024 -0.8878
    9FTM     C9  917  10.668   8.574  11.997  0.0719 -0.1173  0.2582
    9FTM    C10  918  10.756   8.634  12.090 -0.2636  0.0486  0.4040
    9FTM    C11  919  10.360   8.497  12.371  1.7309 -0.6010 -0.1090
    9FTM    C12  920  10.324   8.363  12.440  0.1627  0.7002  0.5435
   10TPM     C1  921   9.702   8.036  12.665 -0.5834  0.6130 -0.2460
   10TPM     C2  922   9.625   7.982  12.764 -0.4227  0.7216 -0.0620
   10TPM     C3  923   9.687   7.987  12.894 -0.0136  0.4445 -0.2427
   10TPM     C4  924   9.811   8.044  12.894  0.1370  0.1246 -0.5644
   10TPM     S1  925   9.859   8.097  12.728 -0.2284  0.1486 -0.6649
   11BDD     C1  926  10.094   8.044  13.161 -0.3426 -0.1243  0.3917
   11BDD     C2  927  10.059   8.175  13.143 -0.1869 -0.0837  0.3770
   11BDD     C3  928   9.950   8.192  13.048  0.0732  0.0629  0.1026
   11BDD     C4  929   9.904   8.075  12.995  0.1122  0.1320 -0.0879
   11BDD     S1  930   9.994   7.934  13.061 -0.1743  0.0184  0.0631
   11BDD     C5  931  10.124   8.288  13.211 -0.2716 -0.1788  0.6147
   11BDD     C6  932   9.896   8.325  13.013  0.2739  0.1287  0.0395
   11BDD     O1  933   9.802   8.341  12.931  0.4981  0.2551 -0.1971
   11BDD     O2  934  10.217   8.273  13.293 -0.4957 -0.3052  0.8513
   11BDD     C7  935   9.961   8.439  13.082  0.1891  0.0341  0.2771
   11BDD     C8  936  10.069   8.421  13.177 -0.0710 -0.1125  0.5515
   11BDD     C9  937  10.115   8.539  13.229 -0.1097 -0.1819  0.7420
   11BDD     S2  938  10.026   8.680  13.164  0.1766 -0.0686  0.5911
   11BDD    C10  939   9.925   8.570  13.064  0.3450  0.0744  0.2624
   11BDD    C11  940   9.821   8.645  12.984  0.8245 -0.3421  1.4541
   11BDD    C12  941   9.868   8.774  12.906  0.0086  0.4180 -0.3141
   11BDD    C13  942   9.768   8.895  12.901 -1.1861  0.5707 -1.2983
   11BDD    C14  943   9.830   9.038  12.862 -0.2540  0.0884  1.0088
   11BDD    C15  944   9.738   9.161  12.862  1.3078  0.6042 -0.0617
   11BDD    C16  945   9.647   9.158  12.737 -0.2996  0.5904  0.6484
   11BDD    C17  946   9.979   8.751  12.798 -1.1110 -0.9029  0.6270
   11BDD    C18  947   9.949   8.715  12.635 -0.1755 -0.0698 -0.9075
   11BDD    C19  948  10.218   8.569  13.345  1.3795  1.6633 -2.3131
   11BDD    C20  949  10.172   8.692  13.432  0.4011  1.4885 -0.9348
   11BDD    C21  950  10.136   8.633  13.570  1.0803  0.1371 -1.3219
   11BDD    C22  951   9.991   8.691  13.614 -0.8904 -0.1826  0.3191
   11BDD    C23  952   9.950   8.850  13.633 -1.3153 -0.0735 -0.0973
   11BDD    C24  953   9.814   8.853  13.705 -0.7037 -0.2136  0.4279
   11BDD    C25  954  10.232   8.840  13.427  0.5587  0.1045  0.7110
   11BDD    C26  955  10.361   8.879  13.499 -1.1478  0.2059  0.6750
   12TPM     C1  956  10.192   7.975  13.239 -0.2927 -0.4568 -0.3756
   12TPM     C2  957  10.323   8.011  13.236 -0.3150 -0.3896 -0.5926
   12TPM     C3  958  10.413   7.905  13.275 -0.2015 -0.3207 -0.6658
   12TPM     C4  959  10.350   7.788  13.307 -0.0930 -0.3354 -0.5047
   12TPM     S1  960  10.171   7.803  13.291 -0.1257 -0.4379 -0.2460
   13BDTP    C1  961  10.624   7.312  13.607  0.0701  0.0056  0.1627
   13BDTP    C2  962  10.485   7.287  13.625  0.0646  0.0184  0.1384
   13BDTP    C3  963  10.387   7.371  13.576  0.0811  0.0389  0.1407
   13BDTP    C4  964  10.426   7.487  13.507  0.1040  0.0474  0.1684
   13BDTP    C5  965  10.565   7.513  13.489  0.1097  0.0349  0.1926
   13BDTP    C6  966  10.664   7.428  13.538  0.0931  0.0144  0.1904
   13BDTP    C7  967  10.342   7.589  13.448  0.1241  0.0686  0.1760
   13BDTP    C8  968  10.411   7.689  13.387  0.1438  0.0724  0.2047
   13BDTP    S1  969  10.591   7.668  13.397  0.1404  0.0496  0.2258
   13BDTP    C9  970  10.708   7.210  13.666  0.0503 -0.0155  0.1550
   13BDTP   C10  971  10.640   7.110  13.726  0.0300 -0.0191  0.1264
   13BDTP    S2  972  10.460   7.131  13.717  0.0340  0.0037  0.1053
   14FTM     S1  973  10.105   7.336  13.501  0.5036  0.2395  0.2029
   14FTM     C1  974  10.003   7.276  13.636 -0.2015  0.0812 -0.3866
   14FTM     C2  975  10.079   7.259  13.748 -0.6690 -0.5600 -0.1556
   14FTM     C3  976  10.218   7.290  13.735 -0.5112 -0.9576  0.4786
   14FTM     C4  977  10.250   7.333  13.609  0.0968 -0.6096  0.7418
   14FTM     F1  978  10.027   7.213  13.868 -1.2672 -0.8249 -0.5047
   14FTM     C5  979   9.866   7.241  13.614  1.6966 -0.1640 -0.6627
   14FTM     C6  980   9.746   7.270  13.712 -0.3217  0.8099 -1.2311
   14FTM     C7  981   9.757   7.409  13.785 -0.1530  0.9508 -0.6704
   14FTM     C8  982   9.697   7.497  13.675 -0.2870 -0.4828 -0.6625
   14FTM     C9  983   9.678   7.644  13.698  0.0036 -0.8133 -0.5500
   14FTM    C10  984   9.647   7.678  13.553 -0.1983 -0.8668 -0.0929
   14FTM    C11  985   9.719   7.151  13.825 -0.0901 -0.5262 -0.1854
   14FTM    C12  986   9.694   7.022  13.782 -0.2457 -0.9980  0.6995
   15FTM     S1  987  10.843   7.489  13.329 -0.3273 -0.4420  0.1682
   15FTM     C1  988  11.020   7.483  13.359 -0.3071  0.9650  0.4895
   15FTM     C2  989  11.044   7.455  13.490 -0.2997  1.7875  0.6744
   15FTM     C3  990  10.929   7.437  13.573 -0.3092  1.3837  0.5796
   15FTM     C4  991  10.813   7.452  13.503 -0.3242  0.2138  0.3136
   15FTM     F1  992  11.172   7.444  13.542 -0.2837  2.9551  0.9403
   15FTM     C5  993  11.114   7.473  13.244 -0.3864 -0.2379  1.3751
   15FTM     C6  994  11.196   7.601  13.214 -0.1479  0.2330  1.6880
   15FTM     C7  995  11.251   7.568  13.073 -0.2273  1.2383 -0.1518
   15FTM     C8  996  11.278   7.697  13.005 -1.3794  0.5367 -0.6175
   15FTM     C9  997  11.357   7.687  12.866  0.1651  0.2543  0.2661
   15FTM    C10  998  11.281   7.592  12.757  0.4459  0.2587 -0.1224
   15FTM    C11  999  11.314   7.639  13.307  0.2020 -0.5347 -0.4089
   15FTM    C12 1000  11.449   7.552  13.328 -0.5920 -0.4796  0.1187
   16TPM     C1 1001  10.694   6.998  13.787 -0.5978 -0.2251  0.2307
   16TPM     C2 1002  10.760   6.892  13.734 -0.8545 -0.0597 -0.4390
   16TPM     C3 1003  10.799   6.793  13.831 -0.1183 -0.2327 -0.8922
   16TPM     C4 1004  10.762   6.823  13.958  0.7004 -0.5296 -0.5680
   16TPM     S1 1005  10.674   6.981  13.966  0.6037 -0.6149  0.3418
   17BDD     C1 1006  10.809   6.527  14.206 -0.2338  0.1119  0.1530
   17BDD     C2 1007  10.855   6.639  14.269 -0.1974  0.1452  0.0690
   17BDD     C3 1008  10.844   6.760  14.189  0.0615  0.0498 -0.1102
   17BDD     C4 1009  10.791   6.738  14.065  0.2193 -0.0545 -0.1603
   17BDD     S1 1010  10.750   6.565  14.041  0.0536 -0.0408  0.0135
   17BDD     C5 1011  10.910   6.640  14.407 -0.3994  0.2657  0.1504
   17BDD     C6 1012  10.888   6.892  14.238  0.1433  0.0659 -0.2253
   17BDD     O1 1013  10.879   6.996  14.169  0.3667 -0.0165 -0.3799
   17BDD     O2 1014  10.919   6.536  14.476 -0.6225  0.3481  0.3049
   17BDD     C7 1015  10.943   6.893  14.375 -0.0584  0.1864 -0.1439
   17BDD     C8 1016  10.953   6.772  14.456 -0.3173  0.2819  0.0353
   17BDD     C9 1017  11.007   6.794  14.580 -0.4747  0.3865  0.0854
   17BDD     S2 1018  11.048   6.967  14.604 -0.3095  0.3725 -0.0885
   17BDD    C10 1019  10.988   7.005  14.439 -0.0222  0.2197 -0.2279
   17BDD    C11 1020  10.979   7.154  14.411 -0.2568  0.3410  1.3194
   17BDD    C12 1021  10.841   7.227  14.385 -0.8088 -0.0326 -0.2194
   17BDD    C13 1022  10.869   7.379  14.335  0.5566 -0.8993 -1.0853
   17BDD    C14 1023  10.753   7.449  14.255  1.9640 -0.3565  0.4481
   17BDD    C15 1024  10.709   7.401  14.117  0.2975 -0.3199  0.4863
   17BDD    C16 1025  10.807   7.432  14.009 -0.3425 -0.8213 -0.1130
   17BDD    C17 1026  10.715   7.181  14.442 -0.0742 -1.9665 -0.1544
   17BDD    C18 1027  10.673   7.257  14.566  0.7406 -1.4122 -0.2912
   17BDD    C19 1028  11.026   6.713  14.704 -0.9964 -1.6756  0.5680
   17BDD    C20 1029  10.916   6.709  14.795  1.0048  0.6696 -1.0036
   17BDD    C21 1030  10.842   6.836  14.820 -0.4799  0.5378 -0.8050
   17BDD    C22 1031  10.691   6.813  14.875  0.6221 -1.1946 -0.0512
   17BDD    C23 1032  10.676   6.867  15.022  0.0742 -0.1288  0.3309
   17BDD    C24 1033  10.731   7.012  15.060  0.3471  0.0869 -1.3234
   17BDD    C25 1034  10.941   6.604  14.912  0.7227  0.8888  0.2891
   17BDD    C26 1035  11.063   6.585  15.009  0.3808 -0.7089  0.1519
   18TPM     C1 1036  10.774   6.392  14.241  0.5901  0.4611 -0.7602
   18TPM     C2 1037  10.851   6.296  14.299  0.6011  0.4929 -0.7221
   18TPM     C3 1038  10.786   6.168  14.312  0.3812  0.6655 -0.0628
   18TPM     C4 1039  10.658   6.167  14.264  0.2028  0.7656  0.4018
   18TPM     S1 1040  10.611   6.328  14.199  0.2991  0.6485  0.0401
   19BDTP    C1 1041  10.268   5.683  14.297 -0.0570  0.1613  0.0726
   19BDTP    C2 1042  10.225   5.751  14.179  0.0422  0.2425  0.0826
   19BDTP    C3 1043  10.284   5.868  14.133  0.1435  0.2211  0.1593
   19BDTP    C4 1044  10.391   5.921  14.207  0.1473  0.1148  0.2298
   19BDTP    C5 1045  10.435   5.853  14.325  0.0486  0.0339  0.2199
   19BDTP    C6 1046  10.375   5.736  14.371 -0.0526  0.0551  0.1431
   19BDTP    C7 1047  10.469   6.040  14.180  0.2429  0.0734  0.3157
   19BDTP    C8 1048  10.566   6.066  14.270  0.2205 -0.0335  0.3699
   19BDTP    S1 1049  10.574   5.942  14.403  0.0758 -0.0966  0.3200
   19BDTP    C9 1050  10.191   5.564  14.324 -0.1521  0.2028 -0.0133
   19BDTP   C10 1051  10.093   5.539  14.234 -0.1299  0.3096 -0.0675
   19BDTP    S2 1052  10.085   5.663  14.101  0.0147  0.3727 -0.0176
   20FTM     S1 1053  10.182   6.046  13.927  0.5432  0.1996 -0.3500
   20FTM     C1 1054  10.229   6.001  13.759 -0.2214 -0.9193 -0.2825
   20FTM     C2 1055  10.298   5.884  13.760 -0.4663 -1.0632  0.1463
   20FTM     C3 1056  10.318   5.824  13.889 -0.0837 -0.3302  0.4415
   20FTM     C4 1057  10.262   5.897  13.989  0.4723  0.3991  0.2317
   20FTM     F1 1058  10.347   5.824  13.645 -1.0521 -1.8675  0.2972
   20FTM     C5 1059  10.217   6.104  13.652 -1.1381  0.5482  1.0912
   20FTM     C6 1060  10.123   6.079  13.524 -0.8496 -0.7877  0.0230
   20FTM     C7 1061  10.188   6.044  13.396 -1.9356 -0.0414  0.6369
   20FTM     C8 1062  10.114   6.021  13.257 -0.1844  0.0188 -0.5478
   20FTM     C9 1063  10.220   5.958  13.152 -0.0650  0.3098 -0.2399
   20FTM    C10 1064  10.176   5.833  13.088 -2.0215  0.7631 -0.3178
   20FTM    C11 1065   9.977   6.030  13.579 -0.1788 -0.6723  0.5738
   20FTM    C12 1066   9.927   5.888  13.564  0.0214  0.6606  0.7151
   21FTM     S1 1067  10.354   5.557  14.603 -0.1152  0.4827  0.0578
   21FTM     C1 1068  10.514   5.529  14.680  0.0832  0.2385 -0.4370
   21FTM     C2 1069  10.610   5.598  14.613  0.0274 -0.1084 -0.8883
   21FTM     C3 1070  10.566   5.675  14.501 -0.1681 -0.2029 -0.8771
   21FTM     C4 1071  10.431   5.665  14.481 -0.2655  0.0807 -0.4017
   21FTM     F1 1072  10.744   5.596  14.650  0.1502 -0.3608 -1.3385
   21FTM     C5 1073  10.519   5.450  14.814  0.0510  1.5520  0.0534
   21FTM     C6 1074  10.383   5.406  14.883  0.2308 -1.1778 -0.2993
   21FTM     C7 1075  10.370   5.268  14.950  1.2396 -0.4112  1.2684
   21FTM     C8 1076  10.456   5.152  14.899 -0.1081 -0.2963 -1.2166
   21FTM     C9 1077  10.387   5.009  14.930  0.3043 -0.6611 -0.6631
   21FTM    C10 1078  10.442   4.891  14.858  0.4061 -0.2252  0.3558
   21FTM    C11 1079  10.267   5.507  14.932 -0.9252  0.7671 -1.4423
   21FTM    C12 1080  10.304   5.633  15.023  1.1483  0.0114 -0.7169
   22TPM     C1 1081   9.993   5.428  14.232  0.1864  0.3198  0.1390
   22TPM     C2 1082   9.993   5.309  14.300  0.5648  0.0579 -0.3065
   22TPM     C3 1083   9.864   5.246  14.306  0.8328 -0.5702 -0.8548
   22TPM     C4 1084   9.765   5.316  14.243  0.6592 -0.7871 -0.8275
   22TPM     S1 1085   9.828   5.469  14.170  0.1393 -0.2107 -0.1014
   23BDD     C1 1086   9.440   5.104  14.205  0.0776 -0.2308  0.1267
   23BDD     C2 1087   9.418   5.184  14.314  0.0451 -0.2340  0.1228
   23BDD     C3 1088   9.524   5.280  14.336 -0.0460 -0.1163  0.0535
   23BDD     C4 1089   9.626   5.272  14.245 -0.0815 -0.0253  0.0057
   23BDD     S1 1090   9.595   5.144  14.123 -0.0036 -0.0805  0.0441
   23BDD     C5 1091   9.299   5.175  14.400  0.0968 -0.3452  0.1824
   23BDD     C6 1092   9.522   5.377  14.448 -0.0939 -0.0987  0.0373
   23BDD     O1 1093   9.614   5.460  14.468 -0.1724  0.0026 -0.0225
   23BDD     O2 1094   9.207   5.092  14.381  0.1752 -0.4466  0.2421
   23BDD     C7 1095   9.403   5.368  14.535 -0.0424 -0.2099  0.0969
   23BDD     C8 1096   9.296   5.272  14.512  0.0484 -0.3275  0.1661
   23BDD     C9 1097   9.195   5.280  14.604  0.0846 -0.4188  0.2140
   23BDD     S2 1098   9.226   5.409  14.725  0.0064 -0.3638  0.1755
   23BDD    C10 1099   9.381   5.448  14.644 -0.0744 -0.2133  0.0929
   23BDD    C11 1100   9.443   5.576  14.699  1.6399  0.7924  0.0955
   23BDD    C12 1101   9.562   5.550  14.796 -1.0030 -0.4596  0.8708
   23BDD    C13 1102   9.539   5.481  14.945 -0.3899 -0.1908  0.5202
   23BDD    C14 1103   9.487   5.338  14.961 -1.0103  0.4559  0.4659
   23BDD    C15 1104   9.472   5.302  15.108 -1.5114 -1.3661  0.8311
   23BDD    C16 1105   9.600   5.247  15.169 -0.8164  0.8945  1.6282
   23BDD    C17 1106   9.661   5.672  14.815  0.5819  0.1934 -0.7289
   23BDD    C18 1107   9.660   5.786  14.704  0.1473 -0.1611 -0.6195
   23BDD    C19 1108   9.052   5.225  14.603 -0.1296  0.7526 -0.8534
   23BDD    C20 1109   9.001   5.153  14.726  0.2188 -1.3177 -1.3822
   23BDD    C21 1110   8.862   5.212  14.764 -0.1680 -0.0778 -0.7893
   23BDD    C22 1111   8.859   5.360  14.819  0.7353  0.1201  0.9618
   23BDD    C23 1112   8.884   5.485  14.738  0.1111 -0.0991  0.4652
   23BDD    C24 1113   8.828   5.611  14.811 -0.2598  0.8322  0.2571
   23BDD    C25 1114   9.086   5.116  14.833  0.4474 -0.1712 -0.0521
   23BDD    C26 1115   9.179   5.012  14.794 -0.6716  1.3755  1.0632
   24TPM     C1 1116   9.367   4.999  14.133 -0.4498  0.4386 -0.1722
   24TPM     C2 1117   9.313   4.906  14.217 -0.1938  0.4388 -0.0066
   24TPM     C3 1118   9.309   4.774  14.162  0.2246  0.3122  0.2511
   24TPM     C4 1119   9.359   4.765  14.035  0.2874  0.2155  0.2820
   24TPM     S1 1120   9.416   4.925  13.976 -0.1806  0.2774 -0.0143
   25BDTP    C1 1121   9.563   4.228  13.784 -0.3734 -0.0192 -0.1321
   25BDTP    C2 1122   9.456   4.185  13.868 -0.2716 -0.0069  0.0063
   25BDTP    C3 1123   9.373   4.273  13.935 -0.1810  0.0025  0.1053
   25BDTP    C4 1124   9.397   4.411  13.921 -0.1907  0.0002  0.0666
   25BDTP    C5 1125   9.504   4.455  13.837 -0.2925 -0.0119 -0.0717
   25BDTP    C6 1126   9.587   4.366  13.770 -0.3836 -0.0216 -0.1708
   25BDTP    C7 1127   9.324   4.521  13.981 -0.1080  0.0086  0.1512
   25BDTP    C8 1128   9.371   4.644  13.947 -0.1423  0.0033  0.0840
   25BDTP    S1 1129   9.514   4.637  13.835 -0.2847 -0.0129 -0.0960
   25BDTP    C9 1130   9.636   4.118  13.724 -0.4563 -0.0277 -0.2167
   25BDTP   C10 1131   9.589   3.996  13.758 -0.4215 -0.0225 -0.1495
   25BDTP    S2 1132   9.446   4.003  13.870 -0.2797 -0.0062  0.0305
   26FTM     S1 1133   9.278   4.158  14.184  0.4528 -0.1588 -0.0427
   26FTM     C1 1134   9.103   4.118  14.182  0.5557 -0.6291  0.0323
   26FTM     C2 1135   9.049   4.150  14.062  0.5770 -1.4920 -0.2137
   26FTM     C3 1136   9.139   4.205  13.965  0.5157 -1.8318 -0.4692
   26FTM     C4 1137   9.266   4.217  14.013  0.4456 -1.2089 -0.4173
   26FTM     F1 1138   8.915   4.130  14.031  0.6530 -2.0254 -0.2220
   26FTM     C5 1139   9.029   4.044  14.309 -0.1172 -0.6563 -0.6962
   26FTM     C6 1140   9.058   3.900  14.344  1.0684  1.3443 -1.1877
   26FTM     C7 1141   9.197   3.845  14.363  0.1227 -0.2269  0.0102
   26FTM     C8 1142   9.263   3.874  14.493 -0.5911 -0.3797 -0.6891
   26FTM     C9 1143   9.352   3.995  14.500 -0.9215  1.0209 -0.8241
   26FTM    C10 1144   9.425   4.048  14.611 -1.1500  0.3881 -0.4200
   26FTM    C11 1145   8.930   3.804  14.330 -1.0062  1.2377  1.0304
   26FTM    C12 1146   8.916   3.684  14.413  0.1950 -0.2583 -0.6987
   27FTM     S1 1147   9.868   4.374  13.716  0.4578 -0.3732 -0.5671
   27FTM     C1 1148   9.908   4.414  13.545 -0.0336 -0.0740 -0.6154
   27FTM     C2 1149   9.795   4.449  13.478 -0.1457  0.6270 -0.0788
   27FTM     C3 1150   9.673   4.447  13.554  0.1376  0.9663  0.3913
   27FTM     C4 1151   9.694   4.409  13.683  0.4770  0.5101  0.2088
   27FTM     F1 1152   9.795   4.485  13.344 -0.5102  1.0035  0.0185
   27FTM     C5 1153  10.043   4.409  13.483 -1.6161 -1.1310  1.0009
   27FTM     C6 1154  10.093   4.286  13.388  0.3683 -0.1292 -0.3337
   27FTM     C7 1155   9.987   4.244  13.282 -0.2448 -0.8856  0.8007
   27FTM     C8 1156   9.884   4.139  13.333 -0.3687 -0.1166  0.6845
   27FTM     C9 1157   9.955   4.009  13.391  0.0847 -0.9086  0.1320
   27FTM    C10 1158   9.908   3.871  13.346  1.5605 -1.1974 -0.5351
   27FTM    C11 1159  10.231   4.280  13.336  0.0097 -0.7205 -0.8804
   27FTM    C12 1160  10.335   4.360  13.439 -0.3982  0.4826 -1.8284
   28TPM     C1 1161   9.665   3.875  13.730 -0.5896 -0.1978 -0.5542
   28TPM     C2 1162   9.653   3.797  13.619 -0.6959 -0.4872 -0.3416
   28TPM     C3 1163   9.725   3.673  13.627 -0.3242 -0.2694 -0.2643
   28TPM     C4 1164   9.793   3.656  13.744  0.0652  0.1861 -0.4181
   28TPM     S1 1165   9.770   3.797  13.855 -0.0076  0.3769 -0.6744
   29BDD     C1 1166   9.958   3.304  13.761  0.0058  0.1082 -0.2818
   29BDD     C2 1167   9.844   3.293  13.835  0.0255  0.1671 -0.2422
   29BDD     C3 1168   9.768   3.417  13.842  0.0920  0.2066 -0.2152
   29BDD     C4 1169   9.825   3.520  13.773  0.1219  0.1772 -0.2346
   29BDD     S1 1170   9.979   3.469  13.695  0.0687  0.0979 -0.2880
   29BDD     C5 1171   9.800   3.169  13.902 -0.0157  0.1894 -0.2277
   29BDD     C6 1172   9.641   3.428  13.917  0.1235  0.2722 -0.1711
   29BDD     O1 1173   9.575   3.534  13.923  0.1810  0.3062 -0.1478
   29BDD     O2 1174   9.865   3.062  13.896 -0.0730  0.1554 -0.2509
   29BDD     C7 1175   9.597   3.304  13.984  0.0827  0.2944 -0.1565
   29BDD     C8 1176   9.673   3.180  13.977  0.0162  0.2550 -0.1836
   29BDD     C9 1177   9.615   3.077  14.046 -0.0136  0.2845 -0.1641
   29BDD     S2 1178   9.462   3.127  14.124  0.0395  0.3638 -0.1106
   29BDD    C10 1179   9.482   3.293  14.058  0.1025  0.3535 -0.1169
   29BDD    C11 1180   9.408   3.398  14.128  1.5926  0.7141  0.5109
   29BDD    C12 1181   9.446   3.440  14.277 -0.0191  0.2087  0.2052
   29BDD    C13 1182   9.519   3.577  14.291  0.1602 -0.5172 -0.6396
   29BDD    C14 1183   9.634   3.633  14.202  0.0571  0.2225  0.0141
   29BDD    C15 1184   9.768   3.563  14.243  0.1159 -0.1204  0.7347
   29BDD    C16 1185   9.857   3.641  14.333  0.4783 -0.4826  0.0522
   29BDD    C17 1186   9.308   3.462  14.335 -0.7983 -0.0930  0.4975
   29BDD    C18 1187   9.233   3.337  14.379  0.9188  1.3186  0.2581
   29BDD    C19 1188   9.660   2.923  14.059 -0.6489 -0.3839  0.7489
   29BDD    C20 1189   9.743   2.910  14.178  0.3848  1.0553  0.3928
   29BDD    C21 1190   9.804   2.767  14.209 -0.3836 -1.6182  0.4920
   29BDD    C22 1191   9.869   2.672  14.110  0.5862  1.2007 -1.0310
   29BDD    C23 1192   9.901   2.537  14.195  0.2045 -0.2866  0.6289
   29BDD    C24 1193   9.966   2.423  14.109 -1.4115 -0.2086 -0.8746
   29BDD    C25 1194   9.703   2.972  14.302  0.4860 -0.4758 -0.9707
   29BDD    C26 1195   9.786   3.090  14.363 -0.7422 -0.5843  0.0808
   30TPM     C1 1196  10.083   3.228  13.755  0.2500  0.9168 -0.0334
   30TPM     C2 1197  10.128   3.165  13.867  0.5834  1.7222  0.3095
   30TPM     C3 1198  10.263   3.116  13.856  0.6125  1.7989  0.3257
   30TPM     C4 1199  10.321   3.143  13.736  0.3013  1.0519 -0.0049
   30TPM     S1 1200  10.209   3.232  13.626 -0.0554  0.1871 -0.3651
   31BDTP    C1 1201  10.925   3.116  13.554  0.0122  0.2323 -0.7722
   31BDTP    C2 1202  10.881   3.243  13.505 -0.0985  0.3060 -0.4884
   31BDTP    C3 1203  10.751   3.289  13.523 -0.0696  0.2657 -0.1603
   31BDTP    C4 1204  10.660   3.208  13.593  0.0751  0.1473 -0.1092
   31BDTP    C5 1205  10.704   3.081  13.642  0.1860  0.0739 -0.3930
   31BDTP    C6 1206  10.834   3.035  13.624  0.1569  0.1141 -0.7211
   31BDTP    C7 1207  10.521   3.235  13.623  0.1311  0.0860  0.2068
   31BDTP    C8 1208  10.459   3.136  13.692  0.2768 -0.0286  0.1743
   31BDTP    S1 1209  10.568   2.995  13.728  0.3633 -0.0749 -0.2611
   31BDTP    C9 1210  11.064   3.089  13.524 -0.0441  0.2937 -1.0881
   31BDTP   C10 1211  11.126   3.188  13.455 -0.1898  0.4083 -1.0557
   31BDTP    S2 1212  11.017   3.329  13.419 -0.2760  0.4546 -0.6203
   32FTM     S1 1213  10.598   3.525  13.570 -0.3726 -0.1099  0.2139
   32FTM     C1 1214  10.596   3.654  13.444 -0.9353 -0.2872  0.0353
   32FTM     C2 1215  10.681   3.621  13.343 -0.9375 -0.1493 -0.0118
   32FTM     C3 1216  10.751   3.497  13.356 -0.5121  0.0968  0.0857
   32FTM     C4 1217  10.718   3.433  13.472 -0.1729  0.1489  0.2118
   32FTM     F1 1218  10.700   3.702  13.231 -1.3244 -0.2376 -0.1462
   32FTM     C5 1219  10.511   3.775  13.468  0.0077 -0.3303  0.8568
   32FTM     C6 1220  10.373   3.746  13.505  0.4406  0.2356 -0.3108
   32FTM     C7 1221  10.301   3.608  13.440 -1.4267 -0.4886  0.6529
   32FTM     C8 1222  10.252   3.604  13.298  1.5367 -0.4483  0.8301
   32FTM     C9 1223  10.365   3.610  13.207 -0.8306 -0.3765 -1.0114
   32FTM    C10 1224  10.333   3.659  13.066  1.0245  0.3431 -0.5644
   32FTM    C11 1225  10.314   3.854  13.591  0.1844  0.3042 -0.1027
   32FTM    C12 1226  10.182   3.819  13.646 -0.0997  0.5392 -0.0145
   33FTM     S1 1227  10.773   2.750  13.660  0.0284  0.1631 -0.1012
   33FTM     C1 1228  10.884   2.667  13.775 -0.1222  0.3186  0.1611
   33FTM     C2 1229  10.975   2.755  13.824 -0.0658  0.3440  0.0108
   33FTM     C3 1230  10.964   2.890  13.776  0.0944  0.2465 -0.3096
   33FTM     C4 1231  10.861   2.905  13.688  0.1626  0.1431 -0.4081
   33FTM     F1 1232  11.074   2.719  13.914 -0.1557  0.4572  0.1546
   33FTM     C5 1233  10.893   2.526  13.784 -1.6703  0.6674  0.8058
   33FTM     C6 1234  10.991   2.450  13.697 -0.1679 -1.2455 -0.7676
   33FTM     C7 1235  10.971   2.486  13.555  0.8894  0.8504 -1.4401
   33FTM     C8 1236  11.088   2.565  13.489  0.7463 -0.5655 -0.1768
   33FTM     C9 1237  11.039   2.686  13.403 -0.0284  0.4184 -0.2540
   33FTM    C10 1238  11.149   2.751  13.327  0.6549 -0.1080  2.3390
   33FTM    C11 1239  10.970   2.304  13.695 -0.7584  0.0873  0.1546
   33FTM    C12 1240  11.064   2.199  13.787  0.5543 -0.3781  0.1546
   34TPM     C1 1241  11.268   3.193  13.410  0.6393 -0.5949  0.3307
   34TPM     C2 1242  11.361   3.093  13.400  1.0550 -0.2395  0.5495
   34TPM     C3 1243  11.492   3.139  13.364  0.8862  0.2357  0.5271
   34TPM     C4 1244  11.500   3.274  13.347  0.3413  0.2427  0.2912
   34TPM     S1 1245  11.341   3.354  13.375 -0.0030 -0.3550  0.0775
   35BDD     C1 1246  11.884   3.338  13.354 -0.2326  0.2306  0.1077
   35BDD     C2 1247  11.832   3.445  13.286 -0.1517  0.2491  0.0749
   35BDD     C3 1248  11.688   3.440  13.271 -0.1603  0.3722  0.1101
   35BDD     C4 1249  11.632   3.328  13.327 -0.2476  0.4459  0.1692
   35BDD     S1 1250  11.755   3.223  13.403 -0.3251  0.3660  0.1848
   35BDD     C5 1251  11.914   3.556  13.234 -0.0635  0.1543  0.0101
   35BDD     C6 1252  11.611   3.545  13.202 -0.0815  0.4125  0.0839
   35BDD     O1 1253  11.487   3.540  13.189 -0.0889  0.5186  0.1142
   35BDD     O2 1254  12.038   3.561  13.247 -0.0561  0.0480 -0.0202
   35BDD     C7 1255  11.693   3.656  13.149  0.0066  0.3176  0.0191
   35BDD     C8 1256  11.837   3.662  13.164  0.0152  0.1944 -0.0161
   35BDD     C9 1257  11.894   3.773  13.108  0.1025  0.1208 -0.0752
   35BDD     S2 1258  11.770   3.879  13.032  0.1800  0.2006 -0.0908
   35BDD    C10 1259  11.641   3.764  13.081  0.0875  0.3361 -0.0136
   35BDD    C11 1260  11.491   3.801  13.073 -0.3518  0.0461  0.7109
   35BDD    C12 1261  11.451   3.945  13.023  1.5323  0.3663 -0.9662
   35BDD    C13 1262  11.432   4.056  13.133  0.1876  0.7845 -0.3674
   35BDD    C14 1263  11.377   4.187  13.094 -1.4954 -0.1429 -0.4757
   35BDD    C15 1264  11.223   4.196  13.085 -0.3757  0.3871 -1.1172
   35BDD    C16 1265  11.163   4.324  13.116 -0.3465 -0.3300 -0.3710
   35BDD    C17 1266  11.498   4.009  12.891 -0.9986  0.3956  0.1433
   35BDD    C18 1267  11.439   3.936  12.770  1.8889  0.3383  0.3651
   35BDD    C19 1268  12.039   3.818  13.072  1.0578  0.8888 -0.8203
   35BDD    C20 1269  12.092   3.931  13.162  0.1502  0.1464  0.5102
   35BDD    C21 1270  12.240   3.972  13.140  0.3244  0.8282  0.5518
   35BDD    C22 1271  12.341   3.862  13.145  0.7466 -0.5419 -0.7640
   35BDD    C23 1272  12.488   3.879  13.122  0.9863 -0.1749 -0.9398
   35BDD    C24 1273  12.566   3.749  13.113  0.7546 -0.1170 -0.8585
   35BDD    C25 1274  12.029   3.941  13.303  0.6947 -1.1402  0.4686
   35BDD    C26 1275  12.081   3.844  13.417  0.4321 -1.2205 -0.2728
   36TPM     C1 1276  12.017   3.315  13.424  0.3785 -0.0516  0.0188
   36TPM     C2 1277  12.030   3.359  13.552  0.7267  0.2714 -0.1236
   36TPM     C3 1278  12.152   3.317  13.616  0.8732  0.3831 -0.3261
   36TPM     C4 1279  12.232   3.241  13.537  0.6367  0.1451 -0.3380
   36TPM     S1 1280  12.159   3.216  13.374  0.2073 -0.2414 -0.0926
   37BDTP    C1 1281  12.805   3.014  13.603 -0.0786 -0.3283  0.1314
   37BDTP    C2 1282  12.746   2.926  13.507  0.0744 -0.2530 -0.0328
   37BDTP    C3 1283  12.614   2.937  13.466  0.1501 -0.1972 -0.2648
   37BDTP    C4 1284  12.536   3.040  13.522  0.0713 -0.2164 -0.3384
   37BDTP    C5 1285  12.595   3.128  13.618 -0.0816 -0.2917 -0.1742
   37BDTP    C6 1286  12.727   3.116  13.659 -0.1573 -0.3474  0.0577
   37BDTP    C7 1287  12.397   3.072  13.496  0.1260 -0.1684 -0.5694
   37BDTP    C8 1288  12.350   3.177  13.566  0.0228 -0.2034 -0.5863
   37BDTP    S1 1289  12.474   3.252  13.675 -0.1582 -0.3023 -0.3120
   37BDTP    C9 1290  12.944   2.982  13.630 -0.1332 -0.3763  0.3623
   37BDTP   C10 1291  12.992   2.876  13.560 -0.0299 -0.3413  0.3791
   37BDTP    S2 1292  12.867   2.802  13.450  0.1510 -0.2425  0.1049
   38FTM     S1 1293  12.659   2.781  13.223 -0.4422  0.2526  0.2359
   38FTM     C1 1294  12.521   2.679  13.168 -0.7749  0.8840 -0.1255
   38FTM     C2 1295  12.412   2.702  13.246 -0.8901  1.4132 -0.4368
   38FTM     C3 1296  12.429   2.799  13.351 -0.7305  1.3613 -0.4139
   38FTM     C4 1297  12.555   2.851  13.353 -0.4851  0.7732 -0.0739
   38FTM     F1 1298  12.291   2.638  13.227 -1.1468  1.9760 -0.7612
   38FTM     C5 1299  12.555   2.536  13.125 -0.1575 -2.3222  0.4418
   38FTM     C6 1300  12.559   2.414  13.209 -0.3754  1.1074 -1.0526
   38FTM     C7 1301  12.570   2.272  13.136  1.3874 -0.6963  0.2161
   38FTM     C8 1302  12.461   2.250  13.037  0.5537 -1.0023  0.1664
   38FTM     C9 1303  12.425   2.117  12.976  0.6408 -0.0958  0.2955
   38FTM    C10 1304  12.300   2.058  13.024  0.1439  0.2978 -0.6562
   38FTM    C11 1305  12.609   2.420  13.346  1.1974  0.1670  0.1749
   38FTM    C12 1306  12.618   2.300  13.440 -1.2746  0.3421 -0.6090
   39FTM     S1 1307  12.776   3.180  13.935 -0.4405  0.2370 -0.3166
   39FTM     C1 1308  12.834   3.347  13.971 -0.8509  0.2593  0.2769
   39FTM     C2 1309  12.846   3.418  13.855 -0.5506  0.5414  0.4758
   39FTM     C3 1310  12.811   3.349  13.735  0.0034  0.7523  0.1859
   39FTM     C4 1311  12.771   3.220  13.759  0.1316  0.6277 -0.2494
   39FTM     F1 1312  12.888   3.550  13.852 -0.7597  0.6253  0.9323
   39FTM     C5 1313  12.873   3.376  14.112 -0.0452 -0.7426 -1.0432
   39FTM     C6 1314  12.990   3.470  14.131 -0.4558  0.0521  0.6486
   39FTM     C7 1315  13.130   3.428  14.084  0.7705  0.0681  0.9863
   39FTM     C8 1316  13.185   3.297  14.148 -0.4876 -0.5556 -0.8994
   39FTM     C9 1317  13.322   3.251  14.095 -1.3246 -1.0529  0.1625
   39FTM    C10 1318  13.340   3.227  13.933 -0.6305 -0.5533 -0.3861
   39FTM    C11 1319  12.992   3.566  14.253  0.8001  0.4093  0.2366
   39FTM    C12 1320  12.922   3.706  14.247  0.3414  1.2107  0.9134
   40TPM     C1 1321  13.126   2.843  13.537 -0.7023  0.2874  0.3118
   40TPM     C2 1322  13.190   2.799  13.425 -0.7712  1.4183 -0.2008
   40TPM     C3 1323  13.332   2.784  13.442 -0.5767  2.3783 -0.8323
   40TPM     C4 1324  13.377   2.817  13.567 -0.3596  1.9795 -0.8011
   40TPM     S1 1325  13.241   2.869  13.674 -0.3840  0.3478  0.0347
   41BDD     C1 1326  13.735   2.880  13.723 -0.4591 -0.0243 -0.4768
   41BDD     C2 1327  13.733   2.747  13.689 -0.2382 -0.0357 -0.4502
   41BDD     C3 1328  13.610   2.706  13.624 -0.1594 -0.2481 -0.4678
   41BDD     C4 1329  13.520   2.808  13.609 -0.3213 -0.3956 -0.5076
   41BDD     S1 1330  13.583   2.963  13.675 -0.5836 -0.2787 -0.5258
   41BDD     C5 1331  13.844   2.653  13.715 -0.0917  0.1483 -0.4076
   41BDD     C6 1332  13.586   2.568  13.579  0.0736 -0.2970 -0.4446
   41BDD     O1 1333  13.479   2.533  13.523  0.1415 -0.4802 -0.4598
   41BDD     O2 1334  13.950   2.688  13.771 -0.1597  0.3315 -0.3923
   41BDD     C7 1335  13.697   2.474  13.605  0.2202 -0.1131 -0.4020
   41BDD     C8 1336  13.820   2.515  13.670  0.1414  0.0993 -0.3843
   41BDD     C9 1337  13.910   2.413  13.685  0.3033  0.2468 -0.3445
   41BDD     S2 1338  13.846   2.258  13.619  0.5655  0.1299 -0.3264
   41BDD    C10 1339  13.694   2.341  13.572  0.4411 -0.1245 -0.3754
   41BDD    C11 1340  13.606   2.246  13.486 -0.5166 -0.4886 -0.5831
   41BDD    C12 1341  13.677   2.128  13.399  0.5001 -0.1577 -1.0496
   41BDD    C13 1342  13.571   2.020  13.345 -0.7602  0.1399  0.2372
   41BDD    C14 1343  13.461   2.061  13.262 -1.0862 -0.2172  0.6209
   41BDD    C15 1344  13.349   1.954  13.274 -0.0576  0.7123  0.8847
   41BDD    C16 1345  13.225   2.047  13.237 -1.3062  0.6983  0.7640
   41BDD    C17 1346  13.788   2.176  13.299 -0.3043 -0.7930 -0.3930
   41BDD    C18 1347  13.837   2.100  13.183 -0.1157  0.1854 -0.4979
   41BDD    C19 1348  14.044   2.399  13.746 -0.1762 -0.7237  0.7982
   41BDD    C20 1349  14.051   2.369  13.881 -0.2741 -1.7218  0.3419
   41BDD    C21 1350  13.944   2.296  13.959  0.2379  1.1853  0.3617
   41BDD    C22 1351  13.933   2.301  14.111 -0.8069 -0.3173 -0.6690
   41BDD    C23 1352  13.963   2.146  14.150 -0.2703 -1.1526  0.1662
   41BDD    C24 1353  14.042   2.116  14.278 -1.1686  0.1577  0.9216
   41BDD    C25 1354  14.197   2.372  13.935 -1.2755 -1.1783  0.9543
   41BDD    C26 1355  14.274   2.251  13.895  0.1195  0.7515  2.6651
   42TPM     C1 1356  13.819   2.968  13.793 -0.0958  0.3993 -0.1906
   42TPM     C2 1357  13.927   3.034  13.742  0.3589 -0.2092 -0.0344
   42TPM     C3 1358  14.003   3.107  13.840  0.5243 -0.4864  0.0458
   42TPM     C4 1359  13.953   3.097  13.967  0.1957 -0.0893 -0.0491
   42TPM     S1 1360  13.805   2.994  13.971 -0.3525  0.6714 -0.2486
   43BDTP    C1 1361  14.256   3.455  14.397  0.1398  0.0855  0.2952
   43BDTP    C2 1362  14.269   3.325  14.453 -0.1501 -0.0167  0.1236
   43BDTP    C3 1363  14.213   3.212  14.393 -0.1134  0.1367 -0.2030
   43BDTP    C4 1364  14.142   3.229  14.273  0.2248  0.4036 -0.3688
   43BDTP    C5 1365  14.130   3.360  14.217  0.5146  0.5057 -0.1972
   43BDTP    C6 1366  14.185   3.472  14.277  0.4781  0.3523  0.1294
   43BDTP    C7 1367  14.076   3.128  14.193  0.3271  0.6003 -0.7065
   43BDTP    C8 1368  14.016   3.176  14.081  0.6754  0.8422 -0.7956
   43BDTP    S1 1369  14.034   3.356  14.062  0.9227  0.8548 -0.4643
   43BDTP    C9 1370  14.322   3.556  14.477  0.0375 -0.1113  0.6329
   43BDTP   C10 1371  14.383   3.509  14.588 -0.3108 -0.3532  0.7220
   43BDTP    S2 1372  14.365   3.329  14.608 -0.5582 -0.3658  0.3907
   44FTM     S1 1373  14.073   2.975  14.507 -0.1672  0.2392  0.1586
   44FTM     C1 1374  14.186   2.842  14.550 -0.0917  0.1985 -0.1576
   44FTM     C2 1375  14.315   2.881  14.527 -0.0696  0.5620  0.5264
   44FTM     C3 1376  14.333   3.013  14.476 -0.1092  0.8863  1.3188
   44FTM     C4 1377  14.214   3.078  14.459 -0.1634  0.7674  1.2390
   44FTM     F1 1378  14.424   2.798  14.552 -0.0123  0.6225  0.4754
   44FTM     C5 1379  14.135   2.692  14.591  0.3874 -0.8771 -0.4516
   44FTM     C6 1380  14.095   2.645  14.739 -0.3382 -1.4299 -0.0669
   44FTM     C7 1381  14.202   2.663  14.847  0.9462  0.9237  0.6982
   44FTM     C8 1382  14.328   2.579  14.818 -0.0739  0.9601  0.5917
   44FTM     C9 1383  14.431   2.563  14.928 -0.6327 -0.9881  1.5343
   44FTM    C10 1384  14.459   2.660  15.046 -0.0002  1.0273  0.9887
   44FTM    C11 1385  13.959   2.695  14.781  0.4761 -0.1532  0.2717
   44FTM    C12 1386  13.880   2.616  14.872  0.3130  0.5299 -0.7850
   45FTM     S1 1387  14.088   3.759  14.304 -0.0319 -0.5053 -0.1692
   45FTM     C1 1388  14.086   3.851  14.149 -0.0785  0.1713  0.2299
   45FTM     C2 1389  14.125   3.771  14.047 -0.5339  0.4934 -0.2019
   45FTM     C3 1390  14.157   3.636  14.081 -0.8661  0.2400 -0.8537
   45FTM     C4 1391  14.143   3.612  14.214 -0.6585 -0.2937 -0.9232
   45FTM     F1 1392  14.133   3.815  13.916 -0.6768  1.0371 -0.0327
   45FTM     C5 1393  14.017   3.985  14.147 -0.1122  0.9515  0.9076
   45FTM     C6 1394  14.111   4.106  14.179 -0.1225 -0.4966  1.2241
   45FTM     C7 1395  14.253   4.097  14.242 -0.5467  0.4885  0.9255
   45FTM     C8 1396  14.254   4.093  14.392  0.5813  0.6873 -2.3027
   45FTM     C9 1397  14.365   4.055  14.472 -0.4314 -1.6970  0.3016
   45FTM    C10 1398  14.492   4.125  14.456  0.7227  1.7676  0.9378
   45FTM    C11 1399  14.021   4.233  14.198  0.5495 -0.1483  0.5932
   45FTM    C12 1400  13.960   4.284  14.069  0.1716  0.0637  0.3644
   46TPM     C1 1401  14.473   3.592  14.675  0.0733  0.1219  0.5853
   46TPM     C2 1402  14.547   3.706  14.663 -0.3363  0.4002  0.6405
   46TPM     C3 1403  14.633   3.731  14.777 -0.3521  0.6019  0.6092
   46TPM     C4 1404  14.623   3.636  14.874  0.0454  0.4774  0.5302
   46TPM     S1 1405  14.505   3.507  14.830  0.4739  0.0928  0.4887
   47BDD     C1 1406  14.929   3.655  15.122  0.2980 -0.1685 -0.3005
   47BDD     C2 1407  14.827   3.613  15.202  0.2956 -0.0151 -0.2222
   47BDD     C3 1408  14.699   3.608  15.135  0.2030  0.3377 -0.0789
   47BDD     C4 1409  14.705   3.646  15.004  0.1360  0.4484 -0.0500
   47BDD     S1 1410  14.872   3.691  14.956  0.1844  0.1183 -0.2002
   47BDD     C5 1411  14.844   3.576  15.344  0.3784 -0.1873 -0.2763
   47BDD     C6 1412  14.575   3.565  15.203  0.1841  0.5524  0.0242
   47BDD     O1 1413  14.464   3.560  15.144  0.1041  0.8567  0.1477
   47BDD     O2 1414  14.955   3.581  15.403  0.4582 -0.4916 -0.3998
   47BDD     C7 1415  14.592   3.528  15.345  0.2670  0.3802 -0.0299
   47BDD     C8 1416  14.720   3.533  15.412  0.3596  0.0274 -0.1732
   47BDD     C9 1417  14.714   3.495  15.543  0.4266 -0.0833 -0.2022
   47BDD     S2 1418  14.547   3.449  15.591  0.3783  0.2468 -0.0520
   47BDD    C10 1419  14.489   3.485  15.425  0.2646  0.5335  0.0484
   47BDD    C11 1420  14.341   3.457  15.391 -0.7686 -0.3512  0.1680
   47BDD    C12 1421  14.241   3.379  15.474  1.2019 -1.2518 -0.1346
   47BDD    C13 1422  14.263   3.225  15.473 -0.5764  0.9871 -0.1873
   47BDD    C14 1423  14.170   3.119  15.550 -0.9493 -1.1398  0.1892
   47BDD    C15 1424  14.116   3.152  15.691 -0.5727 -0.3068  0.2678
   47BDD    C16 1425  14.139   3.039  15.780  1.2707  1.1689  0.6561
   47BDD    C17 1426  14.085   3.406  15.433  0.6155 -0.9538  0.9825
   47BDD    C18 1427  14.041   3.381  15.293 -0.4660  0.6581  1.7949
   47BDD    C19 1428  14.809   3.462  15.650 -0.1125 -0.1031 -1.2386
   47BDD    C20 1429  14.851   3.568  15.756 -0.3464 -1.2426 -0.3094
   47BDD    C21 1430  14.946   3.675  15.695 -0.5638 -0.9625 -0.1360
   47BDD    C22 1431  14.991   3.817  15.751 -1.1337 -0.3608  0.1938
   47BDD    C23 1432  14.992   3.947  15.673  1.6179 -0.0388 -1.6231
   47BDD    C24 1433  15.085   3.925  15.555 -0.6337  0.5962  0.6176
   47BDD    C25 1434  14.877   3.531  15.903 -0.4084  1.0119  0.0482
   47BDD    C26 1435  14.992   3.420  15.911 -0.7105 -0.0810 -1.2977
   48TPM     C1 1436  15.071   3.705  15.151 -0.1618  0.0226 -0.0288
   48TPM     C2 1437  15.102   3.835  15.177 -0.1576 -0.0222  0.1926
   48TPM     C3 1438  15.230   3.853  15.241 -0.2052 -0.1420  0.3233
   48TPM     C4 1439  15.297   3.736  15.263 -0.2455 -0.1884  0.2013
   48TPM     S1 1440  15.202   3.594  15.205 -0.2265 -0.0837 -0.0902
   49BDTP    C1 1441  15.882   3.837  15.359  0.1526  0.3363  0.1852
   49BDTP    C2 1442  15.879   3.752  15.245  0.2904  0.1539  0.3156
   49BDTP    C3 1443  15.763   3.692  15.198  0.3400  0.1053  0.2543
   49BDTP    C4 1444  15.643   3.716  15.269  0.2496  0.2428  0.0548
   49BDTP    C5 1445  15.646   3.801  15.383  0.1118  0.4252 -0.0756
   49BDTP    C6 1446  15.762   3.861  15.429  0.0624  0.4739 -0.0142
   49BDTP    C7 1447  15.511   3.664  15.240  0.2775  0.2252 -0.0428
   49BDTP    C8 1448  15.415   3.706  15.326  0.1687  0.3836 -0.2376
   49BDTP    S1 1449  15.479   3.816  15.456  0.0155  0.5773 -0.3248
   49BDTP    C9 1450  16.014   3.888  15.388  0.1247  0.3539  0.2826
   49BDTP   C10 1451  16.110   3.847  15.302  0.2335  0.1956  0.4774
   49BDTP    S2 1452  16.046   3.737  15.172  0.3869  0.0019  0.5649
   50FTM     S1 1453  15.837   3.653  14.909  0.3412 -0.2911 -0.2567
   50FTM     C1 1454  15.812   3.483  14.855  0.5996 -0.5203  0.3301
   50FTM     C2 1455  15.751   3.412  14.953 -0.0862 -0.0471  0.2614
   50FTM     C3 1456  15.721   3.483  15.074 -0.8365  0.5091 -0.2397
   50FTM     C4 1457  15.760   3.614  15.067 -0.7213  0.4603 -0.5652
   50FTM     F1 1458  15.719   3.277  14.940 -0.0755 -0.0896  0.6481
   50FTM     C5 1459  15.808   3.460  14.704 -2.6080 -0.3388 -0.1204
   50FTM     C6 1460  15.888   3.341  14.641 -0.6807  1.4266 -0.2461
   50FTM     C7 1461  16.039   3.358  14.636 -0.9429  1.1129  0.4701
   50FTM     C8 1462  16.115   3.481  14.596  0.3467  0.0528  0.4855
   50FTM     C9 1463  16.084   3.494  14.443  0.5970 -0.3820 -0.5372
   50FTM    C10 1464  16.175   3.597  14.378 -0.1267  0.4890 -0.8636
   50FTM    C11 1465  15.861   3.189  14.699  0.7060 -0.6983  0.5796
   50FTM    C12 1466  15.937   3.072  14.615  0.5422  0.8700  0.4392
   51FTM     S1 1467  15.894   3.940  15.671 -0.2184  0.1261 -0.2955
   51FTM     C1 1468  15.811   4.060  15.777 -0.8953 -1.0346  0.5293
   51FTM     C2 1469  15.690   4.092  15.724 -0.8919 -1.0316  0.5233
   51FTM     C3 1470  15.655   4.028  15.601 -0.3756 -0.1479 -0.1074
   51FTM     C4 1471  15.753   3.943  15.558  0.0299  0.5485 -0.6009
   51FTM     F1 1472  15.604   4.183  15.785 -1.3565 -1.8291  1.0891
   51FTM     C5 1473  15.901   4.126  15.871  0.4407  1.6499  1.4814
   51FTM     C6 1474  15.877   4.147  16.013  0.3368  1.5267  0.0154
   51FTM     C7 1475  15.808   4.279  16.060  1.8786 -0.3775 -0.2435
   51FTM     C8 1476  15.922   4.387  16.116  0.9405  0.5962  0.4592
   51FTM     C9 1477  15.853   4.465  16.225 -0.3948  0.0533 -1.5600
   51FTM    C10 1478  15.925   4.581  16.288  0.0115 -0.9281 -0.2810
   51FTM    C11 1479  15.855   4.039  16.125 -0.5646  0.8121  0.1972
   51FTM    C12 1480  15.721   3.973  16.107 -0.1250  0.2938  0.4506
   52TPM     C1 1481  16.238   3.895  15.274 -1.1300  1.3636 -0.1108
   52TPM     C2 1482  16.290   3.914  15.150 -1.1891  1.5402 -0.1082
   52TPM     C3 1483  16.421   3.975  15.150 -0.8506  0.8265 -0.0519
   52TPM     C4 1484  16.469   4.001  15.274 -0.5332  0.1058 -0.0115
   52TPM     S1 1485  16.352   3.952  15.402 -0.6383  0.2738 -0.0416
   53BDD     C1 1486  16.725   4.231  15.462 -0.1664 -0.4619  0.3720
   53BDD     C2 1487  16.792   4.189  15.350 -0.2223 -0.3380  0.2915
   53BDD     C3 1488  16.712   4.101  15.266 -0.2471 -0.2848  0.2593
   53BDD     C4 1489  16.587   4.078  15.315 -0.2096 -0.3692  0.3158
   53BDD     S1 1490  16.559   4.164  15.470 -0.1407 -0.5208  0.4129
   53BDD     C5 1491  16.930   4.228  15.316 -0.2552 -0.2637  0.2412
   53BDD     C6 1492  16.764   4.044  15.140 -0.3072 -0.1523  0.1738
   53BDD     O1 1493  16.695   3.968  15.067 -0.3287 -0.1066  0.1462
   53BDD     O2 1494  16.999   4.303  15.389 -0.2339 -0.3095  0.2689
   53BDD     C7 1495  16.902   4.082  15.106 -0.3401 -0.0780  0.1236
   53BDD     C8 1496  16.982   4.170  15.190 -0.3152 -0.1311  0.1558
   53BDD     C9 1497  17.107   4.193  15.141 -0.3527 -0.0468  0.0994
   53BDD     S2 1498  17.134   4.107  14.986 -0.4216  0.1049  0.0022
   53BDD    C10 1499  16.968   4.040  14.994 -0.3961  0.0460  0.0432
   53BDD    C11 1500  16.942   3.919  14.893 -0.6120 -0.3143 -0.2685
   53BDD    C12 1501  16.887   3.789  14.916  2.2533  0.2075 -0.5574
   53BDD    C13 1502  16.939   3.699  15.036  0.7403 -1.2668  1.0708
   53BDD    C14 1503  16.875   3.555  15.072 -0.8613  1.2912 -1.9669
   53BDD    C15 1504  16.948   3.477  15.179  0.0555 -0.7174 -0.1797
   53BDD    C16 1505  17.075   3.393  15.144 -0.8151 -0.6127  1.2443
   53BDD    C17 1506  16.867   3.695  14.791 -0.2747  0.4580  0.1340
   53BDD    C18 1507  16.987   3.664  14.692  1.2376 -0.1694 -0.8631
   53BDD    C19 1508  17.223   4.281  15.183 -0.0759  0.6830  0.0054
   53BDD    C20 1509  17.343   4.205  15.225 -0.6005 -0.1030 -0.6585
   53BDD    C21 1510  17.330   4.106  15.343 -0.8943  0.5440 -0.2110
   53BDD    C22 1511  17.444   4.021  15.393  0.9046 -0.1433 -1.5066
   53BDD    C23 1512  17.419   3.870  15.403 -0.8848 -0.7987 -0.2430
   53BDD    C24 1513  17.557   3.813  15.379  2.1348 -1.0774 -0.5890
   53BDD    C25 1514  17.486   4.275  15.218 -0.6302  0.9975 -0.3857
   53BDD    C26 1515  17.544   4.314  15.086 -0.2954 -0.5668 -1.1076
   54TPM     C1 1516  16.775   4.292  15.586 -0.2986 -0.2639  0.7109
   54TPM     C2 1517  16.725   4.247  15.705 -0.2195  0.7597  1.1538
   54TPM     C3 1518  16.756   4.332  15.817  0.2137  1.5292  0.4733
   54TPM     C4 1519  16.829   4.442  15.784  0.4650  1.0924 -0.4892
   54TPM     S1 1520  16.866   4.447  15.607  0.1716 -0.3359 -0.6111
   55BDTP    C1 1521  17.126   4.855  16.154  0.0620  0.0621 -0.2009
   55BDTP    C2 1522  17.113   4.740  16.238  0.2122  0.0283 -0.2249
   55BDTP    C3 1523  17.052   4.623  16.195  0.4002 -0.0573 -0.2630
   55BDTP    C4 1524  17.000   4.618  16.065  0.4425 -0.1123 -0.2781
   55BDTP    C5 1525  17.012   4.733  15.981  0.2922 -0.0784 -0.2540
   55BDTP    C6 1526  17.074   4.850  16.023  0.1044  0.0073 -0.2159
   55BDTP    C7 1527  16.932   4.508  15.999  0.6259 -0.2033 -0.3166
   55BDTP    C8 1528  16.893   4.535  15.872  0.6211 -0.2389 -0.3225
   55BDTP    S1 1529  16.937   4.703  15.818  0.3833 -0.1621 -0.2800
   55BDTP    C9 1530  17.193   4.965  16.220 -0.1215  0.1533 -0.1624
   55BDTP   C10 1531  17.232   4.938  16.347 -0.1167  0.1888 -0.1564
   55BDTP    S2 1532  17.188   4.771  16.401  0.1213  0.1121 -0.1987
   56FTM     S1 1533  17.163   4.406  16.365 -0.0195  0.5080 -0.4329
   56FTM     C1 1534  17.047   4.319  16.471  0.2813  0.4474 -0.1505
   56FTM     C2 1535  16.922   4.370  16.454  0.2217  0.4226  0.1935
   56FTM     C3 1536  16.909   4.477  16.359 -0.0546  0.4487  0.2569
   56FTM     C4 1537  17.029   4.509  16.302 -0.2118  0.4947 -0.0484
   56FTM     F1 1538  16.811   4.323  16.523  0.4140  0.3750  0.4714
   56FTM     C5 1539  17.101   4.228  16.587  0.7666  0.5593 -0.5051
   56FTM     C6 1540  17.070   4.080  16.544 -1.1828 -1.0260  0.5429
   56FTM     C7 1541  17.111   4.028  16.404  0.4831  0.1100  0.1415
   56FTM     C8 1542  17.228   4.076  16.310  0.1269  0.4569 -0.1174
   56FTM     C9 1543  17.369   4.107  16.369  0.5281  0.6315  0.9766
   56FTM    C10 1544  17.485   4.137  16.276 -0.9369  0.6239  1.0113
   56FTM    C11 1545  16.976   4.003  16.644 -0.6064 -0.3204  0.0405
   56FTM    C12 1546  16.857   3.955  16.581  1.9554 -0.0464  0.6254
   57FTM     S1 1547  17.298   5.001  15.913  0.2431  0.2841  0.4296
   57FTM     C1 1548  17.254   5.115  15.780  0.1566  0.0372  0.2439
   57FTM     C2 1549  17.124   5.097  15.744  0.0532  0.1537  0.5511
   57FTM     C3 1550  17.053   4.995  15.816  0.0354  0.4349  0.9403
   57FTM     C4 1551  17.130   4.934  15.909  0.1280  0.5372  0.9306
   57FTM     F1 1552  17.062   5.171  15.645 -0.0316  0.0122  0.4983
   57FTM     C5 1553  17.355   5.202  15.718 -0.5673  0.2137 -0.8783
   57FTM     C6 1554  17.460   5.269  15.811  0.3912  1.3942 -0.8646
   57FTM     C7 1555  17.568   5.337  15.735  0.7444  0.5435  1.3170
   57FTM     C8 1556  17.640   5.254  15.619 -0.0752 -1.2590  0.5163
   57FTM     C9 1557  17.789   5.214  15.665  0.1852  0.5743  0.8982
   57FTM    C10 1558  17.871   5.129  15.573 -0.5725  0.0774  0.9438
   57FTM    C11 1559  17.413   5.345  15.933 -0.9849 -1.3869  1.3809
   57FTM    C12 1560  17.326   5.481  15.888 -1.4955  0.1558  0.1509
   58TPM     C1 1561  17.303   5.021  16.462 -0.4728  0.4087  0.3931
   58TPM     C2 1562  17.308   5.156  16.481  0.0756  0.3687  0.5698
   58TPM     C3 1563  17.369   5.195  16.605  0.7713 -0.0179  0.3610
   58TPM     C4 1564  17.411   5.090  16.681  0.7534 -0.2725  0.0251
   58TPM     S1 1565  17.375   4.932  16.602 -0.1508 -0.0424 -0.0539
   59BDD     C1 1566  17.573   5.264  16.994 -0.3269 -0.1499 -0.7315
   59BDD     C2 1567  17.571   5.131  17.026 -0.2180 -0.1234 -0.6124
   59BDD     C3 1568  17.510   5.048  16.924 -0.0690 -0.2766 -0.5791
   59BDD     C4 1569  17.466   5.119  16.815 -0.0663 -0.4175 -0.6733
   59BDD     S1 1570  17.498   5.295  16.834 -0.2502 -0.3682 -0.8103
   59BDD     C5 1571  17.626   5.075  17.151 -0.2471  0.0434 -0.5249
   59BDD     C6 1572  17.497   4.902  16.937  0.0654 -0.2775 -0.4550
   59BDD     O1 1573  17.444   4.830  16.849  0.1940 -0.4096 -0.4263
   59BDD     O2 1574  17.679   5.146  17.240 -0.3756  0.1754 -0.5536
   59BDD     C7 1575  17.551   4.846  17.062  0.0364 -0.1106 -0.3674
   59BDD     C8 1576  17.613   4.929  17.165 -0.1127  0.0427 -0.4007
   59BDD     C9 1577  17.657   4.857  17.273 -0.1154  0.1835 -0.3064
   59BDD     S2 1578  17.624   4.682  17.254  0.0684  0.1342 -0.1693
   59BDD    C10 1579  17.549   4.713  17.094  0.1452 -0.0842 -0.2482
   59BDD    C11 1580  17.526   4.593  17.003  0.2802  0.4557 -0.5192
   59BDD    C12 1581  17.447   4.479  17.066  1.9050  0.2662 -1.0007
   59BDD    C13 1582  17.509   4.387  17.170  0.7004  0.1291  0.2927
   59BDD    C14 1583  17.620   4.301  17.098 -0.5895  0.7093 -0.1649
   59BDD    C15 1584  17.563   4.158  17.100  0.0127  0.8769  1.0844
   59BDD    C16 1585  17.682   4.056  17.083  0.2616  0.0518 -1.3908
   59BDD    C17 1586  17.323   4.534  17.141 -0.0797  0.8805 -0.0254
   59BDD    C18 1587  17.229   4.632  17.059  0.5992 -0.6850 -0.1419
   59BDD    C19 1588  17.724   4.888  17.404  0.8366 -0.9376  0.4671
   59BDD    C20 1589  17.854   4.959  17.408 -1.1547 -0.8129 -0.6390
   59BDD    C21 1590  17.908   5.005  17.543  1.7409  0.9632 -0.1567
   59BDD    C22 1591  17.960   5.134  17.553 -0.4974 -0.8406  0.1967
   59BDD    C23 1592  18.063   5.122  17.673  2.0721 -0.3395 -0.7924
   59BDD    C24 1593  18.161   5.243  17.703 -0.2305  0.3667  0.6002
   59BDD    C25 1594  17.978   4.939  17.310 -0.7982  0.4632 -0.1186
   59BDD    C26 1595  18.065   4.806  17.315 -0.5647  0.6866 -0.0354
   60TPM     C1 1596  17.606   5.400  17.058  0.3283 -0.4457  0.1471
   60TPM     C2 1597  17.653   5.504  16.983 -0.1732 -0.3014  0.0269
   60TPM     C3 1598  17.700   5.615  17.062 -0.3781 -0.1236 -0.0957
   60TPM     C4 1599  17.690   5.595  17.197 -0.0330 -0.1324 -0.0691
   60TPM     S1 1600  17.619   5.434  17.234  0.5825 -0.3674  0.1145
    1BDTP    C1 1601   1.049   6.964   9.728 -0.1561  0.4513  0.2830
    1BDTP    C2 1602   0.937   6.892   9.779 -0.2736  0.5279  0.1359
    1BDTP    C3 1603   0.819   6.877   9.708 -0.2199  0.6785  0.0134
    1BDTP    C4 1604   0.810   6.936   9.581 -0.0421  0.7578  0.0372
    1BDTP    C5 1605   0.922   7.008   9.530  0.0754  0.6814  0.1843
    1BDTP    C6 1606   1.040   7.023   9.601  0.0218  0.5307  0.3070
    1BDTP    C7 1607   0.698   6.934   9.489  0.0438  0.9144 -0.0723
    1BDTP    C8 1608   0.720   7.000   9.373  0.2179  0.9583 -0.0148
    1BDTP    S1 1609   0.885   7.074   9.364  0.2975  0.8080  0.1857
    1BDTP    C9 1610   1.161   6.966   9.820 -0.2419  0.2948  0.3927
    1BDTP   C10 1611   1.139   6.899   9.936 -0.4160  0.2507  0.3352
    1BDTP    S2 1612   0.973   6.825   9.945 -0.4957  0.4011  0.1348
    2FTM     S1 1613   0.646   6.927   9.910  0.0690  0.2103  0.2232
    2FTM     C1 1614   0.538   6.796   9.970  0.2110 -0.2306 -0.4556
    2FTM     C2 1615   0.557   6.683   9.897  0.4272  0.1279 -0.9670
    2FTM     C3 1616   0.655   6.691   9.793  0.4940  0.7519 -0.8645
    2FTM     C4 1617   0.712   6.814   9.785  0.3234  0.8753 -0.2547
    2FTM     F1 1618   0.488   6.565   9.921  0.5774 -0.0880 -1.5583
    2FTM     C5 1619   0.443   6.827  10.078  0.2692  0.6690  1.1731
    2FTM     C6 1620   0.428   6.749  10.202 -0.2022  0.4235 -0.0378
    2FTM     C7 1621   0.312   6.804  10.282  1.1309  0.0415 -0.2985
    2FTM     C8 1622   0.186   6.711  10.310  0.1791 -0.1676  0.0745
    2FTM     C9 1623   0.067   6.786  10.364 -0.3117  0.2575  0.6912
    2FTM    C10 1624  -0.039   6.713  10.426  0.6159  0.3155 -0.7972
    2FTM    C11 1625   0.556   6.745  10.284 -0.3644  0.4453 -0.9609
    2FTM    C12 1626   0.555   6.673  10.419 -1.2266 -0.5643  0.0241
    3FTM     S1 1627   1.287   7.179   9.594 -0.4265  0.3989  0.1813
    3FTM     C1 1628   1.401   7.123   9.466 -0.2613  0.1081  0.4500
    3FTM     C2 1629   1.340   7.031   9.386 -0.2068  0.0359  0.4914
    3FTM     C3 1630   1.205   6.999   9.419 -0.2882  0.1984  0.3207
    3FTM     C4 1631   1.160   7.069   9.528 -0.4089  0.4016  0.1430
    3FTM     F1 1632   1.404   6.971   9.278 -0.0800 -0.1817  0.6864
    3FTM     C5 1633   1.479   7.249   9.427 -0.6908  0.1087 -0.6065
    3FTM     C6 1634   1.612   7.186   9.372 -0.2800  0.9549  0.2445
    3FTM     C7 1635   1.646   7.224   9.230 -0.3752 -0.4112  1.1920
    3FTM     C8 1636   1.618   7.365   9.184 -0.6331 -0.8482  1.5109
    3FTM     C9 1637   1.566   7.386   9.029 -0.9000  0.3139 -0.6139
    3FTM    C10 1638   1.642   7.320   8.916 -0.2858 -0.5211 -0.0132
    3FTM    C11 1639   1.709   7.099   9.466 -0.3344  0.4611  0.2267
    3FTM    C12 1640   1.817   7.162   9.549 -0.8293 -0.5371  0.1659
    4TPM     C1 1641   1.233   6.868  10.041  0.0088 -0.6983  0.4462
    4TPM     C2 1642   1.284   6.748  10.079  0.5040 -0.5113  0.3824
    4TPM     C3 1643   1.406   6.759  10.155  0.6694 -0.0694  0.0629
    4TPM     C4 1644   1.448   6.887  10.174  0.3002  0.0805 -0.1171
    4TPM     S1 1645   1.335   7.005  10.098 -0.2895 -0.3278  0.1045
    5BDD     C1 1646   1.694   7.090  10.395  0.0787  0.1946  0.1296
    5BDD     C2 1647   1.765   6.985  10.345  0.0103  0.1606  0.1030
    5BDD     C3 1648   1.683   6.888  10.274 -0.0519  0.2360  0.0715
    5BDD     C4 1649   1.551   6.921  10.272 -0.0300  0.3266  0.0740
    5BDD     S1 1650   1.519   7.075  10.358  0.0700  0.3235  0.1163
    5BDD     C5 1651   1.912   6.970  10.359 -0.0005  0.0575  0.1063
    5BDD     C6 1652   1.740   6.767  10.211 -0.1308  0.2155  0.0401
    5BDD     O1 1653   1.669   6.684  10.150 -0.1844  0.2805  0.0124
    5BDD     O2 1654   1.982   7.054  10.420  0.0531 -0.0076  0.1335
    5BDD     C7 1655   1.886   6.752  10.225 -0.1416  0.1123  0.0429
    5BDD     C8 1656   1.968   6.849  10.296 -0.0794  0.0368  0.0744
    5BDD     C9 1657   2.101   6.817  10.298 -0.1013 -0.0536  0.0718
    5BDD     S2 1658   2.133   6.663  10.212 -0.2013 -0.0507  0.0293
    5BDD    C10 1659   1.958   6.647  10.175 -0.2099  0.0781  0.0165
    5BDD    C11 1660   1.926   6.548  10.060 -1.1822 -0.0933 -0.1880
    5BDD    C12 1661   1.941   6.403  10.094  0.3437  0.3666  0.2057
    5BDD    C13 1662   1.852   6.349  10.210 -0.6151 -0.5982  0.7452
    5BDD    C14 1663   1.708   6.373  10.175  0.4564 -0.1820  0.5477
    5BDD    C15 1664   1.601   6.354  10.283 -0.7025 -0.5241  0.3057
    5BDD    C16 1665   1.483   6.325  10.212 -0.6869  0.5627 -0.0479
    5BDD    C17 1666   2.070   6.325  10.078 -0.7863 -1.0643  0.1321
    5BDD    C18 1667   2.166   6.317  10.205  0.7905 -0.4796  0.8145
    5BDD    C19 1668   2.227   6.842  10.372 -0.5159 -0.3662 -0.2836
    5BDD    C20 1669   2.226   6.851  10.530  1.3970  1.0296 -0.6135
    5BDD    C21 1670   2.149   6.729  10.607 -0.6155 -0.9931  0.1915
    5BDD    C22 1671   2.214   6.580  10.587  0.3399  0.6410 -0.2118
    5BDD    C23 1672   2.110   6.473  10.592 -0.0543 -1.5230 -0.5174
    5BDD    C24 1673   2.161   6.342  10.645  1.3280  0.8299 -0.8245
    5BDD    C25 1674   2.364   6.885  10.593 -0.0267  0.7015 -0.8183
    5BDD    C26 1675   2.406   7.026  10.579  0.5567 -1.0307 -0.8100
    6TPM     C1 1676   1.718   7.211  10.480 -0.1668  0.4693  0.1069
    6TPM     C2 1677   1.833   7.282  10.467  0.2740 -0.0658  0.9449
    6TPM     C3 1678   1.850   7.385  10.567  0.3219 -0.5300  1.4219
    6TPM     C4 1679   1.747   7.392  10.656 -0.0824 -0.3490  0.9477
    6TPM     S1 1680   1.620   7.269  10.620 -0.5587  0.4280 -0.1466
    7BDTP    C1 1681   1.761   7.709  11.187 -0.1973  0.0265  0.0215
    7BDTP    C2 1682   1.684   7.593  11.217 -0.1498 -0.0120 -0.0060
    7BDTP    C3 1683   1.651   7.499  11.120 -0.1156 -0.0004 -0.0293
    7BDTP    C4 1684   1.695   7.520  10.989 -0.1285  0.0520 -0.0257
    7BDTP    C5 1685   1.773   7.636  10.959 -0.1759  0.0907  0.0021
    7BDTP    C6 1686   1.806   7.730  11.055 -0.2102  0.0789  0.0255
    7BDTP    C7 1687   1.673   7.436  10.873 -0.0992  0.0735 -0.0467
    7BDTP    C8 1688   1.729   7.483  10.759 -0.1219  0.1259 -0.0365
    7BDTP    S1 1689   1.818   7.640  10.782 -0.1837  0.1552  0.0014
    7BDTP    C9 1690   1.784   7.793  11.303 -0.2266  0.0050  0.0429
    7BDTP   C10 1691   1.728   7.746  11.417 -0.2038 -0.0474  0.0327
    7BDTP    S2 1692   1.639   7.589  11.393 -0.1420 -0.0765 -0.0052
    8FTM     S1 1693   1.575   7.224  11.149 -0.7269  0.2296  0.2862
    8FTM     C1 1694   1.415   7.198  11.226 -0.6646 -0.0960  0.3061
    8FTM     C2 1695   1.357   7.317  11.255 -0.7470 -0.2127  0.6380
    8FTM     C3 1696   1.432   7.434  11.219 -0.8609 -0.0597  0.8912
    8FTM     C4 1697   1.551   7.403  11.161 -0.8657  0.1819  0.7487
    8FTM     F1 1698   1.233   7.328  11.315 -0.7243 -0.4648  0.7324
    8FTM     C5 1699   1.347   7.069  11.215  0.7252  0.2602 -0.2813
    8FTM     C6 1700   1.255   6.984  11.319 -0.7687 -0.4184  0.5896
    8FTM     C7 1701   1.307   6.975  11.455 -0.6771 -0.9863 -0.3034
    8FTM     C8 1702   1.445   6.916  11.490  0.7141 -0.5226  1.4178
    8FTM     C9 1703   1.459   6.992  11.618 -0.4483 -0.2582 -0.3748
    8FTM    C10 1704   1.599   6.992  11.670 -1.4136 -0.8668  1.1095
    8FTM    C11 1705   1.113   7.026  11.323 -0.4566  1.4948  0.8353
    8FTM    C12 1706   1.016   6.918  11.361  1.6795  1.3607  0.5215
    9FTM     S1 1707   1.809   7.995  11.012  0.2650 -0.6922 -0.5751
    9FTM     C1 1708   1.954   8.070  10.937  0.8105 -1.3769 -0.2230
    9FTM     C2 1709   2.048   7.974  10.911  0.5845 -1.7644  0.3631
    9FTM     C3 1710   2.012   7.840  10.948 -0.0123 -1.5577  0.5686
    9FTM     C4 1711   1.888   7.833  11.003 -0.2509 -0.9935  0.1255
    9FTM     F1 1712   2.170   8.002  10.853  0.9045 -2.3293  0.7477
    9FTM     C5 1713   1.950   8.216  10.928 -0.4797 -0.4599 -0.1108
    9FTM     C6 1714   2.041   8.302  10.836 -0.2153  0.6531  0.0314
    9FTM     C7 1715   2.171   8.365  10.891 -0.5793  0.2081  1.3762
    9FTM     C8 1716   2.185   8.368  11.044  0.1620  0.7212  0.4100
    9FTM     C9 1717   2.335   8.347  11.079 -0.3080 -0.4529 -0.7319
    9FTM    C10 1718   2.332   8.304  11.227  0.3996  0.2502  0.5839
    9FTM    C11 1719   2.048   8.272  10.686  0.3236 -0.5087 -0.9135
    9FTM    C12 1720   2.064   8.388  10.593  1.4654  0.7394  0.9701
   10TPM     C1 1721   1.689   7.826  11.537  0.4848  0.0923  0.2576
   10TPM     C2 1722   1.600   7.777  11.627  0.1496  0.3843  0.0890
   10TPM     C3 1723   1.597   7.850  11.752 -0.2070  0.6963 -0.0966
   10TPM     C4 1724   1.685   7.954  11.756 -0.1437  0.6421 -0.0695
   10TPM     S1 1725   1.778   7.969  11.603  0.3752  0.1894  0.1945
   11BDD     C1 1726   1.661   8.123  12.106  0.4480  0.4935  0.1230
   11BDD     C2 1727   1.766   8.036  12.114  0.3459  0.3717  0.1476
   11BDD     C3 1728   1.797   7.970  11.989  0.1822  0.1961  0.1977
   11BDD     C4 1729   1.715   8.008  11.886  0.1617  0.1868  0.2106
   11BDD     S1 1730   1.593   8.128  11.939  0.3461  0.3970  0.1609
   11BDD     C5 1731   1.842   8.010  12.238  0.3952  0.4120  0.1259
   11BDD     C6 1732   1.907   7.873  11.975  0.0519  0.0440  0.2310
   11BDD     O1 1733   1.934   7.816  11.867 -0.0893 -0.1072  0.2743
   11BDD     O2 1734   1.815   8.067  12.347  0.5364  0.5631  0.0827
   11BDD     C7 1735   1.983   7.847  12.099  0.1012  0.0843  0.2093
   11BDD     C8 1736   1.952   7.913  12.225  0.2650  0.2598  0.1592
   11BDD     C9 1737   2.034   7.875  12.328  0.2854  0.2691  0.1463
   11BDD     S2 1738   2.156   7.755  12.274  0.1011  0.0588  0.1960
   11BDD    C10 1739   2.088   7.760  12.108 -0.0008 -0.0376  0.2339
   11BDD    C11 1740   2.130   7.645  12.002  0.9118 -1.5102 -0.2224
   11BDD    C12 1741   2.239   7.674  11.896  0.7964 -0.7343  0.8694
   11BDD    C13 1742   2.200   7.628  11.750  0.1911  0.7835  0.4148
   11BDD    C14 1743   2.284   7.642  11.622  0.4049  0.5579  0.6024
   11BDD    C15 1744   2.262   7.767  11.538 -1.4727  0.7919 -0.0235
   11BDD    C16 1745   2.256   7.891  11.605  1.4494  0.6340  0.7347
   11BDD    C17 1746   2.382   7.662  11.945  0.1552  0.1868 -0.3961
   11BDD    C18 1747   2.500   7.726  11.871  0.0271 -0.2268  0.0857
   11BDD    C19 1748   2.066   7.945  12.465  1.7556  1.0301  0.2912
   11BDD    C20 1749   2.199   8.032  12.483 -0.2041 -0.7877 -1.0462
   11BDD    C21 1750   2.239   8.107  12.356 -0.3380 -1.1657 -0.1220
   11BDD    C22 1751   2.158   8.242  12.334 -0.9254  0.4856 -0.1976
   11BDD    C23 1752   2.118   8.326  12.449  0.6919  0.2379 -1.2329
   11BDD    C24 1753   2.049   8.470  12.456  0.4773  0.8168  0.7035
   11BDD    C25 1754   2.267   8.055  12.619 -0.1465  0.2420  0.4550
   11BDD    C26 1755   2.408   8.121  12.600  0.0439 -0.4312  0.1830
   12TPM     C1 1756   1.588   8.213  12.199  0.7359 -0.8561  0.2068
   12TPM     C2 1757   1.497   8.171  12.292  0.5516 -0.6685  0.1143
   12TPM     C3 1758   1.451   8.275  12.380  0.2540 -0.4566 -0.2872
   12TPM     C4 1759   1.507   8.397  12.354  0.2115 -0.4820 -0.5009
   12TPM     S1 1760   1.622   8.389  12.215  0.5465 -0.7786 -0.2094
   13BDTP    C1 1761   1.511   8.865  12.780 -0.4554 -0.2921  0.4177
   13BDTP    C2 1762   1.377   8.869  12.731 -0.3017 -0.0072  0.0130
   13BDTP    C3 1763   1.332   8.785  12.631 -0.1607  0.1369 -0.1728
   13BDTP    C4 1764   1.423   8.692  12.576 -0.1716 -0.0064  0.0503
   13BDTP    C5 1765   1.556   8.688  12.625 -0.3253 -0.2916  0.4550
   13BDTP    C6 1766   1.602   8.773  12.726 -0.4662 -0.4353  0.6409
   13BDTP    C7 1767   1.399   8.595  12.471 -0.0425  0.0983 -0.0778
   13BDTP    C8 1768   1.507   8.519  12.440 -0.0911 -0.0913  0.2075
   13BDTP    S1 1769   1.654   8.560  12.539 -0.3075 -0.4299  0.6786
   13BDTP    C9 1770   1.535   8.963  12.885 -0.5845 -0.3972  0.5459
   13BDTP   C10 1771   1.427   9.038  12.916 -0.5358 -0.2074  0.2606
   13BDTP    S2 1772   1.280   8.997  12.817 -0.3195  0.1313 -0.2105
   14FTM     S1 1773   1.116   8.740  12.433  0.4890  0.4376  0.1059
   14FTM     C1 1774   0.949   8.763  12.497  0.3976 -0.1631  0.0958
   14FTM     C2 1775   0.955   8.796  12.629  0.2720 -0.1597  0.1003
   14FTM     C3 1776   1.086   8.804  12.687  0.2399  0.2987  0.1117
   14FTM     C4 1777   1.184   8.778  12.596  0.3444  0.6583  0.1160
   14FTM     F1 1778   0.841   8.819  12.705  0.1786 -0.5715  0.0944
   14FTM     C5 1779   0.821   8.723  12.416  0.0516  0.4164 -0.7554
   14FTM     C6 1780   0.832   8.589  12.341  0.5105  0.5973 -0.2984
   14FTM     C7 1781   0.864   8.450  12.408 -0.3387 -1.6893 -1.5770
   14FTM     C8 1782   0.823   8.450  12.560  1.2113  1.2078  0.9944
   14FTM     C9 1783   0.674   8.410  12.590 -0.2445  0.1706 -0.2102
   14FTM    C10 1784   0.661   8.282  12.691 -0.5132 -0.0795 -0.1687
   14FTM    C11 1785   0.912   8.606  12.220 -0.0433  0.1809  0.4390
   14FTM    C12 1786   0.863   8.528  12.089  0.3506  0.3750  1.0215
   15FTM     S1 1787   1.849   8.907  12.811  0.0739  0.0343  0.4762
   15FTM     C1 1788   1.997   8.804  12.803  0.0715  0.0296  0.4889
   15FTM     C2 1789   1.961   8.675  12.775  0.0875  0.0761  0.2480
   15FTM     C3 1790   1.821   8.650  12.759  0.1023  0.1173  0.0439
   15FTM     C4 1791   1.747   8.763  12.775  0.0973  0.1016  0.1312
   15FTM     F1 1792   2.054   8.573  12.762  0.0898  0.0844  0.1982
   15FTM     C5 1793   2.129   8.876  12.817  0.4923  1.0100  0.3467
   15FTM     C6 1794   2.169   8.906  12.965  0.5133 -1.8142 -0.5266
   15FTM     C7 1795   2.152   9.052  13.011 -0.3131  0.3682  0.6373
   15FTM     C8 1796   2.257   9.160  12.978  1.1264  0.6819  0.8808
   15FTM     C9 1797   2.379   9.173  13.053 -0.6905  0.2401 -0.5148
   15FTM    C10 1798   2.389   9.245  13.178  0.1685  0.1767 -0.4698
   15FTM    C11 1799   2.184   8.782  13.063  0.1800 -0.2404 -1.0579
   15FTM    C12 1800   2.234   8.649  12.999 -0.1454  0.8697 -0.9577
   16TPM     C1 1801   1.421   9.131  13.034 -0.5228  0.6324 -0.3467
   16TPM     C2 1802   1.498   9.231  13.086 -0.8336  1.1549 -0.8733
   16TPM     C3 1803   1.435   9.302  13.195 -0.9523  1.3697 -1.0800
   16TPM     C4 1804   1.311   9.256  13.226 -0.7320  1.0107 -0.7110
   16TPM     S1 1805   1.263   9.118  13.119 -0.3546  0.3683 -0.0688
   17BDD     C1 1806   1.156   9.230  13.577 -0.2070 -0.1004 -0.2123
   17BDD     C2 1807   1.197   9.360  13.567 -0.1327 -0.1180 -0.1449
   17BDD     C3 1808   1.258   9.391  13.439  0.3572 -0.2196  0.0612
   17BDD     C4 1809   1.263   9.285  13.354  0.6495 -0.2773  0.1479
   17BDD     S1 1810   1.191   9.138  13.428  0.3314 -0.2089 -0.0224
   17BDD     C5 1811   1.181   9.461  13.674 -0.5095 -0.0429 -0.2674
   17BDD     C6 1812   1.310   9.526  13.406  0.5176 -0.2553  0.1646
   17BDD     O1 1813   1.363   9.553  13.296  0.9401 -0.3426  0.3423
   17BDD     O2 1814   1.128   9.434  13.784 -0.9320  0.0446 -0.4451
   17BDD     C7 1815   1.294   9.626  13.513  0.1408 -0.1798  0.0420
   17BDD     C8 1816   1.233   9.595  13.641 -0.3491 -0.0784 -0.1640
   17BDD     C9 1817   1.228   9.702  13.727 -0.6413 -0.0203 -0.2508
   17BDD     S2 1818   1.300   9.849  13.653 -0.3233 -0.0885 -0.0804
   17BDD    C10 1819   1.335   9.756  13.503  0.2151 -0.1974  0.1094
   17BDD    C11 1820   1.414   9.843  13.397 -1.0796  0.3480 -0.2078
   17BDD    C12 1821   1.369   9.965  13.336  0.9934 -0.6440  1.6533
   17BDD    C13 1822   1.240   9.912  13.247 -1.2133  1.1540  0.4345
   17BDD    C14 1823   1.232  10.000  13.127  0.3371  0.4166 -0.9025
   17BDD    C15 1824   1.103   9.975  13.045 -0.4069  0.3658  0.4530
   17BDD    C16 1825   1.027  10.109  13.046  0.3619 -0.5751 -0.3636
   17BDD    C17 1826   1.321  10.080  13.420  1.1683  0.4012  0.3392
   17BDD    C18 1827   1.245  10.211  13.382 -0.8761 -0.1880  1.4344
   17BDD    C19 1828   1.193   9.706  13.877  0.1000 -0.1328 -0.4814
   17BDD    C20 1829   1.084   9.824  13.916 -1.3462  0.3638 -0.0986
   17BDD    C21 1830   0.956   9.819  13.827 -0.0265  0.5217  1.8067
   17BDD    C22 1831   0.877   9.686  13.824  1.2150 -0.2006 -0.2794
   17BDD    C23 1832   0.795   9.644  13.950  1.5175 -0.0240 -0.1428
   17BDD    C24 1833   0.750   9.491  13.960 -1.1877 -0.9725 -0.5431
   17BDD    C25 1834   1.148   9.950  13.984  0.8490 -0.2613 -0.0726
   17BDD    C26 1835   1.059  10.036  14.077 -0.3260  1.0016 -1.3735
   18TPM     C1 1836   1.114   9.152  13.696 -0.6717 -0.5461 -0.5402
   18TPM     C2 1837   0.986   9.185  13.729 -0.6471 -0.8631 -0.1044
   18TPM     C3 1838   0.910   9.075  13.784 -0.0795 -0.9553  0.5198
   18TPM     C4 1839   0.980   8.959  13.793  0.3287 -0.7084  0.5602
   18TPM     S1 1840   1.149   8.979  13.733  0.0255 -0.3381 -0.1931
   19BDTP    C1 1841   0.754   8.429  14.062 -0.2446 -0.1342  0.4371
   19BDTP    C2 1842   0.869   8.383  13.992 -0.3210 -0.0381  0.2466
   19BDTP    C3 1843   0.951   8.468  13.919 -0.5170  0.0286  0.1020
   19BDTP    C4 1844   0.918   8.605  13.915 -0.6440 -0.0005  0.1470
   19BDTP    C5 1845   0.802   8.651  13.984 -0.5676 -0.0968  0.3375
   19BDTP    C6 1846   0.720   8.566  14.057 -0.3716 -0.1634  0.4822
   19BDTP    C7 1847   0.988   8.712  13.846 -0.8522  0.0557  0.0214
   19BDTP    C8 1848   0.931   8.834  13.860 -0.9349  0.0074  0.1073
   19BDTP    S1 1849   0.781   8.831  13.963 -0.7605 -0.1166  0.3595
   19BDTP    C9 1850   0.684   8.322  14.130 -0.0364 -0.1907  0.5628
   19BDTP   C10 1851   0.741   8.200  14.116  0.0463 -0.1423  0.4769
   19BDTP    S2 1852   0.890   8.203  14.013 -0.1280 -0.0183  0.2248
   20FTM     S1 1853   1.082   8.356  13.675 -0.7207 -0.4311 -0.3205
   20FTM     C1 1854   1.245   8.286  13.709 -0.5346 -0.1436 -0.6088
   20FTM     C2 1855   1.277   8.306  13.840 -0.3615 -0.1397 -0.6514
   20FTM     C3 1856   1.179   8.374  13.919 -0.3630 -0.3543 -0.4666
   20FTM     C4 1857   1.069   8.408  13.847 -0.5432 -0.5288 -0.2766
   20FTM     F1 1858   1.397   8.263  13.895 -0.1913  0.0596 -0.8599
   20FTM     C5 1859   1.339   8.239  13.605 -0.7393 -0.3518  0.1855
   20FTM     C6 1860   1.326   8.082  13.572  0.4611 -0.1546 -0.2610
   20FTM     C7 1861   1.243   8.090  13.435 -0.0817 -0.5530  0.1424
   20FTM     C8 1862   1.148   7.965  13.409  0.1509 -1.2691  1.2983
   20FTM     C9 1863   1.025   8.031  13.340 -0.2687  0.6424  0.3804
   20FTM    C10 1864   0.909   7.910  13.357 -0.3409 -0.4317 -0.8215
   20FTM    C11 1865   1.472   8.033  13.569  0.6398 -0.5630  0.6422
   20FTM    C12 1866   1.475   7.882  13.527 -0.1666  0.3399 -0.3187
   21FTM     S1 1867   0.568   8.621  14.307  0.1969 -0.1831  0.1292
   21FTM     C1 1868   0.406   8.695  14.281  0.1836 -0.0333  0.6308
   21FTM     C2 1869   0.381   8.707  14.148 -0.1125  0.2196  0.7080
   21FTM     C3 1870   0.484   8.662  14.060 -0.3416  0.3107  0.3895
   21FTM     C4 1871   0.591   8.612  14.128 -0.2168  0.1209  0.0576
   21FTM     F1 1872   0.263   8.761  14.098 -0.1937  0.3841  1.0717
   21FTM     C5 1873   0.321   8.722  14.408 -1.3625 -0.0507  0.3264
   21FTM     C6 1874   0.339   8.867  14.458 -1.0670  1.1412 -0.3084
   21FTM     C7 1875   0.297   8.960  14.352 -0.2634 -0.8817 -1.0745
   21FTM     C8 1876   0.145   8.957  14.314 -0.5011 -0.1931  0.6298
   21FTM     C9 1877   0.129   9.055  14.197 -0.6350 -0.9324  1.4743
   21FTM    C10 1878   0.179   9.203  14.195  0.2979  0.4616  1.2676
   21FTM    C11 1879   0.455   8.908  14.535 -0.3027  0.6985 -0.3169
   21FTM    C12 1880   0.452   8.859  14.691  0.5095 -0.1642  0.1300
   22TPM     C1 1881   0.696   8.078  14.181 -0.2058  0.2257 -0.1605
   22TPM     C2 1882   0.775   7.985  14.239 -0.5538  0.0298  0.0041
   22TPM     C3 1883   0.702   7.880  14.306 -0.9459  0.3910  0.1481
   22TPM     C4 1884   0.567   7.894  14.298 -0.8969  0.8621  0.0931
   22TPM     S1 1885   0.521   8.042  14.205 -0.3475  0.8860 -0.1465
   23BDD     C1 1886   0.353   7.577  14.389  0.1383 -0.1932  0.4272
   23BDD     C2 1887   0.298   7.682  14.456  0.1096 -0.1429  0.3254
   23BDD     C3 1888   0.370   7.807  14.436  0.2154 -0.1919  0.3941
   23BDD     C4 1889   0.478   7.795  14.353  0.3232 -0.2790  0.5470
   23BDD     S1 1890   0.498   7.626  14.295  0.2997 -0.3057  0.6157
   23BDD     C5 1891   0.178   7.672  14.542 -0.0161 -0.0479  0.1615
   23BDD     C6 1892   0.328   7.934  14.499  0.2056 -0.1507  0.3054
   23BDD     O1 1893   0.390   8.042  14.482  0.2968 -0.1929  0.3644
   23BDD     O2 1894   0.117   7.565  14.560 -0.1073 -0.0057  0.1025
   23BDD     C7 1895   0.208   7.924  14.585  0.0799 -0.0557  0.1415
   23BDD     C8 1896   0.137   7.799  14.605 -0.0258 -0.0067  0.0729
   23BDD     C9 1897   0.028   7.812  14.688 -0.1336  0.0803 -0.0800
   23BDD     S2 1898   0.008   7.980  14.746 -0.1102  0.1069 -0.1486
   23BDD    C10 1899   0.153   8.030  14.653  0.0512 -0.0050  0.0399
   23BDD    C11 1900   0.172   8.183  14.618 -0.1766  0.0825 -0.2490
   23BDD    C12 1901   0.203   8.304  14.716 -0.6351  1.5703 -1.1451
   23BDD    C13 1902   0.094   8.349  14.816  1.2426 -0.6412 -0.4782
   23BDD    C14 1903  -0.025   8.432  14.759  0.2801 -0.2141  0.4785
   23BDD    C15 1904  -0.146   8.356  14.733 -0.7509 -0.8399  0.9552
   23BDD    C16 1905  -0.261   8.368  14.843  0.0899  1.1018  0.0247
   23BDD    C17 1906   0.318   8.282  14.830  0.2634 -0.1537  0.2157
   23BDD    C18 1907   0.448   8.303  14.765 -0.1894  0.0315  0.4496
   23BDD    C19 1908  -0.063   7.727  14.771  0.6453  0.3294 -0.3150
   23BDD    C20 1909  -0.208   7.785  14.787  0.1590 -0.5876 -0.3804
   23BDD    C21 1910  -0.245   7.755  14.939  0.8640  1.3062 -1.6363
   23BDD    C22 1911  -0.367   7.833  15.010 -1.1278  0.5359 -0.4651
   23BDD    C23 1912  -0.336   7.985  15.002 -0.2806  0.3998 -0.6620
   23BDD    C24 1913  -0.456   8.054  15.060 -0.3505 -0.5791  0.1365
   23BDD    C25 1914  -0.314   7.734  14.695 -0.7020  0.7409 -0.2815
   23BDD    C26 1915  -0.330   7.579  14.665 -0.4110 -1.1996  0.2510
   24TPM     C1 1916   0.332   7.427  14.381 -0.1129 -0.0808 -0.4374
   24TPM     C2 1917   0.409   7.344  14.305 -0.0923  0.0491 -0.5601
   24TPM     C3 1918   0.354   7.213  14.288  0.2121 -0.1217 -0.2688
   24TPM     C4 1919   0.233   7.195  14.350  0.4236 -0.3822  0.0763
   24TPM     S1 1920   0.181   7.345  14.436  0.2535 -0.4319  0.0597
   25BDTP    C1 1921  -0.001   6.635  14.498  0.2018 -0.1258  0.0958
   25BDTP    C2 1922  -0.007   6.707  14.622  0.3247 -0.2840  0.1945
   25BDTP    C3 1923   0.034   6.839  14.633  0.1869 -0.2496  0.2881
   25BDTP    C4 1924   0.082   6.904  14.518 -0.0850 -0.0498  0.2846
   25BDTP    C5 1925   0.088   6.833  14.395 -0.2079  0.1085  0.1859
   25BDTP    C6 1926   0.047   6.700  14.383 -0.0701  0.0740  0.0923
   25BDTP    C7 1927   0.129   7.041  14.506 -0.2682  0.0225  0.3710
   25BDTP    C8 1928   0.170   7.074  14.381 -0.5196  0.2248  0.3425
   25BDTP    S1 1929   0.154   6.938  14.262 -0.5596  0.3524  0.2019
   25BDTP    C9 1930  -0.049   6.499  14.511  0.3851 -0.1980  0.0093
   25BDTP   C10 1931  -0.089   6.465  14.636  0.6363 -0.4004  0.0378
   25BDTP    S2 1932  -0.073   6.601  14.755  0.6766 -0.5279  0.1785
   26FTM     S1 1933  -0.050   7.042  14.830 -0.9726 -0.0594  0.4959
   26FTM     C1 1934   0.029   7.027  14.990 -0.3401  0.5149  0.2470
   26FTM     C2 1935   0.117   6.923  14.989 -0.0648  0.7461  0.1643
   26FTM     C3 1936   0.128   6.851  14.866 -0.3228  0.4966  0.2865
   26FTM     C4 1937   0.045   6.901  14.770 -0.8117  0.0602  0.4687
   26FTM     F1 1938   0.193   6.888  15.100  0.4368  1.1976 -0.0269
   26FTM     C5 1939   0.035   7.120  15.104  0.8280  0.1268 -0.6088
   26FTM     C6 1940   0.096   7.251  15.095 -0.0974 -1.9448 -0.4501
   26FTM     C7 1941   0.100   7.353  15.219  0.2619  0.1341 -1.0948
   26FTM     C8 1942   0.110   7.279  15.360  1.3172  0.1265  0.3868
   26FTM     C9 1943   0.118   7.365  15.475 -0.4588 -0.1723 -0.9807
   26FTM    C10 1944   0.010   7.471  15.513  0.2499 -0.7160 -0.6158
   26FTM    C11 1945   0.228   7.262  15.012  0.7111  1.2454  0.4876
   26FTM    C12 1946   0.290   7.379  14.944  0.8264  0.4204  1.2638
   27FTM     S1 1947  -0.036   6.497  14.208  0.0133  0.5778  0.1257
   27FTM     C1 1948   0.057   6.465  14.058  0.6364 -0.5389  0.7210
   27FTM     C2 1949   0.163   6.549  14.050  0.8934 -0.8593  0.7197
   27FTM     C3 1950   0.179   6.641  14.158  0.6282 -0.2706  0.2667
   27FTM     C4 1951   0.081   6.628  14.252  0.1520  0.5269 -0.0906
   27FTM     F1 1952   0.253   6.547  13.944  1.3843 -1.7049  1.1286
   27FTM     C5 1953   0.015   6.389  13.929 -0.5749  0.2848 -1.2349
   27FTM     C6 1954  -0.054   6.247  13.950  0.4342  1.0630  0.9022
   27FTM     C7 1955  -0.204   6.232  14.021 -0.9190  0.0234  0.2793
   27FTM     C8 1956  -0.328   6.308  13.985  0.0772  0.1602 -0.0629
   27FTM     C9 1957  -0.397   6.288  13.826  0.1491 -0.2101 -2.3943
   27FTM    C10 1958  -0.483   6.172  13.764 -0.5839 -1.2353  0.2808
   27FTM    C11 1959   0.057   6.159  14.021 -0.0231 -1.0883  1.4287
   27FTM    C12 1960   0.039   6.018  14.056  0.8493 -0.5075 -0.7996
   28TPM     C1 1961  -0.131   6.340  14.682  0.2740 -0.0713  0.6621
   28TPM     C2 1962  -0.248   6.302  14.741  0.2611 -0.0110  0.6756
   28TPM     C3 1963  -0.251   6.164  14.780 -0.0255 -0.1622  0.1364
   28TPM     C4 1964  -0.136   6.096  14.751 -0.2308 -0.3378 -0.2881
   28TPM     S1 1965  -0.015   6.203  14.672 -0.0771 -0.3259 -0.0380
   29BDD     C1 1966  -0.062   5.729  14.658 -0.1761  0.1678 -0.1431
   29BDD     C2 1967  -0.123   5.724  14.781 -0.0370  0.1559 -0.0740
   29BDD     C3 1968  -0.161   5.855  14.831  0.3765  0.1897  0.1633
   29BDD     C4 1969  -0.129   5.957  14.747  0.5466  0.2267  0.2718
   29BDD     S1 1970  -0.049   5.898  14.598  0.2012  0.2220  0.0843
   29BDD     C5 1971  -0.148   5.599  14.856 -0.2792  0.1130 -0.2237
   29BDD     C6 1972  -0.228   5.873  14.962  0.5872  0.1836  0.2737
   29BDD     O1 1973  -0.261   5.986  15.005  0.9437  0.2126  0.4783
   29BDD     O2 1974  -0.114   5.487  14.812 -0.6356  0.0842 -0.4283
   29BDD     C7 1975  -0.253   5.748  15.037  0.3450  0.1407  0.1241
   29BDD     C8 1976  -0.215   5.618  14.986 -0.0682  0.1073 -0.1132
   29BDD     C9 1977  -0.247   5.515  15.071 -0.2382  0.0700 -0.2217
   29BDD     S2 1978  -0.327   5.575  15.219  0.1072  0.0745 -0.0342
   29BDD    C10 1979  -0.314   5.743  15.159  0.4842  0.1286  0.1931
   29BDD    C11 1980  -0.393   5.843  15.228 -0.1855  0.5023 -1.6726
   29BDD    C12 1981  -0.540   5.832  15.222 -0.1287  1.3818  0.3557
   29BDD    C13 1982  -0.618   5.910  15.334 -0.2313  0.3288  0.4677
   29BDD    C14 1983  -0.604   5.889  15.485  0.0758 -0.0331  0.1685
   29BDD    C15 1984  -0.480   5.890  15.562 -0.9102  1.0772  0.5002
   29BDD    C16 1985  -0.450   6.028  15.631 -0.0891 -0.4544 -0.0630
   29BDD    C17 1986  -0.606   5.799  15.084 -1.6771 -0.2987 -0.7210
   29BDD    C18 1987  -0.721   5.710  15.112 -0.3813 -0.9350  0.1782
   29BDD    C19 1988  -0.209   5.368  15.067 -0.4251  0.3651 -0.3031
   29BDD    C20 1989  -0.326   5.274  15.053 -1.2693 -0.0275 -0.0251
   29BDD    C21 1990  -0.390   5.265  14.919  0.6029  0.0791 -0.5334
   29BDD    C22 1991  -0.521   5.206  14.883  0.3185  0.4667 -0.0232
   29BDD    C23 1992  -0.514   5.234  14.729 -0.3642 -0.5458 -1.2824
   29BDD    C24 1993  -0.611   5.162  14.635  0.5359 -0.6440 -1.9560
   29BDD    C25 1994  -0.326   5.155  15.144  0.6645 -0.3237 -1.1278
   29BDD    C26 1995  -0.288   5.172  15.295 -0.1422  0.2993 -1.2177
   30TPM     C1 1996   0.000   5.628  14.564  0.2069  1.0774 -0.2622
   30TPM     C2 1997  -0.054   5.503  14.555  0.2921  0.9876  0.3646
   30TPM     C3 1998   0.009   5.420  14.456  0.0031  0.7153  0.4070
   30TPM     C4 1999   0.111   5.481  14.390 -0.3024  0.5973 -0.1874
   30TPM     S1 2000   0.136   5.650  14.448 -0.2483  0.8231 -0.8520
   31BDTP    C1 2001   0.441   5.269  13.898  0.6783 -0.2288 -0.3295
   31BDTP    C2 2002   0.470   5.408  13.898  0.5063 -0.1925 -0.3612
   31BDTP    C3 2003   0.418   5.495  13.993  0.3695 -0.2284 -0.4028
   31BDTP    C4 2004   0.334   5.442  14.093  0.4036 -0.3033 -0.4136
   31BDTP    C5 2005   0.305   5.303  14.092  0.5755 -0.3396 -0.3820
   31BDTP    C6 2006   0.357   5.216  13.997  0.7124 -0.3038 -0.3406
   31BDTP    C7 2007   0.268   5.512  14.201  0.2830 -0.3518 -0.4545
   31BDTP    C8 2008   0.193   5.433  14.281  0.3551 -0.4216 -0.4552
   31BDTP    S1 2009   0.194   5.259  14.230  0.5860 -0.4361 -0.4041
   31BDTP    C9 2010   0.506   5.198  13.789  0.7989 -0.1804 -0.2887
   31BDTP   C10 2011   0.582   5.277  13.709  0.7267 -0.1104 -0.2880
   31BDTP    S2 2012   0.581   5.452  13.760  0.4959 -0.0961 -0.3393
   32FTM     S1 2013   0.362   5.784  13.958 -0.0831 -0.3385 -0.4087
   32FTM     C1 2014   0.491   5.896  14.015 -0.9748  0.4384  0.1414
   32FTM     C2 2015   0.598   5.825  14.059 -0.6525  1.0725  0.4014
   32FTM     C3 2016   0.587   5.683  14.052  0.2847  0.9946  0.1938
   32FTM     C4 2017   0.467   5.643  14.001  0.6935  0.2776 -0.2393
   32FTM     F1 2018   0.713   5.886  14.109 -1.1872  1.7611  0.8429
   32FTM     C5 2019   0.484   6.046  13.995  0.1052  1.2511 -0.1285
   32FTM     C6 2020   0.528   6.080  13.854 -0.3823  0.1049 -0.1688
   32FTM     C7 2021   0.426   6.114  13.743 -0.7405 -0.6255  0.1322
   32FTM     C8 2022   0.308   6.026  13.737 -0.2313  0.6482 -0.3501
   32FTM     C9 2023   0.216   6.048  13.610  0.1469 -0.6654  1.4476
   32FTM    C10 2024   0.149   5.934  13.523  0.8772 -0.9275  0.1270
   32FTM    C11 2025   0.686   6.082  13.835  0.7022 -0.3151  0.1450
   32FTM    C12 2026   0.747   6.221  13.794 -0.3820  1.0535 -0.5969
   33FTM     S1 2027   0.293   4.976  14.149 -0.2700 -0.1978 -0.0595
   33FTM     C1 2028   0.230   4.839  14.049  0.2803 -0.2874 -0.2907
   33FTM     C2 2029   0.229   4.875  13.918  0.7655 -0.3132 -0.3055
   33FTM     C3 2030   0.276   5.007  13.887  0.7396 -0.2661 -0.1419
   33FTM     C4 2031   0.314   5.075  13.999  0.2176 -0.2023  0.0029
   33FTM     F1 2032   0.186   4.790  13.817  1.2619 -0.3809 -0.4682
   33FTM     C5 2033   0.219   4.703  14.089  1.7753 -0.1293  0.7984
   33FTM     C6 2034   0.344   4.619  14.115 -0.4730 -0.4527 -0.4380
   33FTM     C7 2035   0.408   4.634  14.260  0.3000  0.4275  1.1591
   33FTM     C8 2036   0.305   4.628  14.376  0.9457  0.2282 -0.3944
   33FTM     C9 2037   0.349   4.541  14.485 -0.8979  0.7764 -0.4079
   33FTM    C10 2038   0.369   4.390  14.450  0.5868  0.5007  0.4328
   33FTM    C11 2039   0.434   4.582  13.986  0.4616  0.3220 -0.7560
   33FTM    C12 2040   0.377   4.536  13.855  0.0192  0.1998  0.7297
   34TPM     C1 2041   0.661   5.247  13.601  0.2901  0.3136  0.4479
   34TPM     C2 2042   0.693   5.325  13.494  0.8947  0.5262  0.7781
   34TPM     C3 2043   0.793   5.268  13.408  0.7576  0.3046  0.7648
   34TPM     C4 2044   0.837   5.145  13.449  0.0484 -0.0767  0.4242
   34TPM     S1 2045   0.755   5.093  13.601 -0.5056 -0.1865  0.0915
   35BDD     C1 2046   1.167   4.947  13.368 -0.1714 -0.1309 -0.3989
   35BDD     C2 2047   1.146   5.022  13.255 -0.2881 -0.1030 -0.3584
   35BDD     C3 2048   1.026   5.104  13.263 -0.3256 -0.1668 -0.2470
   35BDD     C4 2049   0.958   5.091  13.381 -0.2371 -0.2425 -0.2041
   35BDD     S1 2050   1.039   4.975  13.491 -0.1006 -0.2390 -0.3002
   35BDD     C5 2051   1.234   5.020  13.137 -0.3693 -0.0165 -0.4206
   35BDD     C6 2052   0.984   5.193  13.152 -0.4481 -0.1502 -0.1871
   35BDD     O1 2053   0.881   5.264  13.158 -0.4805 -0.2054 -0.0910
   35BDD     O2 2054   1.337   4.949  13.131 -0.3369  0.0386 -0.5167
   35BDD     C7 2055   1.072   5.191  13.034 -0.5293 -0.0639 -0.2493
   35BDD     C8 2056   1.192   5.109  13.027 -0.4917  0.0000 -0.3607
   35BDD     C9 2057   1.260   5.122  12.909 -0.5802  0.0758 -0.4036
   35BDD     S2 2058   1.179   5.238  12.798 -0.7168  0.0725 -0.3074
   35BDD    C10 2059   1.051   5.266  12.921 -0.6459 -0.0358 -0.2089
   35BDD    C11 2060   0.949   5.377  12.892  0.3755 -0.3066 -0.0953
   35BDD    C12 2061   0.891   5.396  12.745  0.6162  1.4707 -0.5888
   35BDD    C13 2062   0.820   5.259  12.680 -1.4619 -1.3381  1.0140
   35BDD    C14 2063   0.713   5.195  12.752  1.2117  0.6298  1.8883
   35BDD    C15 2064   0.592   5.113  12.687  0.3902  0.0119  1.0181
   35BDD    C16 2065   0.489   5.218  12.646  0.7347 -0.8248  0.0050
   35BDD    C17 2066   0.978   5.466  12.643 -1.0558 -0.0274  0.5888
   35BDD    C18 2067   0.930   5.568  12.544 -0.4510  0.7424 -1.4022
   35BDD    C19 2068   1.398   5.088  12.838  1.3926  0.8554 -1.0819
   35BDD    C20 2069   1.514   5.098  12.935 -0.2407 -1.6329  0.0233
   35BDD    C21 2070   1.530   5.259  12.943  0.6098 -0.7564 -0.2341
   35BDD    C22 2071   1.633   5.315  13.037  0.2350  0.3991 -0.6441
   35BDD    C23 2072   1.636   5.257  13.172 -0.6015  0.4484 -0.9016
   35BDD    C24 2073   1.533   5.334  13.255  1.1544 -0.2288 -0.5334
   35BDD    C25 2074   1.631   4.998  12.905  0.2519  0.0067  0.8602
   35BDD    C26 2075   1.572   4.856  12.921 -0.2921 -0.9556 -0.2204
   36TPM     C1 2076   1.286   4.860  13.409 -0.0421  0.6002  0.0143
   36TPM     C2 2077   1.269   4.725  13.411  0.0951  0.5850  0.4928
   36TPM     C3 2078   1.393   4.651  13.408  0.1824  0.6952  1.1063
   36TPM     C4 2079   1.504   4.730  13.404  0.1118  0.7944  1.0955
   36TPM     S1 2080   1.461   4.905  13.404 -0.0719  0.7562  0.3037
   37BDTP    C1 2081   2.130   4.672  13.464 -0.1155  0.2491  0.2400
   37BDTP    C2 2082   2.083   4.551  13.522  0.0449  0.1616  0.1891
   37BDTP    C3 2083   1.948   4.520  13.532  0.0867 -0.0359  0.1481
   37BDTP    C4 2084   1.855   4.613  13.482 -0.0352 -0.1527  0.1578
   37BDTP    C5 2085   1.902   4.734  13.423 -0.1956 -0.0651  0.2087
   37BDTP    C6 2086   2.037   4.765  13.413 -0.2374  0.1324  0.2496
   37BDTP    C7 2087   1.710   4.602  13.481 -0.0208 -0.3603  0.1215
   37BDTP    C8 2088   1.647   4.708  13.425 -0.1608 -0.4318  0.1425
   37BDTP    S1 2089   1.762   4.836  13.365 -0.3306 -0.2464  0.2111
   37BDTP    C9 2090   2.274   4.682  13.465 -0.1300  0.4567  0.2761
   37BDTP   C10 2091   2.337   4.576  13.520  0.0101  0.5283  0.2552
   37BDTP    S2 2092   2.222   4.448  13.580  0.1799  0.3428  0.1866
   38FTM     S1 2093   1.808   4.288  13.455 -0.1460  0.1654 -0.0026
   38FTM     C1 2094   1.799   4.152  13.572  0.2237  0.4397  0.3477
   38FTM     C2 2095   1.867   4.184  13.686  0.2028  0.8833  0.2367
   38FTM     C3 2096   1.928   4.314  13.688 -0.0947  1.0337 -0.1187
   38FTM     C4 2097   1.907   4.383  13.573 -0.3086  0.6938 -0.2855
   38FTM     F1 2098   1.877   4.098  13.794  0.4518  1.1801  0.4505
   38FTM     C5 2099   1.747   4.014  13.544  0.0388  0.1425 -0.1572
   38FTM     C6 2100   1.840   3.886  13.571  0.0632  0.6598 -0.4361
   38FTM     C7 2101   1.972   3.870  13.481 -1.4782  1.3581 -2.0465
   38FTM     C8 2102   1.966   3.864  13.334 -0.7584 -1.2240  0.3403
   38FTM     C9 2103   2.101   3.913  13.279 -0.2319  0.2305 -0.4044
   38FTM    C10 2104   2.119   3.889  13.136  0.2107 -0.3171  0.8673
   38FTM    C11 2105   1.765   3.765  13.619 -0.2047 -0.8505 -0.3465
   38FTM    C12 2106   1.854   3.643  13.672 -0.5254  0.2420 -1.1620
   39FTM     S1 2107   2.020   4.943  13.201 -0.3926  0.0973 -0.5845
   39FTM     C1 2108   2.142   5.075  13.193  0.2386 -0.5009 -1.0770
   39FTM     C2 2109   2.224   5.069  13.302  0.2190 -0.4987 -1.0620
   39FTM     C3 2110   2.198   4.963  13.395 -0.2760 -0.0427 -0.6759
   39FTM     C4 2111   2.092   4.887  13.357 -0.6477  0.3158 -0.3858
   39FTM     F1 2112   2.328   5.158  13.323  0.6483 -0.9093 -1.3970
   39FTM     C5 2113   2.154   5.161  13.067  0.0161 -0.0839 -0.4205
   39FTM     C6 2114   2.101   5.137  12.938  0.2652 -0.3221  0.5025
   39FTM     C7 2115   2.112   4.999  12.872  0.0097  1.3432  0.2427
   39FTM     C8 2116   2.254   4.974  12.810  0.3002  0.1115  0.2512
   39FTM     C9 2117   2.241   4.825  12.753 -1.3091 -0.8484 -0.8039
   39FTM    C10 2118   2.371   4.782  12.689  0.2454  0.4040 -0.4040
   39FTM    C11 2119   1.981   5.205  12.871  0.4337 -0.0017 -0.5324
   39FTM    C12 2120   2.006   5.355  12.854 -0.1091  1.1926 -0.3389
   40TPM     C1 2121   2.474   4.556  13.541  0.1262  0.4858  0.0191
   40TPM     C2 2122   2.573   4.648  13.523  0.4817  0.0381 -0.3625
   40TPM     C3 2123   2.697   4.613  13.589  0.4644 -0.3384 -0.5243
   40TPM     C4 2124   2.691   4.495  13.657  0.0959 -0.1779 -0.2661
   40TPM     S1 2125   2.529   4.418  13.643 -0.2608  0.4662  0.2051
   41BDD     C1 2126   3.023   4.470  13.853  0.0942 -0.0439 -0.2614
   41BDD     C2 2127   3.012   4.356  13.778 -0.0786 -0.0765 -0.1868
   41BDD     C3 2128   2.887   4.346  13.705 -0.2604 -0.1196  0.1233
   41BDD     C4 2129   2.804   4.454  13.724 -0.2235 -0.1190  0.2808
   41BDD     S1 2130   2.877   4.574  13.836  0.0412 -0.0645  0.0515
   41BDD     C5 2131   3.116   4.251  13.772 -0.0830 -0.0696 -0.3979
   41BDD     C6 2132   2.854   4.231  13.618 -0.4641 -0.1595  0.2524
   41BDD     O1 2133   2.746   4.223  13.554 -0.6208 -0.1966  0.5198
   41BDD     O2 2134   3.223   4.259  13.836  0.0737 -0.0327 -0.6653
   41BDD     C7 2135   2.958   4.127  13.612 -0.4685 -0.1526  0.0411
   41BDD     C8 2136   3.083   4.136  13.685 -0.2866 -0.1097 -0.2690
   41BDD     C9 2137   3.165   4.028  13.666 -0.3236 -0.1103 -0.4264
   41BDD     S2 2138   3.092   3.908  13.555 -0.5884 -0.1647 -0.1971
   41BDD    C10 2139   2.947   4.012  13.538 -0.6413 -0.1853  0.1158
   41BDD    C11 2140   2.842   3.966  13.444  0.4349 -1.2387  0.7230
   41BDD    C12 2141   2.745   3.856  13.475  0.8961  0.1813  0.9984
   41BDD    C13 2142   2.627   3.876  13.580 -0.4685 -0.4278 -0.5409
   41BDD    C14 2143   2.500   3.799  13.596 -0.1545 -0.8137 -0.9288
   41BDD    C15 2144   2.429   3.867  13.709  0.7573  1.1607 -0.7047
   41BDD    C16 2145   2.350   3.764  13.799  0.0704  0.7614  0.0419
   41BDD    C17 2146   2.764   3.693  13.470  0.3338 -0.1987 -0.8479
   41BDD    C18 2147   2.856   3.628  13.364 -0.4229  0.7039 -0.0234
   41BDD    C19 2148   3.321   4.000  13.695  0.0764  0.6457  0.2411
   41BDD    C20 2149   3.352   3.905  13.810 -1.1474 -0.7717  0.7535
   41BDD    C21 2150   3.262   3.804  13.866 -0.6467  1.2548 -1.0346
   41BDD    C22 2151   3.336   3.697  13.957  0.0285  0.0229 -0.1286
   41BDD    C23 2152   3.273   3.703  14.097 -1.4899 -0.3551 -0.0800
   41BDD    C24 2153   3.189   3.593  14.125  0.9352 -0.4282 -0.0279
   41BDD    C25 2154   3.496   3.930  13.868  0.7631 -2.4916 -0.0912
   41BDD    C26 2155   3.492   4.062  13.967 -0.4275  0.5707  0.9254
   42TPM     C1 2156   3.125   4.541  13.932 -0.0283 -0.3675  0.2809
   42TPM     C2 2157   3.170   4.501  14.054 -0.1349 -0.4750  0.2849
   42TPM     C3 2158   3.266   4.590  14.113  0.0663 -0.6984  0.2976
   42TPM     C4 2159   3.295   4.699  14.036  0.3264 -0.7616  0.3033
   42TPM     S1 2160   3.202   4.696  13.881  0.3374 -0.5417  0.2930
   43BDTP    C1 2161   3.800   5.060  14.121  0.1873  0.1985 -0.1241
   43BDTP    C2 2162   3.785   5.055  13.979  0.1733  0.0435 -0.1183
   43BDTP    C3 2163   3.679   4.991  13.916  0.1679 -0.0267 -0.0381
   43BDTP    C4 2164   3.582   4.929  13.997  0.1768  0.0602  0.0401
   43BDTP    C5 2165   3.597   4.933  14.139  0.1909  0.2152  0.0343
   43BDTP    C6 2166   3.703   4.997  14.201  0.1963  0.2852 -0.0459
   43BDTP    C7 2167   3.464   4.857  13.955  0.1737  0.0123  0.1307
   43BDTP    C8 2168   3.390   4.807  14.057  0.1844  0.1225  0.1922
   43BDTP    S1 2169   3.459   4.845  14.221  0.2002  0.3023  0.1442
   43BDTP    C9 2170   3.918   5.132  14.163  0.1905  0.2462 -0.2146
   43BDTP   C10 2171   3.992   5.181  14.061  0.1796  0.1360 -0.2761
   43BDTP    S2 2172   3.923   5.143  13.897  0.1640 -0.0439 -0.2282
   44FTM     S1 2173   3.604   4.817  13.697 -0.3048 -0.1369  0.0925
   44FTM     C1 2174   3.640   4.873  13.529  0.3346 -0.2397  0.1907
   44FTM     C2 2175   3.699   4.996  13.533  0.3512 -0.2513  0.3402
   44FTM     C3 2176   3.719   5.053  13.663 -0.1209 -0.1827  0.3864
   44FTM     C4 2177   3.674   4.971  13.762 -0.5118 -0.1165  0.2683
   44FTM     F1 2178   3.738   5.064  13.418  0.7949 -0.3246  0.4443
   44FTM     C5 2179   3.617   4.782  13.401 -0.0835 -0.2739  0.9757
   44FTM     C6 2180   3.620   4.633  13.418  0.3895 -0.2370 -0.2512
   44FTM     C7 2181   3.730   4.565  13.337 -0.2073  0.0875  0.0169
   44FTM     C8 2182   3.842   4.548  13.420 -0.5534 -0.5274  0.5709
   44FTM     C9 2183   3.963   4.488  13.338  0.2648  0.3452  0.5791
   44FTM    C10 2184   4.083   4.440  13.432  1.1316  0.0650 -0.6652
   44FTM    C11 2185   3.483   4.555  13.421 -0.1309 -0.8020  0.1556
   44FTM    C12 2186   3.350   4.614  13.474 -0.1504  1.3022 -0.5466
   45FTM     S1 2187   3.594   5.006  14.483 -0.3720 -0.1957  0.1256
   45FTM     C1 2188   3.721   4.972  14.606 -0.2244 -0.1205 -0.0047
   45FTM     C2 2189   3.839   4.945  14.545 -0.4042 -0.6136 -0.1495
   45FTM     C3 2190   3.839   4.950  14.401 -0.6613 -1.0691 -0.1673
   45FTM     C4 2191   3.716   4.981  14.352 -0.6791 -0.9197 -0.0319
   45FTM     F1 2192   3.955   4.915  14.614 -0.3464 -0.6819 -0.2742
   45FTM     C5 2193   3.688   4.977  14.755  0.7777  0.5979 -0.1923
   45FTM     C6 2194   3.703   5.115  14.830  0.9455 -0.6247  0.1882
   45FTM     C7 2195   3.620   5.233  14.766 -0.1317  0.5598 -0.1380
   45FTM     C8 2196   3.662   5.335  14.679 -0.6858  0.5083  0.9516
   45FTM     C9 2197   3.566   5.363  14.562 -0.3983  0.9868 -0.6366
   45FTM    C10 2198   3.600   5.478  14.467  0.1793  0.9813  0.1278
   45FTM    C11 2199   3.679   5.106  14.984  0.6551 -0.8074 -0.3943
   45FTM    C12 2200   3.538   5.102  15.054  0.1333 -0.3151 -0.4749
   46TPM     C1 2201   4.127   5.240  14.063 -0.5396 -0.4676  0.1299
   46TPM     C2 2202   4.185   5.327  13.976 -1.2000  0.2383  0.3730
   46TPM     C3 2203   4.318   5.367  14.014 -1.5056  1.1880  0.4998
   46TPM     C4 2204   4.362   5.310  14.131 -1.0782  1.2062  0.3537
   46TPM     S1 2205   4.237   5.201  14.201 -0.2502  0.0161  0.0418
   47BDD     C1 2206   4.743   5.268  14.154 -0.1693 -0.0089 -0.2604
   47BDD     C2 2207   4.713   5.382  14.224 -0.1233 -0.0048 -0.2473
   47BDD     C3 2208   4.571   5.413  14.225 -0.1211  0.0032 -0.1683
   47BDD     C4 2209   4.495   5.323  14.155 -0.1655  0.0050 -0.1222
   47BDD     S1 2210   4.596   5.193  14.084 -0.2131 -0.0033 -0.1745
   47BDD     C5 2211   4.813   5.466  14.293 -0.0795 -0.0077 -0.3070
   47BDD     C6 2212   4.516   5.531  14.294 -0.0751  0.0091 -0.1412
   47BDD     O1 2213   4.393   5.557  14.295 -0.0731  0.0159 -0.0730
   47BDD     O2 2214   4.935   5.439  14.292 -0.0815 -0.0145 -0.3752
   47BDD     C7 2215   4.616   5.615  14.363 -0.0315  0.0058 -0.2009
   47BDD     C8 2216   4.758   5.584  14.362 -0.0336 -0.0021 -0.2800
   47BDD     C9 2217   4.833   5.674  14.432  0.0107 -0.0038 -0.3261
   47BDD     S2 2218   4.732   5.804  14.503  0.0584  0.0047 -0.2737
   47BDD    C10 2219   4.585   5.728  14.433  0.0145  0.0101 -0.1879
   47BDD    C11 2220   4.476   5.825  14.460 -0.1911 -0.2749  0.2548
   47BDD    C12 2221   4.338   5.763  14.507 -0.1373  0.2240  0.0650
   47BDD    C13 2222   4.208   5.817  14.415 -0.9754 -0.8717 -1.7610
   47BDD    C14 2223   4.118   5.917  14.483 -0.6514  0.7013  1.0819
   47BDD    C15 2224   3.978   5.899  14.421 -1.0403 -0.4818 -0.3503
   47BDD    C16 2225   3.877   5.978  14.507 -0.5572 -0.3404 -0.5683
   47BDD    C17 2226   4.340   5.732  14.652 -0.7302  0.3165 -0.4428
   47BDD    C18 2227   4.226   5.677  14.738 -0.4437  1.1510  0.4979
   47BDD    C19 2228   4.966   5.694  14.494 -0.2945 -0.1583 -0.7502
   47BDD    C20 2229   5.022   5.575  14.556 -0.1193  1.5134 -0.1049
   47BDD    C21 2230   4.988   5.502  14.689 -0.8029 -0.8000 -1.0051
   47BDD    C22 2231   4.846   5.453  14.698 -0.3504  0.4906 -1.2775
   47BDD    C23 2232   4.850   5.344  14.786  0.9058  1.4112 -0.6976
   47BDD    C24 2233   4.725   5.248  14.777 -0.6997 -0.5994  0.8234
   47BDD    C25 2234   5.187   5.562  14.530  1.4952  0.6549  0.0324
   47BDD    C26 2235   5.247   5.563  14.401  0.0736  0.1668  0.1424
   48TPM     C1 2236   4.865   5.191  14.157 -0.2876  0.3836  0.8928
   48TPM     C2 2237   4.895   5.095  14.249 -0.3257 -0.1601  0.3495
   48TPM     C3 2238   5.033   5.054  14.247 -0.3089 -0.0970  0.2137
   48TPM     C4 2239   5.108   5.119  14.154 -0.2579  0.4949  0.6534
   48TPM     S1 2240   5.010   5.237  14.060 -0.2269  1.0226  1.2780
   49BDTP    C1 2241   5.573   4.736  13.963  0.2526 -0.2400  0.1527
   49BDTP    C2 2242   5.636   4.863  13.949  0.0101 -0.1640 -0.3092
   49BDTP    C3 2243   5.572   4.983  13.979 -0.1607 -0.1866 -0.5766
   49BDTP    C4 2244   5.439   4.977  14.025 -0.0892 -0.2887 -0.3798
   49BDTP    C5 2245   5.376   4.850  14.039  0.1534 -0.3649  0.0821
   49BDTP    C6 2246   5.440   4.730  14.008  0.3243 -0.3422  0.3494
   49BDTP    C7 2247   5.353   5.087  14.062 -0.2339 -0.3307 -0.5891
   49BDTP    C8 2248   5.229   5.049  14.103 -0.1132 -0.4328 -0.3104
   49BDTP    S1 2249   5.205   4.869  14.099  0.2005 -0.4908  0.2565
   49BDTP    C9 2250   5.660   4.626  13.925  0.3973 -0.1981  0.3620
   49BDTP   C10 2251   5.783   4.664  13.885  0.2768 -0.0960  0.0833
   49BDTP    S2 2252   5.807   4.844  13.889 -0.0371 -0.0380 -0.4837
   50FTM     S1 2253   5.649   5.213  14.147 -0.1059 -0.0374 -0.3450
   50FTM     C1 2254   5.746   5.335  14.058 -0.4505 -0.2442 -1.0177
   50FTM     C2 2255   5.774   5.290  13.933 -0.9835 -0.5167 -1.0456
   50FTM     C3 2256   5.723   5.160  13.900 -1.1522 -0.5796 -0.5575
   50FTM     C4 2257   5.654   5.104  14.003 -0.7348 -0.3479 -0.1421
   50FTM     F1 2258   5.848   5.364  13.841 -1.3499 -0.7252 -1.5150
   50FTM     C5 2259   5.755   5.482  14.118  0.9675 -0.5927 -0.6084
   50FTM     C6 2260   5.833   5.491  14.253  0.2667  0.2218 -0.2685
   50FTM     C7 2261   5.801   5.600  14.360 -0.3273 -0.5240  0.1909
   50FTM     C8 2262   5.670   5.566  14.434 -0.4463 -0.1324  0.1703
   50FTM     C9 2263   5.654   5.645  14.552 -0.9435  0.2560 -1.4149
   50FTM    C10 2264   5.554   5.590  14.660  0.9585  0.4943  0.9314
   50FTM    C11 2265   5.961   5.405  14.277 -0.5967 -1.3448 -0.0408
   50FTM    C12 2266   6.076   5.412  14.170 -1.1959  0.4119 -0.7850
   51FTM     S1 2267   5.284   4.535  13.898 -0.1216 -0.1868 -0.3003
   51FTM     C1 2268   5.253   4.384  13.992 -0.8096  0.3060  0.2911
   51FTM     C2 2269   5.315   4.391  14.113 -1.2630  0.7280  0.5066
   51FTM     C3 2270   5.389   4.512  14.139 -1.1067  0.6948  0.2318
   51FTM     C4 2271   5.383   4.600  14.035 -0.5143  0.2321 -0.2086
   51FTM     F1 2272   5.309   4.289  14.206 -1.8467  1.1693  0.9657
   51FTM     C5 2273   5.209   4.258  13.907  0.1817 -0.5420 -0.2505
   51FTM     C6 2274   5.284   4.133  13.884  0.2756  0.8460 -0.3680
   51FTM     C7 2275   5.431   4.125  13.891 -0.1270 -0.6887 -0.0148
   51FTM     C8 2276   5.495   4.228  13.791 -1.5812  0.6894 -0.4446
   51FTM     C9 2277   5.662   4.197  13.798  0.8519  0.3670 -0.4623
   51FTM    C10 2278   5.722   4.237  13.941 -0.5956 -1.2271  0.0887
   51FTM    C11 2279   5.206   4.038  13.798 -0.0389 -0.1439  0.9610
   51FTM    C12 2280   5.246   3.902  13.797 -0.5950 -0.0427 -1.1876
   52TPM     C1 2281   5.882   4.580  13.825 -0.0317  0.2079  0.1563
   52TPM     C2 2282   6.017   4.585  13.843 -0.0889 -0.1969  0.7666
   52TPM     C3 2283   6.091   4.507  13.747  0.1036 -0.5883  1.2308
   52TPM     C4 2284   6.012   4.442  13.657  0.3076 -0.4821  0.9744
   52TPM     S1 2285   5.837   4.475  13.685  0.2721  0.1254  0.1201
   53BDD     C1 2286   6.200   4.303  13.339 -0.5999  0.2039 -0.3020
   53BDD     C2 2287   6.150   4.198  13.411 -0.2778  0.1574 -0.1457
   53BDD     C3 2288   6.084   4.239  13.534  0.1649  0.0873  0.1196
   53BDD     C4 2289   6.085   4.374  13.553  0.1735  0.0812  0.1617
   53BDD     S1 2290   6.167   4.460  13.419 -0.3716  0.1631 -0.1277
   53BDD     C5 2291   6.162   4.056  13.370 -0.3648  0.1760 -0.2346
   53BDD     C6 2292   6.024   4.142  13.628  0.5629  0.0286  0.3216
   53BDD     O1 2293   5.967   4.177  13.734  0.9444 -0.0321  0.5504
   53BDD     O2 2294   6.219   4.021  13.265 -0.7465  0.2364 -0.4633
   53BDD     C7 2295   6.035   4.000  13.587  0.4759  0.0470  0.2328
   53BDD     C8 2296   6.101   3.959  13.464  0.0333  0.1172 -0.0325
   53BDD     C9 2297   6.101   3.824  13.445  0.0246  0.1231 -0.0747
   53BDD     S2 2298   6.018   3.738  13.579  0.5696  0.0412  0.2148
   53BDD    C10 2299   5.986   3.895  13.659  0.7980  0.0004  0.3890
   53BDD    C11 2300   5.868   3.891  13.760 -0.8437 -0.1359  0.5842
   53BDD    C12 2301   5.779   3.775  13.835 -0.7607 -0.9310 -0.5720
   53BDD    C13 2302   5.810   3.755  13.982 -0.8239 -0.1343  0.7550
   53BDD    C14 2303   5.925   3.670  14.028  0.8677 -1.4559  0.4328
   53BDD    C15 2304   6.040   3.749  14.105 -1.0339 -0.1136  0.7297
   53BDD    C16 2305   6.142   3.847  14.044 -1.4094  1.3928 -0.1151
   53BDD    C17 2306   5.719   3.649  13.760  1.7662 -0.3342  0.0542
   53BDD    C18 2307   5.585   3.616  13.843 -1.1803  0.9149  1.3926
   53BDD    C19 2308   6.142   3.720  13.336 -0.7225  0.4927 -0.3166
   53BDD    C20 2309   6.059   3.689  13.214  0.4440 -1.4670 -0.5266
   53BDD    C21 2310   6.121   3.617  13.096 -0.5421  0.9519  1.3759
   53BDD    C22 2311   6.035   3.586  12.961  1.5171 -0.4055 -1.2228
   53BDD    C23 2312   6.095   3.653  12.849  0.1600  1.2994  0.9237
   53BDD    C24 2313   6.106   3.567  12.705  0.1027 -0.5509  0.4648
   53BDD    C25 2314   5.902   3.663  13.250 -0.1236  0.6932  0.7079
   53BDD    C26 2315   5.884   3.510  13.289  0.5204 -0.1969 -0.6235
   54TPM     C1 2316   6.306   4.323  13.237 -0.1358  0.2577  0.2107
   54TPM     C2 2317   6.309   4.248  13.123 -1.8601  0.8911 -0.3109
   54TPM     C3 2318   6.394   4.303  13.020 -1.8719  0.4830 -0.5436
   54TPM     C4 2319   6.455   4.420  13.056 -0.1566 -0.4614 -0.1994
   54TPM     S1 2320   6.411   4.469  13.224  1.6206 -0.9123  0.4503
   55BDTP    C1 2321   6.776   4.691  12.594 -0.5270 -0.5007 -0.3908
   55BDTP    C2 2322   6.863   4.586  12.635 -0.4524 -0.3016 -0.0228
   55BDTP    C3 2323   6.836   4.504  12.743 -0.4724 -0.0463  0.1691
   55BDTP    C4 2324   6.717   4.525  12.815 -0.5705  0.0160 -0.0097
   55BDTP    C5 2325   6.630   4.631  12.775 -0.6450 -0.1832 -0.3777
   55BDTP    C6 2326   6.657   4.713  12.667 -0.6249 -0.4385 -0.5696
   55BDTP    C7 2327   6.668   4.453  12.930 -0.6090  0.2664  0.1330
   55BDTP    C8 2328   6.550   4.498  12.978 -0.7075  0.2650 -0.1069
   55BDTP    S1 2329   6.484   4.638  12.884 -0.7652 -0.0539 -0.5474
   55BDTP    C9 2330   6.825   4.764  12.479 -0.4883 -0.7511 -0.5336
   55BDTP   C10 2331   6.943   4.719  12.431 -0.3901 -0.7496 -0.2937
   55BDTP    S2 2332   7.009   4.579  12.526 -0.3322 -0.4308  0.1468
   56FTM     S1 2333   6.930   4.279  12.895  0.1065  0.0848  0.3525
   56FTM     C1 2334   7.004   4.147  12.797  0.2188  0.0076  0.5391
   56FTM     C2 2335   7.021   4.190  12.669  0.7656  0.0579  0.6243
   56FTM     C3 2336   6.979   4.323  12.640  1.1218  0.1571  0.5513
   56FTM     C4 2337   6.927   4.386  12.750  0.8387  0.1837  0.4055
   56FTM     F1 2338   7.076   4.109  12.570  0.9757  0.0172  0.7733
   56FTM     C5 2339   7.001   4.003  12.842 -0.1346  0.3407 -1.4222
   56FTM     C6 2340   7.135   3.929  12.838 -0.6835  0.2240  1.0885
   56FTM     C7 2341   7.267   4.007  12.861 -0.6064 -0.3155 -0.7915
   56FTM     C8 2342   7.304   4.087  12.978  1.3556  0.6198 -0.8723
   56FTM     C9 2343   7.276   4.011  13.118  0.4608  0.1996  0.7213
   56FTM    C10 2344   7.406   4.023  13.200 -1.2617  0.3035  1.2984
   56FTM    C11 2345   7.135   3.784  12.888  1.2731  0.3653 -0.2321
   56FTM    C12 2346   7.240   3.680  12.845 -0.1130 -0.4919  0.1337
   57FTM     S1 2347   6.516   4.950  12.723  0.1410 -0.0587 -0.1819
   57FTM     C1 2348   6.412   5.014  12.590 -0.2115 -0.5907 -0.1655
   57FTM     C2 2349   6.418   4.930  12.483 -0.5178 -1.0353  0.1587
   57FTM     C3 2350   6.501   4.814  12.497 -0.4975 -0.9910  0.4080
   57FTM     C4 2351   6.561   4.809  12.619 -0.1650 -0.4956  0.2702
   57FTM     F1 2352   6.348   4.953  12.366 -0.8346 -1.5093  0.2489
   57FTM     C5 2353   6.357   5.154  12.630  0.0032 -0.2048  0.3943
   57FTM     C6 2354   6.215   5.138  12.703 -0.5480  0.8132  1.2057
   57FTM     C7 2355   6.230   5.174  12.847  0.9327 -0.1177 -0.1712
   57FTM     C8 2356   6.184   5.063  12.949  0.2709  0.2075  0.8606
   57FTM     C9 2357   6.237   5.116  13.093  1.7046 -0.7925  0.7282
   57FTM    C10 2358   6.330   5.020  13.151 -1.4751 -0.0633  0.6496
   57FTM    C11 2359   6.094   5.185  12.618 -1.0429  0.0147  0.2022
   57FTM    C12 2360   5.992   5.068  12.578  0.4546  0.0898  0.4909
   58TPM     C1 2361   7.014   4.783  12.330  0.6179 -0.0382  0.1723
   58TPM     C2 2362   7.128   4.737  12.271  0.4590 -0.0980 -0.0918
   58TPM     C3 2363   7.166   4.810  12.152  0.1583 -0.1947 -0.2493
   58TPM     C4 2364   7.081   4.911  12.121  0.0880 -0.2084 -0.1053
   58TPM     S1 2365   6.945   4.923  12.239  0.3986 -0.0996  0.2431
   59BDD     C1 2366   7.204   5.115  11.809 -0.3985  0.3677 -0.4360
   59BDD     C2 2367   7.193   5.208  11.909 -0.2034  0.2465 -0.3004
   59BDD     C3 2368   7.143   5.153  12.034  0.0583  0.0912 -0.2632
   59BDD     C4 2369   7.117   5.019  12.027  0.0591  0.0957 -0.3709
   59BDD     S1 2370   7.152   4.952  11.865 -0.2679  0.2952 -0.5263
   59BDD     C5 2371   7.228   5.350  11.893 -0.2505  0.2694 -0.2002
   59BDD     C6 2372   7.123   5.235  12.155  0.2980 -0.0566 -0.1221
   59BDD     O1 2373   7.081   5.188  12.262  0.5237 -0.1906 -0.0900
   59BDD     O2 2374   7.270   5.398  11.785 -0.4761  0.4035 -0.2322
   59BDD     C7 2375   7.158   5.378  12.139  0.2508 -0.0337 -0.0218
   59BDD     C8 2376   7.208   5.433  12.014 -0.0107  0.1218 -0.0591
   59BDD     C9 2377   7.234   5.567  12.020 -0.0114  0.1173  0.0487
   59BDD     S2 2378   7.199   5.634  12.183  0.3154 -0.0821  0.2041
   59BDD    C10 2379   7.148   5.471  12.238  0.4460 -0.1545  0.1137
   59BDD    C11 2380   7.061   5.481  12.364  0.0832  0.8642  0.2421
   59BDD    C12 2381   7.142   5.427  12.492 -0.3021 -0.5186  0.1580
   59BDD    C13 2382   7.057   5.451  12.615  0.8056  0.8412 -0.9785
   59BDD    C14 2383   6.907   5.388  12.650 -1.0671 -0.3137  1.3408
   59BDD    C15 2384   6.896   5.244  12.571 -0.3133 -1.3511 -0.5343
   59BDD    C16 2385   6.760   5.244  12.531  0.5004 -0.1404  1.1366
   59BDD    C17 2386   7.281   5.373  12.486  0.1176  1.4781  0.5372
   59BDD    C18 2387   7.395   5.406  12.568  0.1332 -0.7144 -0.0237
   59BDD    C19 2388   7.269   5.676  11.918  0.8419  0.8438 -0.1587
   59BDD    C20 2389   7.147   5.775  11.902 -0.2061 -0.6257  0.5784
   59BDD    C21 2390   7.080   5.747  11.775  0.7169 -0.1781 -0.9274
   59BDD    C22 2391   6.975   5.625  11.801 -1.6261 -0.2149 -0.4091
   59BDD    C23 2392   6.877   5.608  11.702  1.6276  0.7523  0.6330
   59BDD    C24 2393   6.821   5.487  11.763  0.1904  0.6721 -1.0091
   59BDD    C25 2394   7.187   5.915  11.939  0.5543 -0.8113 -0.1922
   59BDD    C26 2395   7.079   6.006  12.000  0.0699  0.5803 -0.1782
   60TPM     C1 2396   7.252   5.118  11.678 -0.0067  0.9143  0.8016
   60TPM     C2 2397   7.160   5.152  11.583 -0.1780  1.5134  1.1729
   60TPM     C3 2398   7.217   5.184  11.455 -0.4647  1.4516  1.0271
   60TPM     C4 2399   7.353   5.175  11.452 -0.5120  0.8055  0.5449
   60TPM     S1 2400   7.420   5.124  11.612 -0.1954  0.2204  0.2347
    1BDTP    C1 2401   6.852   6.611  10.404 -0.1340 -0.1302  0.3428
    1BDTP    C2 2402   6.710   6.613  10.401 -0.1293 -0.1000  0.0877
    1BDTP    C3 2403   6.635   6.532  10.316  0.0041 -0.1144 -0.0165
    1BDTP    C4 2404   6.704   6.445  10.230  0.1395 -0.1607  0.1383
    1BDTP    C5 2405   6.847   6.443  10.233  0.1349 -0.1910  0.3932
    1BDTP    C6 2406   6.921   6.524  10.318  0.0015 -0.1765  0.4974
    1BDTP    C7 2407   6.649   6.352  10.134  0.2910 -0.1835  0.0720
    1BDTP    C8 2408   6.742   6.281  10.065  0.3992 -0.2289  0.2632
    1BDTP    S1 2409   6.912   6.322  10.113  0.3241 -0.2491  0.5531
    1BDTP    C9 2410   6.908   6.704  10.500 -0.2856 -0.1073  0.4086
    1BDTP   C10 2411   6.815   6.775  10.569 -0.3937 -0.0619  0.2179
    1BDTP    S2 2412   6.645   6.734  10.521 -0.3186 -0.0419 -0.0723
    2FTM     S1 2413   6.379   6.393  10.410  0.1121  0.2904 -0.3556
    2FTM     C1 2414   6.230   6.493  10.389 -0.0014  0.1752 -0.1070
    2FTM     C2 2415   6.262   6.612  10.332 -0.1117  0.4249  0.3395
    2FTM     C3 2416   6.401   6.632  10.301 -0.1146  0.7142  0.5109
    2FTM     C4 2417   6.477   6.525  10.336 -0.0028  0.6850  0.1854
    2FTM     F1 2418   6.168   6.709  10.304 -0.2167  0.4066  0.6187
    2FTM     C5 2419   6.095   6.440  10.445 -1.1225 -0.2878  0.8324
    2FTM     C6 2420   6.016   6.334  10.350  0.1154 -1.5377  0.5061
    2FTM     C7 2421   5.997   6.386  10.200 -0.6347  0.1863  1.5086
    2FTM     C8 2422   5.947   6.278  10.101  0.8036 -0.3891 -0.6817
    2FTM     C9 2423   6.068   6.203  10.047  0.4230  0.3589  0.2273
    2FTM    C10 2424   6.117   6.260   9.908 -0.2072 -0.0672 -0.4643
    2FTM    C11 2425   5.887   6.301  10.424 -0.2880 -0.0634  1.4509
    2FTM    C12 2426   5.763   6.407  10.405 -0.8133  0.8704 -0.5150
    3FTM     S1 2427   7.123   6.675  10.203 -0.1339 -0.1486  0.7673
    3FTM     C1 2428   7.295   6.631  10.239 -0.0098 -0.5377 -0.2441
    3FTM     C2 2429   7.299   6.519  10.315  0.2016 -0.7030 -0.4945
    3FTM     C3 2430   7.172   6.461  10.350  0.2780 -0.5411  0.0715
    3FTM     C4 2431   7.068   6.532  10.298  0.1200 -0.2420  0.7778
    3FTM     F1 2432   7.417   6.461  10.358  0.3384 -1.0105 -1.2510
    3FTM     C5 2433   7.413   6.721  10.217 -0.1698  1.1000 -0.3750
    3FTM     C6 2434   7.486   6.715  10.074 -0.8789 -0.4081 -0.2436
    3FTM     C7 2435   7.410   6.764   9.951  1.0503  0.5414  0.1708
    3FTM     C8 2436   7.307   6.864   9.973 -0.4979 -1.3063 -0.7152
    3FTM     C9 2437   7.168   6.851   9.952 -0.3493 -1.0189  0.8929
    3FTM    C10 2438   7.115   6.996   9.965  0.7305 -0.0787  0.1920
    3FTM    C11 2439   7.563   6.587  10.057  0.3654  1.9906 -1.3226
    3FTM    C12 2440   7.653   6.542  10.172 -0.7197 -1.3794  0.8203
    4TPM     C1 2441   6.824   6.872  10.689 -0.0281  0.1117 -0.1958
    4TPM     C2 2442   6.729   6.867  10.786 -0.2367  0.5690 -0.3738
    4TPM     C3 2443   6.751   6.961  10.893  0.1110  0.3468 -0.2472
    4TPM     C4 2444   6.863   7.037  10.878  0.5848 -0.2799  0.0276
    4TPM     S1 2445   6.950   6.995  10.726  0.6290 -0.6409  0.1485
    5BDD     C1 2446   6.859   7.282  11.187  0.0312  0.4760  0.3008
    5BDD     C2 2447   6.968   7.322  11.116  0.0062  0.2787  0.1478
    5BDD     C3 2448   6.989   7.246  10.994 -0.2379  0.1678  0.1733
    5BDD     C4 2449   6.896   7.149  10.974 -0.3955  0.2825  0.3454
    5BDD     S1 2450   6.774   7.145  11.106 -0.2491  0.5366  0.4873
    5BDD     C5 2451   7.057   7.433  11.157  0.2056  0.1850 -0.0277
    5BDD     C6 2452   7.102   7.273  10.902 -0.3060 -0.0473  0.0257
    5BDD     O1 2453   7.120   7.207  10.797 -0.5164 -0.1428  0.0479
    5BDD     O2 2454   7.039   7.498  11.262  0.4162  0.2806 -0.0496
    5BDD     C7 2455   7.191   7.383  10.943 -0.1065 -0.1410 -0.1495
    5BDD     C8 2456   7.170   7.459  11.065  0.1377 -0.0303 -0.1750
    5BDD     C9 2457   7.263   7.557  11.085  0.2950 -0.1442 -0.3474
    5BDD     S2 2458   7.385   7.560  10.953  0.1486 -0.3985 -0.4892
    5BDD    C10 2459   7.301   7.424  10.872 -0.1316 -0.3381 -0.3028
    5BDD    C11 2460   7.359   7.403  10.724  0.1244  0.3964 -0.5604
    5BDD    C12 2461   7.478   7.299  10.711  0.7388  0.5810 -0.8461
    5BDD    C13 2462   7.541   7.284  10.572  0.7318  0.8109 -0.7772
    5BDD    C14 2463   7.443   7.260  10.449 -1.7661 -0.1881 -1.5225
    5BDD    C15 2464   7.468   7.141  10.369 -0.2261  1.3683 -0.6358
    5BDD    C16 2465   7.588   7.158  10.276  0.2701  1.3009 -0.0366
    5BDD    C17 2466   7.501   7.182  10.796 -0.9669  0.9156 -0.2698
    5BDD    C18 2467   7.411   7.064  10.827 -1.4107 -0.3349  0.1712
    5BDD    C19 2468   7.292   7.645  11.211  1.5365 -0.0648 -0.2994
    5BDD    C20 2469   7.264   7.802  11.174 -0.0764 -0.4349  0.7861
    5BDD    C21 2470   7.141   7.835  11.090 -0.8609  0.3954  0.6670
    5BDD    C22 2471   7.051   7.905  11.184  0.9550 -0.1015  0.8659
    5BDD    C23 2472   6.931   7.934  11.087 -0.0609  0.8786 -0.6354
    5BDD    C24 2473   6.818   8.021  11.151  0.2163 -0.0590  0.9402
    5BDD    C25 2474   7.382   7.900  11.149  0.0822 -0.3014  0.7408
    5BDD    C26 2475   7.495   7.871  11.219 -1.0436 -0.2691 -0.2013
    6TPM     C1 2476   6.796   7.321  11.310 -0.3565 -0.7698  0.2598
    6TPM     C2 2477   6.660   7.335  11.319 -0.3189 -0.7128  0.8144
    6TPM     C3 2478   6.616   7.398  11.441  0.2443 -0.1632  0.7432
    6TPM     C4 2479   6.718   7.432  11.525  0.6361  0.1987  0.1342
    6TPM     S1 2480   6.879   7.388  11.456  0.3218 -0.1292 -0.4007
    7BDTP    C1 2481   6.582   7.753  12.048 -0.2035 -0.0409  0.0469
    7BDTP    C2 2482   6.713   7.706  12.077 -0.0861  0.1742 -0.1301
    7BDTP    C3 2483   6.787   7.629  11.989 -0.1166  0.2152 -0.1915
    7BDTP    C4 2484   6.729   7.596  11.865 -0.2705  0.0358 -0.0728
    7BDTP    C5 2485   6.598   7.643  11.835 -0.3883 -0.1792  0.1043
    7BDTP    C6 2486   6.524   7.720  11.924 -0.3576 -0.2201  0.1656
    7BDTP    C7 2487   6.786   7.518  11.757 -0.3300  0.0377 -0.1060
    7BDTP    C8 2488   6.705   7.504  11.650 -0.4849 -0.1628  0.0358
    7BDTP    S1 2489   6.545   7.588  11.670 -0.5767 -0.3823  0.2313
    7BDTP    C9 2490   6.525   7.831  12.156 -0.1438 -0.0428  0.0801
    7BDTP   C10 2491   6.606   7.846  12.263  0.0107  0.1576 -0.0616
    7BDTP    S2 2492   6.766   7.762  12.243  0.1027  0.3772 -0.2572
    8FTM     S1 2493   7.058   7.654  11.910 -0.1890 -0.4310 -0.3030
    8FTM     C1 2494   7.184   7.602  12.027 -0.1991  0.0735 -0.0628
    8FTM     C2 2495   7.126   7.549  12.138 -0.2106  0.6440  0.2083
    8FTM     C3 2496   6.982   7.546  12.138 -0.2122  0.7215  0.2450
    8FTM     C4 2497   6.930   7.598  12.024 -0.2014  0.1933 -0.0063
    8FTM     F1 2498   7.198   7.501  12.246 -0.2205  1.1297  0.4395
    8FTM     C5 2499   7.331   7.638  12.019  0.8609 -0.6663 -0.3751
    8FTM     C6 2500   7.418   7.753  11.965  0.6251  0.1507 -0.5791
    8FTM     C7 2501   7.518   7.828  12.053 -0.0189 -0.7128  0.4888
    8FTM     C8 2502   7.467   7.935  12.151 -0.3492  0.2390 -0.9768
    8FTM     C9 2503   7.563   8.018  12.237 -1.5020 -0.2676 -0.8611
    8FTM    C10 2504   7.669   7.952  12.330 -0.4376 -0.9979  1.6264
    8FTM    C11 2505   7.370   7.805  11.825 -0.2879 -0.8256  0.7112
    8FTM    C12 2506   7.469   7.915  11.764 -0.3311  0.7403 -0.3223
    9FTM     S1 2507   6.298   7.903  11.916  0.0837  0.3845 -0.2358
    9FTM     C1 2508   6.133   7.837  11.887 -0.1593  1.0006 -0.2992
    9FTM     C2 2509   6.141   7.702  11.868 -0.5896  1.0526 -0.8700
    9FTM     C3 2510   6.271   7.644  11.874 -0.7526  0.6272 -1.2828
    9FTM     C4 2511   6.368   7.737  11.899 -0.4367  0.2364 -1.0195
    9FTM     F1 2512   6.029   7.624  11.843 -0.8614  1.4888 -1.0526
    9FTM     C5 2513   6.012   7.915  11.927 -1.9175  0.3982  0.6254
    9FTM     C6 2514   5.932   7.974  11.805  0.6191 -1.0101 -1.2438
    9FTM     C7 2515   5.836   8.079  11.852  0.3915  1.0269 -0.0709
    9FTM     C8 2516   5.726   8.038  11.948 -0.5823 -0.0919 -0.0460
    9FTM     C9 2517   5.597   7.973  11.888  1.1952  1.0890 -1.0024
    9FTM    C10 2518   5.462   7.956  11.977 -0.4017 -0.0203 -0.3094
    9FTM    C11 2519   5.986   8.027  11.671 -0.9593  0.4422  1.5524
    9FTM    C12 2520   5.904   8.002  11.542 -0.8974  0.2933 -0.6038
   10TPM     C1 2521   6.589   7.904  12.399  0.1380  0.1820 -0.0409
   10TPM     C2 2522   6.671   7.887  12.507 -0.1478 -0.5021  0.0784
   10TPM     C3 2523   6.611   7.927  12.631 -0.3198 -0.8790  0.1209
   10TPM     C4 2524   6.484   7.975  12.619 -0.1653 -0.4825  0.0340
   10TPM     S1 2525   6.429   7.973  12.447  0.2126  0.4047 -0.1093
   11BDD     C1 2526   6.316   8.274  12.802 -0.2513 -0.0358  0.0593
   11BDD     C2 2527   6.307   8.167  12.887 -0.2062 -0.0358  0.0639
   11BDD     C3 2528   6.368   8.046  12.833 -0.0676  0.0129  0.1105
   11BDD     C4 2529   6.422   8.064  12.708 -0.0087  0.0488  0.1408
   11BDD     S1 2530   6.400   8.232  12.650 -0.1229  0.0248  0.1130
   11BDD     C5 2531   6.243   8.171  13.020 -0.2891 -0.0806  0.0255
   11BDD     C6 2532   6.370   7.918  12.907  0.0017  0.0213  0.1234
   11BDD     O1 2533   6.423   7.815  12.860  0.1212  0.0631  0.1636
   11BDD     O2 2534   6.191   8.275  13.066 -0.4088 -0.1223 -0.0147
   11BDD     C7 2535   6.306   7.923  13.040 -0.0813 -0.0232  0.0850
   11BDD     C8 2536   6.246   8.043  13.094 -0.2199 -0.0718  0.0384
   11BDD     C9 2537   6.192   8.026  13.218 -0.2787 -0.1080  0.0081
   11BDD     S2 2538   6.214   7.857  13.277 -0.1645 -0.0841  0.0359
   11BDD    C10 2539   6.298   7.815  13.124 -0.0362 -0.0234  0.0896
   11BDD    C11 2540   6.297   7.666  13.100 -0.1944  0.3076  0.7869
   11BDD    C12 2541   6.422   7.580  13.106 -0.1770  0.0452 -0.7208
   11BDD    C13 2542   6.534   7.606  13.195 -2.0191 -0.6251  0.3080
   11BDD    C14 2543   6.521   7.536  13.335  0.1741  0.7238  1.2851
   11BDD    C15 2544   6.614   7.497  13.436 -0.4537  0.4761 -0.8347
   11BDD    C16 2545   6.591   7.343  13.460 -0.6177  0.1097 -0.2379
   11BDD    C17 2546   6.401   7.445  13.035 -0.1615 -0.6609 -0.8041
   11BDD    C18 2547   6.504   7.328  13.036  1.0626 -1.7378  0.4011
   11BDD    C19 2548   6.121   8.128  13.310 -0.4221  0.1144  0.2970
   11BDD    C20 2549   6.214   8.171  13.438  0.4738 -1.1927  0.4633
   11BDD    C21 2550   6.134   8.129  13.566 -1.0857  0.9345  0.5836
   11BDD    C22 2551   5.993   8.164  13.587 -0.7028  0.7777 -0.8980
   11BDD    C23 2552   5.939   8.133  13.731 -1.4637 -1.4968  0.9143
   11BDD    C24 2553   5.936   8.009  13.797 -0.5373  1.0242  0.2016
   11BDD    C25 2554   6.368   8.172  13.426  0.0413 -0.3669  0.3317
   11BDD    C26 2555   6.463   8.170  13.545  0.2223  1.5538 -0.3487
   12TPM     C1 2556   6.265   8.414  12.803  0.5515 -0.1098 -0.0932
   12TPM     C2 2557   6.184   8.443  12.697 -0.0288 -0.9587  0.0907
   12TPM     C3 2558   6.085   8.544  12.725 -0.5343 -1.4539  0.1008
   12TPM     C4 2559   6.089   8.591  12.852 -0.3389 -0.9824 -0.0754
   12TPM     S1 2560   6.220   8.512  12.948  0.5049  0.1322 -0.2692
   13BDTP    C1 2561   5.643   8.927  13.145 -0.4957 -0.0219  0.0910
   13BDTP    C2 2562   5.577   8.886  13.026 -0.3766 -0.1652  0.0746
   13BDTP    C3 2563   5.639   8.808  12.929 -0.2235 -0.1328  0.1463
   13BDTP    C4 2564   5.773   8.770  12.950 -0.1856  0.0496  0.2387
   13BDTP    C5 2565   5.839   8.812  13.070 -0.3047  0.1931  0.2551
   13BDTP    C6 2566   5.777   8.889  13.167 -0.4577  0.1608  0.1834
   13BDTP    C7 2567   5.858   8.691  12.864 -0.0354  0.1165  0.3241
   13BDTP    C8 2568   5.983   8.671  12.912 -0.0356  0.3009  0.4029
   13BDTP    S1 2569   6.011   8.750  13.074 -0.2263  0.4160  0.3800
   13BDTP    C9 2570   5.558   9.007  13.232 -0.6460 -0.0887  0.0056
   13BDTP   C10 2571   5.433   9.027  13.184 -0.6459 -0.2732 -0.0732
   13BDTP    S2 2572   5.405   8.947  13.022 -0.4549 -0.3883 -0.0503
   14FTM     S1 2573   5.634   8.810  12.642  0.3972 -0.2179  0.2814
   14FTM     C1 2574   5.498   8.717  12.569 -0.2834  1.0880 -0.1866
   14FTM     C2 2575   5.413   8.675  12.667 -0.8516  1.5996 -0.4433
   14FTM     C3 2576   5.448   8.711  12.801 -0.7938  1.0219 -0.2952
   14FTM     C4 2577   5.563   8.784  12.806 -0.1610  0.0348  0.0874
   14FTM     F1 2578   5.299   8.600  12.641 -1.4578  2.6224 -0.8275
   14FTM     C5 2579   5.499   8.709  12.420  1.6384 -0.0889  0.9930
   14FTM     C6 2580   5.534   8.838  12.344  0.3229  0.3594 -0.2015
   14FTM     C7 2581   5.681   8.886  12.352 -0.4338 -0.5438  0.4463
   14FTM     C8 2582   5.798   8.787  12.306 -0.4137  1.2018  2.0147
   14FTM     C9 2583   5.944   8.815  12.315 -0.0917 -0.9706 -0.5247
   14FTM    C10 2584   5.961   8.944  12.241 -0.8567 -1.9539  0.6060
   14FTM    C11 2585   5.477   8.848  12.209  1.4144  0.8290  0.1634
   14FTM    C12 2586   5.321   8.867  12.184  0.0623  0.1858 -1.5978
   15FTM     S1 2587   5.739   8.842  13.442  0.3991 -0.5108 -0.6397
   15FTM     C1 2588   5.881   8.847  13.553  0.2609  1.0849 -0.4821
   15FTM     C2 2589   5.991   8.890  13.485 -0.0352  1.8685 -0.4809
   15FTM     C3 2590   5.972   8.922  13.347 -0.1692  1.2901 -0.5997
   15FTM     C4 2591   5.843   8.902  13.307  0.0308  0.0218 -0.6949
   15FTM     F1 2592   6.115   8.904  13.545 -0.2019  3.1564 -0.3724
   15FTM     C5 2593   5.850   8.844  13.698  0.3415 -0.7999 -0.2024
   15FTM     C6 2594   5.715   8.786  13.754 -0.2802  0.1423 -0.4212
   15FTM     C7 2595   5.713   8.627  13.736  0.7975 -0.8934  1.3566
   15FTM     C8 2596   5.806   8.553  13.828 -1.0876 -0.5559 -2.2055
   15FTM     C9 2597   5.778   8.569  13.977  0.7174 -0.9531  0.2537
   15FTM    C10 2598   5.675   8.474  14.028  0.9490  0.8689  0.5566
   15FTM    C11 2599   5.574   8.866  13.749  0.8577  0.2544 -0.4527
   15FTM    C12 2600   5.435   8.803  13.796 -0.0858 -0.2824 -0.1308
   16TPM     C1 2601   5.315   9.092  13.238  0.7163  0.5603  0.5665
   16TPM     C2 2602   5.220   9.147  13.158  1.3629  0.9336  0.0271
   16TPM     C3 2603   5.110   9.204  13.231  0.7433  0.5600 -0.5873
   16TPM     C4 2604   5.122   9.194  13.366 -0.3756 -0.0978 -0.5163
   16TPM     S1 2605   5.274   9.109  13.412 -0.7364 -0.2982  0.3385
   17BDD     C1 2606   4.844   9.320  13.625  0.2142  0.0635 -0.2241
   17BDD     C2 2607   4.958   9.390  13.655  0.1582  0.1681 -0.2548
   17BDD     C3 2608   5.067   9.366  13.562  0.2282  0.0930 -0.1532
   17BDD     C4 2609   5.034   9.277  13.463  0.3364 -0.0676 -0.0466
   17BDD     S1 2610   4.866   9.219  13.479  0.3582 -0.1359 -0.0659
   17BDD     C5 2611   4.970   9.482  13.770  0.0384  0.3409 -0.3787
   17BDD     C6 2612   5.199   9.431  13.575  0.1851  0.1833 -0.1658
   17BDD     O1 2613   5.293   9.409  13.495  0.2456  0.1187 -0.0781
   17BDD     O2 2614   4.876   9.503  13.850 -0.0221  0.4055 -0.4662
   17BDD     C7 2615   5.211   9.523  13.690  0.0653  0.3560 -0.2896
   17BDD     C8 2616   5.102   9.547  13.783 -0.0048  0.4311 -0.3912
   17BDD     C9 2617   5.135   9.635  13.882 -0.1130  0.5918 -0.4978
   17BDD     S2 2618   5.303   9.694  13.867 -0.1347  0.6599 -0.4784
   17BDD    C10 2619   5.325   9.592  13.720  0.0094  0.4604 -0.3203
   17BDD    C11 2620   5.480   9.585  13.675  1.2261 -0.7575 -1.2225
   17BDD    C12 2621   5.562   9.451  13.692 -0.0956  0.3197 -1.1012
   17BDD    C13 2622   5.524   9.346  13.797  0.6739  0.0856 -1.4490
   17BDD    C14 2623   5.575   9.398  13.945  1.0502 -0.2178  0.9602
   17BDD    C15 2624   5.668   9.310  14.018  0.3181 -0.4823 -1.3122
   17BDD    C16 2625   5.801   9.285  13.962  0.0980 -1.0207  0.1706
   17BDD    C17 2626   5.697   9.456  13.656 -0.5973 -0.4007  0.1859
   17BDD    C18 2627   5.778   9.606  13.647  0.8370  0.8359  0.1031
   17BDD    C19 2628   5.063   9.708  14.004  0.5726  1.1367  0.9314
   17BDD    C20 2629   5.090   9.860  14.018  0.3757  0.7957 -1.5296
   17BDD    C21 2630   5.023   9.976  13.943 -0.4426  0.9899 -0.0988
   17BDD    C22 2631   4.973   9.946  13.799  0.0003  0.0630 -1.3574
   17BDD    C23 2632   5.048  10.017  13.690 -0.4267  0.0506 -0.3207
   17BDD    C24 2633   4.957   9.999  13.566  0.5959 -0.1571 -0.3592
   17BDD    C25 2634   5.175   9.901  14.147  0.7908  0.3598  0.0941
   17BDD    C26 2635   5.108   9.868  14.278  0.0895  0.3469 -0.1505
   18TPM     C1 2636   4.703   9.317  13.678 -0.6310 -1.0373  0.3856
   18TPM     C2 2637   4.648   9.207  13.738 -1.0378 -1.0612 -0.0154
   18TPM     C3 2638   4.508   9.221  13.768 -1.0277 -0.7200 -0.1174
   18TPM     C4 2639   4.456   9.342  13.732 -0.6133 -0.4367  0.2060
   18TPM     S1 2640   4.580   9.448  13.655 -0.2002 -0.5793  0.6678
   19BDTP    C1 2641   3.896   9.627  13.816 -0.0560  0.2317  0.2796
   19BDTP    C2 2642   3.988   9.735  13.802 -0.1361  0.3011  0.2857
   19BDTP    C3 2643   4.124   9.715  13.779 -0.1495  0.4036  0.1106
   19BDTP    C4 2644   4.171   9.583  13.771 -0.0812  0.4404 -0.0798
   19BDTP    C5 2645   4.079   9.475  13.785 -0.0011  0.3712 -0.0858
   19BDTP    C6 2646   3.944   9.495  13.807  0.0124  0.2682  0.0893
   19BDTP    C7 2647   4.307   9.538  13.748 -0.0799  0.5435 -0.2813
   19BDTP    C8 2648   4.321   9.403  13.744 -0.0041  0.5553 -0.4365
   19BDTP    S1 2649   4.165   9.314  13.770  0.0769  0.4365 -0.3490
   19BDTP    C9 2650   3.760   9.672  13.839 -0.0573  0.1283  0.4812
   19BDTP   C10 2651   3.746   9.806  13.842 -0.1333  0.1173  0.6363
   19BDTP    S2 2652   3.903   9.895  13.817 -0.2140  0.2355  0.5489
   20FTM     S1 2653   4.189   9.946  13.619 -0.0251  0.1143 -0.6786
   20FTM     C1 2654   4.345  10.028  13.653 -0.4440  0.4173  0.6296
   20FTM     C2 2655   4.405   9.971  13.761 -1.1752  0.4640  1.0716
   20FTM     C3 2656   4.334   9.863  13.822 -1.4479  0.2718  0.4354
   20FTM     C4 2657   4.217   9.835  13.759 -0.9077  0.0713 -0.5251
   20FTM     F1 2658   4.527  10.014  13.811 -1.6412  0.6838  2.0787
   20FTM     C5 2659   4.389  10.139  13.563  0.6955 -0.4135  1.6560
   20FTM     C6 2660   4.515  10.103  13.484 -0.3277 -0.0766  1.1242
   20FTM     C7 2661   4.524   9.954  13.417  0.3172 -0.5127 -0.2541
   20FTM     C8 2662   4.438   9.937  13.289 -0.4275 -1.0986 -0.5636
   20FTM     C9 2663   4.512   9.838  13.192  0.3966  1.4357 -0.3764
   20FTM    C10 2664   4.537   9.699  13.245  0.1233 -0.0812 -0.1151
   20FTM    C11 2665   4.559  10.220  13.385  0.2812  0.8268  0.1715
   20FTM    C12 2666   4.562  10.362  13.454 -0.0117  0.5012  0.5467
   21FTM     S1 2667   3.732   9.370  13.928  0.5996  0.0241  0.3048
   21FTM     C1 2668   3.648   9.251  13.822  0.2079  0.0966  0.5276
   21FTM     C2 2669   3.722   9.229  13.710 -0.2617  0.2635  0.1804
   21FTM     C3 2670   3.845   9.302  13.700 -0.3434  0.3436 -0.2693
   21FTM     C4 2671   3.866   9.383  13.808  0.0772  0.2343 -0.2662
   21FTM     F1 2672   3.683   9.142  13.610 -0.6453  0.3533  0.2490
   21FTM     C5 2673   3.525   9.169  13.887  0.2564 -1.0711  0.9521
   21FTM     C6 2674   3.386   9.224  13.842  1.7493  0.1522  0.8983
   21FTM     C7 2675   3.363   9.376  13.812 -0.4965 -0.4129 -1.3768
   21FTM     C8 2676   3.405   9.427  13.682 -0.5521  0.0464 -0.0645
   21FTM     C9 2677   3.447   9.333  13.577 -0.6788  0.9811 -0.8491
   21FTM    C10 2678   3.410   9.365  13.430  0.1329  0.1235 -0.5526
   21FTM    C11 2679   3.290   9.162  13.941  0.8981  0.2619 -0.8052
   21FTM    C12 2680   3.262   9.012  13.953 -0.0735 -0.5727 -0.5432
   22TPM     C1 2681   3.634   9.875  13.895 -0.2778 -1.0691 -0.4957
   22TPM     C2 2682   3.614  10.008  13.875 -0.2995 -1.2789 -2.1272
   22TPM     C3 2683   3.489  10.057  13.928 -0.1417 -0.5779 -2.3721
   22TPM     C4 2684   3.414   9.960  13.989  0.0002  0.1662 -0.9275
   22TPM     S1 2685   3.496   9.800  13.983 -0.0549  0.0383  0.8684
   23BDD     C1 2686   3.034   9.876  14.065 -0.3244  0.0882 -0.6366
   23BDD     C2 2687   3.046  10.011  14.082 -0.0338  0.0501 -0.5201
   23BDD     C3 2688   3.180  10.061  14.058  0.1300 -0.2499 -0.2442
   23BDD     C4 2689   3.269   9.963  14.023 -0.0380 -0.4362 -0.1544
   23BDD     S1 2690   3.191   9.802  14.017 -0.4129 -0.2491 -0.4090
   23BDD     C5 2691   2.934  10.099  14.121  0.1038  0.2882 -0.6582
   23BDD     C6 2692   3.215  10.204  14.071  0.4473 -0.3409 -0.0796
   23BDD     O1 2693   3.331  10.247  14.050  0.5885 -0.5996  0.1583
   23BDD     O2 2694   2.818  10.056  14.141 -0.0374  0.5469 -0.8960
   23BDD     C7 2695   3.103  10.292  14.110  0.5850 -0.1025 -0.2177
   23BDD     C8 2696   2.969  10.242  14.134  0.4212  0.1976 -0.4936
   23BDD     C9 2697   2.880  10.340  14.169  0.5892  0.3839 -0.5834
   23BDD     S2 2698   2.958  10.501  14.174  0.9640  0.1965 -0.3288
   23BDD    C10 2699   3.115  10.427  14.127  0.8756 -0.1407 -0.1010
   23BDD    C11 2700   3.247  10.503  14.114 -0.0212  1.3417  0.4375
   23BDD    C12 2701   3.240  10.627  14.021 -1.0311 -0.2283 -0.5098
   23BDD    C13 2702   3.354  10.734  14.035  0.8000 -0.0489 -0.2399
   23BDD    C14 2703   3.315  10.874  14.004 -0.1796 -0.0879  0.4714
   23BDD    C15 2704   3.413  10.971  13.923  0.7263 -0.2698 -1.0618
   23BDD    C16 2705   3.527  10.920  13.823 -0.5794  0.7101 -0.5380
   23BDD    C17 2706   3.163  10.613  13.880  0.2323  1.4417 -1.0089
   23BDD    C18 2707   3.129  10.724  13.779 -0.2546  0.7090  0.6974
   23BDD    C19 2708   2.736  10.342  14.220 -0.5500  0.2392 -1.4810
   23BDD    C20 2709   2.663  10.461  14.175  1.8779 -0.2296  0.5605
   23BDD    C21 2710   2.627  10.469  14.020  0.1553 -0.5104  0.9955
   23BDD    C22 2711   2.724  10.429  13.891 -0.7648 -0.4181 -0.1449
   23BDD    C23 2712   2.684  10.486  13.752 -1.2902  0.5594 -0.0634
   23BDD    C24 2713   2.795  10.575  13.695  1.2141  0.3975 -0.9331
   23BDD    C25 2714   2.544  10.515  14.262  0.3349  0.2845  0.3088
   23BDD    C26 2715   2.584  10.584  14.397 -0.7396  0.0630 -0.1946
   24TPM     C1 2716   2.929   9.795  14.110 -1.3253  1.1723 -0.6222
   24TPM     C2 2717   2.887   9.683  14.045 -0.8578  0.9820 -0.6054
   24TPM     C3 2718   2.784   9.610  14.117  0.0324  0.0949 -0.1836
   24TPM     C4 2719   2.749   9.668  14.235  0.2438 -0.3920  0.1212
   24TPM     S1 2720   2.843   9.819  14.266 -0.6723  0.2377 -0.1026
   25BDTP    C1 2721   2.267   9.487  14.600 -0.0627  0.0532 -0.1339
   25BDTP    C2 2722   2.312   9.364  14.546  0.2033 -0.0572  0.3325
   25BDTP    C3 2723   2.422   9.354  14.461  0.2158 -0.1378  0.3575
   25BDTP    C4 2724   2.490   9.472  14.428 -0.0461 -0.1092 -0.0985
   25BDTP    C5 2725   2.445   9.596  14.482 -0.3122  0.0012 -0.5649
   25BDTP    C6 2726   2.335   9.606  14.567 -0.3246  0.0820 -0.5899
   25BDTP    C7 2727   2.606   9.488  14.343 -0.0874 -0.1788 -0.1672
   25BDTP    C8 2728   2.650   9.615  14.330 -0.3679 -0.1271 -0.6564
   25BDTP    S1 2729   2.550   9.734  14.425 -0.6194  0.0179 -1.0988
   25BDTP    C9 2730   2.151   9.472  14.685 -0.0215  0.1230 -0.0653
   25BDTP   C10 2731   2.107   9.345  14.698  0.2590  0.0708  0.4240
   25BDTP    S2 2732   2.207   9.226  14.603  0.5105 -0.0739  0.8664
   26FTM     S1 2733   2.597   9.144  14.491  0.6563 -0.2430 -0.3482
   26FTM     C1 2734   2.560   8.990  14.404  0.6554 -0.0127 -0.7600
   26FTM     C2 2735   2.446   9.005  14.330  0.5405  0.1218 -0.5586
   26FTM     C3 2736   2.383   9.133  14.337  0.4485  0.0565 -0.0833
   26FTM     C4 2737   2.450   9.220  14.418  0.4943 -0.1348  0.0848
   26FTM     F1 2738   2.393   8.903  14.253  0.5119  0.3128 -0.7927
   26FTM     C5 2739   2.631   8.865  14.427  0.8348  1.4406 -0.7565
   26FTM     C6 2740   2.751   8.793  14.331 -0.3128 -0.1513 -0.2396
   26FTM     C7 2741   2.767   8.645  14.316 -0.0727 -0.2168 -1.7129
   26FTM     C8 2742   2.818   8.567  14.438 -0.6767  1.1100 -0.2864
   26FTM     C9 2743   2.839   8.419  14.370  0.1746 -1.7889 -0.6287
   26FTM    C10 2744   2.912   8.353  14.496  1.2043  0.8322  1.6086
   26FTM    C11 2745   2.883   8.883  14.290  1.4851  0.3313  0.7229
   26FTM    C12 2746   2.942   8.973  14.414 -0.3733  0.5827 -0.2707
   27FTM     S1 2747   2.371   9.735  14.808  0.4393 -0.1271 -0.2527
   27FTM     C1 2748   2.304   9.902  14.820  0.3361 -0.1830 -0.0239
   27FTM     C2 2749   2.238   9.933  14.705 -0.4529 -0.3934  0.3605
   27FTM     C3 2750   2.235   9.832  14.604 -1.0117 -0.5205  0.4973
   27FTM     C4 2751   2.301   9.719  14.642 -0.6385 -0.4046  0.2082
   27FTM     F1 2752   2.176  10.056  14.685 -0.7159 -0.4830  0.6114
   27FTM     C5 2753   2.319  10.008  14.925  0.2388  0.0527 -0.1359
   27FTM     C6 2754   2.373   9.990  15.070  1.3179  0.9414  1.8227
   27FTM     C7 2755   2.516   9.985  15.107  0.4221 -0.1862  1.1081
   27FTM     C8 2756   2.633   9.945  15.019 -0.5112 -0.1215 -0.3944
   27FTM     C9 2757   2.691  10.018  14.897  0.3259  0.5726  0.0918
   27FTM    C10 2758   2.726  10.169  14.895 -0.7533  1.0161 -0.3416
   27FTM    C11 2759   2.274   9.907  15.160  0.5064  0.5452  1.0109
   27FTM    C12 2760   2.295   9.895  15.307  0.8348 -0.0593  0.1875
   28TPM     C1 2761   2.005   9.307  14.792  0.3372  1.1914 -0.2280
   28TPM     C2 2762   2.012   9.192  14.864  0.9851  0.5946 -1.1960
   28TPM     C3 2763   1.908   9.179  14.963  0.9528 -0.9041 -1.3828
   28TPM     C4 2764   1.822   9.284  14.966  0.2805 -1.4505 -0.5573
   28TPM     S1 2765   1.866   9.409  14.843 -0.3692 -0.1039  0.5286
   29BDD     C1 2766   1.573   9.206  15.258  0.2898  0.3871  0.3540
   29BDD     C2 2767   1.564   9.342  15.242  0.2455  0.3865  0.3693
   29BDD     C3 2768   1.644   9.392  15.132 -0.0068  0.3877  0.1845
   29BDD     C4 2769   1.713   9.294  15.066 -0.1511  0.3898  0.0311
   29BDD     S1 2770   1.682   9.132  15.137  0.0188  0.3901  0.1073
   29BDD     C5 2771   1.482   9.430  15.328  0.4333  0.3841  0.5543
   29BDD     C6 2772   1.650   9.536  15.097 -0.0955  0.3870  0.1668
   29BDD     O1 2773   1.719   9.579  15.002 -0.3130  0.3877  0.0076
   29BDD     O2 2774   1.413   9.387  15.423  0.6509  0.3831  0.7136
   29BDD     C7 2775   1.568   9.624  15.182  0.0924  0.3848  0.3518
   29BDD     C8 2776   1.488   9.574  15.292  0.3446  0.3834  0.5366
   29BDD     C9 2777   1.419   9.671  15.359  0.4890  0.3815  0.6900
   29BDD     S2 2778   1.450   9.833  15.288  0.3190  0.3811  0.6137
   29BDD    C10 2779   1.559   9.759  15.166  0.0481  0.3836  0.3670
   29BDD    C11 2780   1.636   9.848  15.076 -1.2906 -1.3668 -0.4982
   29BDD    C12 2781   1.720   9.957  15.124  0.8533 -1.1349  0.7303
   29BDD    C13 2782   1.644  10.068  15.205 -1.1202  0.1571  0.0128
   29BDD    C14 2783   1.720  10.205  15.241 -1.2466  0.0883  0.5187
   29BDD    C15 2784   1.747  10.241  15.384  0.1756 -0.0218 -1.1408
   29BDD    C16 2785   1.646  10.204  15.489  0.4109  0.8577  0.3677
   29BDD    C17 2786   1.823   9.908  15.221 -1.3645 -0.8648 -1.2124
   29BDD    C18 2787   1.893   9.769  15.197 -0.3506 -0.1590  1.5555
   29BDD    C19 2788   1.305   9.674  15.447  0.8371  0.5030 -1.3662
   29BDD    C20 2789   1.316   9.706  15.603 -0.3868  0.0001  1.1537
   29BDD    C21 2790   1.360   9.852  15.626 -0.1398 -0.2157 -1.6943
   29BDD    C22 2791   1.317   9.986  15.549 -1.2034 -1.1063  0.4689
   29BDD    C23 2792   1.169  10.032  15.548 -1.1988  0.6603 -0.3459
   29BDD    C24 2793   1.139  10.137  15.442 -1.9002  0.5530  0.2283
   29BDD    C25 2794   1.205   9.663  15.682  0.1953 -0.1298 -1.0758
   29BDD    C26 2795   1.229   9.686  15.845  0.1659 -0.5263 -0.5409
   30TPM     C1 2796   1.521   9.114  15.366 -0.2339 -0.4833 -0.0667
   30TPM     C2 2797   1.396   9.061  15.372 -0.0961 -0.8721 -0.4906
   30TPM     C3 2798   1.389   8.937  15.445  0.0086 -0.7854 -0.3304
   30TPM     C4 2799   1.509   8.895  15.494 -0.0494 -0.3303  0.2154
   30TPM     S1 2800   1.641   9.010  15.452 -0.2423  0.0264  0.5725
   31BDTP    C1 2801   1.736   8.447  15.865 -0.0859 -0.4220 -0.3735
   31BDTP    C2 2802   1.634   8.508  15.944  0.1130 -0.3395 -0.1786
   31BDTP    C3 2803   1.553   8.610  15.896  0.2066 -0.1659  0.0281
   31BDTP    C4 2804   1.573   8.654  15.763  0.0993 -0.0689  0.0436
   31BDTP    C5 2805   1.675   8.593  15.685 -0.0995 -0.1512 -0.1512
   31BDTP    C6 2806   1.756   8.491  15.733 -0.1931 -0.3247 -0.3579
   31BDTP    C7 2807   1.502   8.758  15.692  0.1649  0.1123  0.2395
   31BDTP    C8 2808   1.545   8.777  15.565  0.0267  0.1695  0.2016
   31BDTP    S1 2809   1.681   8.667  15.518 -0.2060  0.0014 -0.0876
   31BDTP    C9 2810   1.807   8.343  15.936 -0.1515 -0.6034 -0.5692
   31BDTP   C10 2811   1.765   8.324  16.063 -0.0132 -0.6604 -0.5312
   31BDTP    S2 2812   1.628   8.434  16.110  0.2194 -0.4923 -0.2420
   32FTM     S1 2813   1.291   8.698  15.946 -0.0163 -0.6116 -0.1391
   32FTM     C1 2814   1.261   8.770  16.109 -0.7119 -0.7711 -0.1938
   32FTM     C2 2815   1.376   8.771  16.181 -0.8520 -0.1655  0.0293
   32FTM     C3 2816   1.492   8.717  16.117 -0.4371  0.4447  0.2509
   32FTM     C4 2817   1.465   8.674  15.990  0.0362  0.3017  0.1958
   32FTM     F1 2818   1.382   8.821  16.310 -1.3644 -0.1273  0.0460
   32FTM     C5 2819   1.133   8.845  16.141  0.4043  0.3677  0.3820
   32FTM     C6 2820   1.113   8.999  16.134  0.0771 -0.6039  0.5589
   32FTM     C7 2821   0.990   9.028  16.048  0.5290 -1.3974  0.5192
   32FTM     C8 2822   0.963   9.177  16.018  0.9774 -0.1164  0.3356
   32FTM     C9 2823   0.967   9.214  15.870  0.1746 -0.4604 -1.0469
   32FTM    C10 2824   0.894   9.346  15.844  0.5275  0.7893  0.3296
   32FTM    C11 2825   1.153   9.072  16.279  1.0151 -0.5226 -0.1753
   32FTM    C12 2826   1.054   9.069  16.394 -0.3334  1.8043  0.1418
   33FTM     S1 2827   2.026   8.472  15.747 -0.2974  0.5524  0.0595
   33FTM     C1 2828   2.102   8.337  15.656 -0.9257 -0.0290  0.3835
   33FTM     C2 2829   2.012   8.281  15.571 -1.1318  0.3190  0.3710
   33FTM     C3 2830   1.881   8.339  15.571 -0.8212  1.0417  0.1149
   33FTM     C4 2831   1.870   8.443  15.659 -0.3622  1.2535 -0.0748
   33FTM     F1 2832   2.042   8.174  15.489 -1.6140  0.0041  0.5909
   33FTM     C5 2833   2.237   8.292  15.667 -0.4426  0.3418  0.1739
   33FTM     C6 2834   2.374   8.365  15.674  0.0077  0.8113  0.8750
   33FTM     C7 2835   2.401   8.437  15.532 -0.1888  0.5702 -1.3932
   33FTM     C8 2836   2.423   8.342  15.408 -1.2744 -0.4196 -0.0640
   33FTM     C9 2837   2.440   8.409  15.282 -0.5950 -0.5619  0.0016
   33FTM    C10 2838   2.316   8.440  15.196 -0.6061 -0.2533  0.1459
   33FTM    C11 2839   2.510   8.299  15.695  0.4380  0.7531 -1.0111
   33FTM    C12 2840   2.567   8.282  15.835 -0.4468 -0.0976  1.3181
   34TPM     C1 2841   1.813   8.229  16.163 -0.6769  0.2364  0.1073
   34TPM     C2 2842   1.806   8.093  16.151 -1.3293  0.2406  0.3452
   34TPM     C3 2843   1.850   8.022  16.268 -1.1747  0.2363  0.2859
   34TPM     C4 2844   1.889   8.104  16.370 -0.4043  0.2295  0.0026
   34TPM     S1 2845   1.875   8.278  16.325  0.1902  0.2274 -0.2127
   35BDD     C1 2846   1.919   7.871  16.688  0.4616 -0.4652  0.0541
   35BDD     C2 2847   1.829   7.967  16.726  0.4155 -0.4829 -0.0100
   35BDD     C3 2848   1.803   8.066  16.623  0.6037 -0.3877  0.0334
   35BDD     C4 2849   1.874   8.044  16.508  0.7906 -0.2983  0.1300
   35BDD     S1 2850   1.978   7.898  16.521  0.7439 -0.3281  0.1734
   35BDD     C5 2851   1.764   7.971  16.859  0.1967 -0.5882 -0.1140
   35BDD     C6 2852   1.710   8.178  16.642  0.5913 -0.3884 -0.0229
   35BDD     O1 2853   1.688   8.263  16.553  0.7536 -0.3061  0.0147
   35BDD     O2 2854   1.786   7.886  16.948  0.0344 -0.6703 -0.1514
   35BDD     C7 2855   1.644   8.183  16.774  0.3725 -0.4933 -0.1265
   35BDD     C8 2856   1.670   8.084  16.878  0.1843 -0.5887 -0.1700
   35BDD     C9 2857   1.599   8.106  16.993 -0.0027 -0.6778 -0.2668
   35BDD     S2 2858   1.496   8.252  16.980  0.0441 -0.6484 -0.3102
   35BDD    C10 2859   1.554   8.279  16.812  0.3264 -0.5114 -0.1909
   35BDD    C11 2860   1.493   8.401  16.730  0.2252 -0.0490  0.5993
   35BDD    C12 2861   1.586   8.527  16.717  0.0814  0.5334 -0.2829
   35BDD    C13 2862   1.627   8.597  16.846  0.1888  0.3241 -0.5217
   35BDD    C14 2863   1.736   8.697  16.851 -0.4765  0.3986  0.5000
   35BDD    C15 2864   1.738   8.803  16.966 -0.0902  0.8033 -0.3609
   35BDD    C16 2865   1.865   8.886  17.005  0.6261  1.0721  0.8252
   35BDD    C17 2866   1.545   8.633  16.595 -0.0732 -0.6719 -1.3963
   35BDD    C18 2867   1.405   8.694  16.619 -0.0564 -1.0356  0.3486
   35BDD    C19 2868   1.553   8.025  17.120 -1.1920  0.0014  0.1504
   35BDD    C20 2869   1.484   7.889  17.103  0.9655  1.3721  0.7177
   35BDD    C21 2870   1.553   7.777  17.176 -0.1963  0.2590 -0.6414
   35BDD    C22 2871   1.520   7.639  17.152 -0.3578 -0.0993 -1.4867
   35BDD    C23 2872   1.592   7.513  17.236  0.2990  0.1943  0.8209
   35BDD    C24 2873   1.509   7.391  17.211 -0.6534 -1.1723 -0.4230
   35BDD    C25 2874   1.331   7.892  17.099 -0.9666 -0.7733 -0.4394
   35BDD    C26 2875   1.242   7.948  16.994  1.4460  0.4965 -0.7780
   36TPM     C1 2876   1.964   7.747  16.740  0.1846 -0.4928 -0.7030
   36TPM     C2 2877   1.927   7.633  16.676  0.7657 -0.5016 -1.0364
   36TPM     C3 2878   2.010   7.519  16.707  0.7896 -0.3818 -0.6558
   36TPM     C4 2879   2.110   7.547  16.796  0.2265 -0.2814 -0.0324
   36TPM     S1 2880   2.108   7.720  16.846 -0.3820 -0.3310  0.1236
   37BDTP    C1 2881   2.635   7.213  16.837  0.1031  0.4306 -0.0147
   37BDTP    C2 2882   2.550   7.140  16.925  0.2127  0.1656 -0.1270
   37BDTP    C3 2883   2.418   7.176  16.948  0.1989  0.0114  0.0361
   37BDTP    C4 2884   2.367   7.289  16.882  0.0710  0.1233  0.3237
   37BDTP    C5 2885   2.453   7.363  16.795 -0.0386  0.3883  0.4359
   37BDTP    C6 2886   2.585   7.326  16.771 -0.0248  0.5425  0.2726
   37BDTP    C7 2887   2.234   7.346  16.891  0.0323  0.0023  0.5338
   37BDTP    C8 2888   2.216   7.457  16.815 -0.0993  0.1615  0.7949
   37BDTP    S1 2889   2.364   7.505  16.722 -0.1928  0.4872  0.8116
   37BDTP    C9 2890   2.768   7.156  16.828  0.1418  0.5517 -0.2248
   37BDTP   C10 2891   2.787   7.046  16.904  0.2733  0.3926 -0.4860
   37BDTP    S2 2892   2.638   6.997  16.997  0.3669  0.0667 -0.5027
   38FTM     S1 2893   2.282   6.924  16.978 -0.5205  0.2717 -0.4055
   38FTM     C1 2894   2.194   6.894  17.132 -0.6599 -0.5177 -0.6250
   38FTM     C2 2895   2.202   7.004  17.212 -1.0102 -0.7983 -0.1904
   38FTM     C3 2896   2.276   7.115  17.159 -1.1874 -0.4255  0.3272
   38FTM     C4 2897   2.326   7.090  17.034 -0.9654  0.1596  0.2877
   38FTM     F1 2898   2.144   7.011  17.337 -1.1914 -1.4094 -0.2356
   38FTM     C5 2899   2.160   6.767  17.176  0.4319 -0.6076 -0.9679
   38FTM     C6 2900   2.116   6.664  17.081 -0.6814  0.1984 -0.5357
   38FTM     C7 2901   1.974   6.678  17.048  0.7561  0.3420 -0.8225
   38FTM     C8 2902   1.961   6.773  16.936  1.0021 -0.8901  1.2883
   38FTM     C9 2903   1.855   6.884  16.971 -1.3614  0.3094  1.0273
   38FTM    C10 2904   1.868   6.977  16.852  0.6338 -0.2760 -0.6257
   38FTM    C11 2905   2.156   6.524  17.097 -1.0927  0.4127 -0.3540
   38FTM    C12 2906   2.140   6.428  16.970  0.7552  0.7648 -1.0348
   39FTM     S1 2907   2.653   7.393  16.495 -0.2146  0.5604  0.9045
   39FTM     C1 2908   2.777   7.523  16.481 -0.2208  0.5115  0.3427
   39FTM     C2 2909   2.823   7.557  16.605  0.3331  0.5130  0.1447
   39FTM     C3 2910   2.765   7.486  16.715  0.7849  0.5510  0.4114
   39FTM     C4 2911   2.672   7.394  16.675  0.5702  0.5799  0.8270
   39FTM     F1 2912   2.919   7.654  16.625  0.4637  0.4798 -0.2896
   39FTM     C5 2913   2.852   7.557  16.351  0.0383  1.6010  0.4781
   39FTM     C6 2914   2.882   7.442  16.241 -0.9433  0.0428  1.0579
   39FTM     C7 2915   2.824   7.489  16.107 -1.5524 -1.2906  0.1665
   39FTM     C8 2916   2.891   7.628  16.067  0.1474  0.0644  1.2634
   39FTM     C9 2917   2.848   7.719  15.940 -0.4129  1.3731 -0.4040
   39FTM    C10 2918   2.710   7.790  15.968  0.4435  0.0399  0.4437
   39FTM    C11 2919   3.026   7.367  16.263  0.4667  0.0076  0.2479
   39FTM    C12 2920   3.035   7.240  16.187  0.1414  0.5905 -0.0120
   40TPM     C1 2921   2.914   6.956  16.882  0.1291 -0.0363 -1.1870
   40TPM     C2 2922   3.041   6.990  16.919  0.4712  0.0958 -2.4097
   40TPM     C3 2923   3.130   6.877  16.927  0.5099  0.1063 -2.6683
   40TPM     C4 2924   3.071   6.758  16.897  0.1974 -0.0181 -1.6425
   40TPM     S1 2925   2.897   6.779  16.855 -0.1730 -0.1590 -0.2599
   41BDD     C1 2926   3.117   6.364  16.926  0.2844 -0.3517 -0.8044
   41BDD     C2 2927   3.234   6.415  16.974  0.1927 -0.3215 -0.6124
   41BDD     C3 2928   3.243   6.559  16.964  0.0749 -0.2971 -0.3816
   41BDD     C4 2929   3.132   6.617  16.908  0.0784 -0.3087 -0.4007
   41BDD     S1 2930   3.009   6.494  16.864  0.2295 -0.3513 -0.7091
   41BDD     C5 2931   3.342   6.332  17.032  0.2100 -0.3142 -0.6346
   41BDD     C6 2932   3.361   6.635  17.011 -0.0370 -0.2630 -0.1503
   41BDD     O1 2933   3.369   6.760  17.002 -0.1386 -0.2418  0.0486
   41BDD     O2 2934   3.334   6.207  17.041  0.3116 -0.3355 -0.8336
   41BDD     C7 2935   3.469   6.552  17.068 -0.0197 -0.2557 -0.1723
   41BDD     C8 2936   3.460   6.408  17.078  0.0982 -0.2803 -0.4032
   41BDD     C9 2937   3.571   6.350  17.135  0.0946 -0.2686 -0.3842
   41BDD     S2 2938   3.694   6.473  17.179 -0.0566 -0.2260 -0.0757
   41BDD    C10 2939   3.587   6.603  17.117 -0.1113 -0.2258  0.0194
   41BDD    C11 2940   3.646   6.731  17.145  0.8776 -0.9194 -0.2088
   41BDD    C12 2941   3.704   6.822  17.035 -0.7289 -0.9344  1.2085
   41BDD    C13 2942   3.685   6.981  17.057  0.4863 -0.3449  0.2752
   41BDD    C14 2943   3.548   7.027  17.084  0.1460 -0.5922 -0.1110
   41BDD    C15 2944   3.525   7.179  17.039  1.2473  0.8307  0.1601
   41BDD    C16 2945   3.375   7.208  17.045  0.2363  0.0289  0.4479
   41BDD    C17 2946   3.859   6.817  17.007 -0.9230  0.6010 -0.5501
   41BDD    C18 2947   3.904   6.881  16.888  0.1311 -0.3428  0.7807
   41BDD    C19 2948   3.617   6.215  17.173  0.4054  1.0005  0.1924
   41BDD    C20 2949   3.576   6.175  17.311  0.2347  0.7137  1.4929
   41BDD    C21 2950   3.682   6.175  17.420 -0.6468  0.1538 -1.0674
   41BDD    C22 2951   3.828   6.144  17.403 -1.2346 -0.4778  1.1008
   41BDD    C23 2952   3.900   6.099  17.515 -0.0755  0.0365 -0.5662
   41BDD    C24 2953   3.995   5.999  17.513 -0.9434 -0.1531  0.0524
   41BDD    C25 2954   3.538   6.024  17.305 -1.7250 -0.5468 -0.4430
   41BDD    C26 2955   3.426   5.962  17.224 -0.6201  0.6210  0.1694
   42TPM     C1 2956   3.056   6.235  16.914 -0.3345 -0.5784 -0.9706
   42TPM     C2 2957   3.122   6.127  16.863 -1.0763 -0.5292 -2.1119
   42TPM     C3 2958   3.042   6.007  16.860 -1.2797 -0.4253 -1.4153
   42TPM     C4 2959   2.915   6.023  16.908 -0.6931 -0.3952  0.2572
   42TPM     S1 2960   2.887   6.193  16.962  0.1687 -0.4966  1.0885
   43BDTP    C1 2961   2.522   5.540  16.872  0.2999  0.2459 -0.1029
   43BDTP    C2 2962   2.441   5.647  16.828  0.1343  0.1216 -0.1020
   43BDTP    C3 2963   2.486   5.779  16.824 -0.0573  0.1869 -0.1281
   43BDTP    C4 2964   2.617   5.805  16.866 -0.0872  0.3841 -0.1564
   43BDTP    C5 2965   2.699   5.697  16.910  0.0784  0.5082 -0.1572
   43BDTP    C6 2966   2.654   5.566  16.914  0.2700  0.4429 -0.1312
   43BDTP    C7 2967   2.686   5.933  16.870 -0.2718  0.4845 -0.1863
   43BDTP    C8 2968   2.813   5.926  16.916 -0.2529  0.6759 -0.2095
   43BDTP    S1 2969   2.864   5.757  16.959  0.0013  0.7555 -0.1963
   43BDTP    C9 2970   2.454   5.412  16.868  0.4845  0.1453 -0.0730
   43BDTP   C10 2971   2.327   5.419  16.822  0.4656 -0.0461 -0.0499
   43BDTP    S2 2972   2.275   5.588  16.779  0.2113 -0.1258 -0.0630
   44FTM     S1 2973   2.420   6.021  16.688  0.1967  0.2125 -0.2832
   44FTM     C1 2974   2.248   6.069  16.709  0.1345  0.1984 -0.7482
   44FTM     C2 2975   2.186   5.982  16.794 -0.0724  0.2300 -0.8657
   44FTM     C3 2976   2.267   5.877  16.847 -0.1922  0.2662 -0.6074
   44FTM     C4 2977   2.395   5.882  16.801 -0.0732  0.2622 -0.2814
   44FTM     F1 2978   2.052   5.994  16.829 -0.1656  0.2280 -1.2140
   44FTM     C5 2979   2.197   6.195  16.645  0.0443  0.5549 -1.0707
   44FTM     C6 2980   2.254   6.251  16.512  0.9020  1.1829 -0.5133
   44FTM     C7 2981   2.243   6.162  16.382  0.0103 -0.1052 -0.1281
   44FTM     C8 2982   2.122   6.153  16.278 -0.4354 -0.5376 -0.0882
   44FTM     C9 2983   2.013   6.247  16.243  0.3009  1.5030 -0.9519
   44FTM    C10 2984   1.918   6.214  16.123 -0.1311  0.8536 -0.5667
   44FTM    C11 2985   2.192   6.388  16.482 -1.4937  0.2844 -0.0838
   44FTM    C12 2986   2.284   6.488  16.403 -0.2405  0.0942 -0.7648
   45FTM     S1 2987   2.850   5.398  16.798 -0.4161 -0.2371 -0.1836
   45FTM     C1 2988   2.927   5.275  16.904  0.0374  0.0002 -0.2325
   45FTM     C2 2989   2.876   5.284  17.030  0.6108  0.3167 -0.0155
   45FTM     C3 2990   2.776   5.385  17.051  0.7297  0.3920  0.1969
   45FTM     C4 2991   2.750   5.455  16.937  0.2309  0.1245  0.1409
   45FTM     F1 2992   2.916   5.202  17.134  1.0622  0.5568  0.0038
   45FTM     C5 2993   3.052   5.191  16.873  0.3045  0.2965  0.9364
   45FTM     C6 2994   3.109   5.193  16.729  0.6347  1.3160 -0.1016
   45FTM     C7 2995   3.216   5.299  16.699 -0.7803 -1.5708  1.0733
   45FTM     C8 2996   3.305   5.396  16.805 -0.2156 -1.2364  0.5729
   45FTM     C9 2997   3.270   5.549  16.800  0.6752  0.0541 -2.1345
   45FTM    C10 2998   3.291   5.637  16.926 -1.3000  1.1489  0.3291
   45FTM    C11 2999   3.034   5.144  16.600  0.7853 -0.8643 -0.3564
   45FTM    C12 3000   2.976   5.010  16.622  0.5933  1.6168  0.2818
   46TPM     C1 3001   2.213   5.322  16.804 -0.2440 -1.1487  0.3483
   46TPM     C2 3002   2.201   5.242  16.694 -0.3414 -1.1536  0.3630
   46TPM     C3 3003   2.068   5.188  16.677 -0.5378 -0.6014  0.1000
   46TPM     C4 3004   1.980   5.227  16.773 -0.5902 -0.1755 -0.1149
   46TPM     S1 3005   2.058   5.336  16.894 -0.3940 -0.4408 -0.0012
   47BDD     C1 3006   1.705   4.949  16.764 -0.6303  0.1251  0.0415
   47BDD     C2 3007   1.663   5.036  16.860 -0.4787  0.0941  0.1367
   47BDD     C3 3008   1.751   5.151  16.876 -0.2454 -0.1072  0.3068
   47BDD     C4 3009   1.859   5.149  16.792 -0.2225 -0.2267  0.3388
   47BDD     S1 3010   1.858   5.003  16.687 -0.4914 -0.0954  0.1581
   47BDD     C5 3011   1.541   5.018  16.940 -0.5428  0.2480  0.0752
   47BDD     C6 3012   1.725   5.258  16.974 -0.0537 -0.1738  0.4317
   47BDD     O1 3013   1.801   5.356  16.988  0.1475 -0.3473  0.5783
   47BDD     O2 3014   1.465   4.919  16.926 -0.7441  0.4214 -0.0713
   47BDD     C7 3015   1.603   5.239  17.055 -0.1178 -0.0197  0.3699
   47BDD     C8 3016   1.515   5.125  17.039 -0.3511  0.1816  0.1998
   47BDD     C9 3017   1.407   5.127  17.123 -0.3741  0.3009  0.1678
   47BDD     S2 3018   1.408   5.272  17.228 -0.1052  0.1696  0.3487
   47BDD    C10 3019   1.561   5.327  17.151  0.0338 -0.0508  0.4650
   47BDD    C11 3020   1.597   5.462  17.202 -0.1202  0.7397 -0.3029
   47BDD    C12 3021   1.499   5.580  17.169 -0.2652  0.9635  2.1230
   47BDD    C13 3022   1.479   5.611  17.013 -1.2989 -0.7906 -1.3894
   47BDD    C14 3023   1.611   5.684  16.960 -0.4551 -0.1039 -1.3868
   47BDD    C15 3024   1.632   5.626  16.830 -0.3483  0.6676 -0.9979
   47BDD    C16 3025   1.705   5.730  16.760  0.8230 -0.4734 -0.0076
   47BDD    C17 3026   1.465   5.695  17.265  1.2212 -0.2001  0.5919
   47BDD    C18 3027   1.310   5.709  17.293 -0.6300  0.9452 -0.2154
   47BDD    C19 3028   1.294   5.022  17.159 -0.0188  0.1196 -0.8198
   47BDD    C20 3029   1.180   5.000  17.064  0.7499 -1.1685  1.6264
   47BDD    C21 3030   1.105   5.135  17.034  0.6197  1.3279  0.3017
   47BDD    C22 3031   1.159   5.224  16.928  1.1077 -0.4163 -0.7481
   47BDD    C23 3032   1.115   5.364  16.957  1.1682 -0.3388  0.8790
   47BDD    C24 3033   1.196   5.469  16.870  0.0099  1.3611 -1.0953
   47BDD    C25 3034   1.112   4.855  17.054  1.3877 -1.0651 -0.2638
   47BDD    C26 3035   1.040   4.798  17.192 -1.3425 -1.6261 -0.7906
   48TPM     C1 3036   1.653   4.825  16.696  0.3110 -0.0712  0.4633
   48TPM     C2 3037   1.665   4.815  16.561  0.3197 -0.1476  0.4698
   48TPM     C3 3038   1.599   4.700  16.505  0.0530 -0.0058  0.4929
   48TPM     C4 3039   1.536   4.623  16.599 -0.1589  0.1786  0.5038
   48TPM     S1 3040   1.556   4.690  16.765 -0.0372  0.1875  0.4859
   49BDTP    C1 3041   1.033   4.256  16.504 -0.3488 -0.3303 -0.0803
   49BDTP    C2 3042   1.120   4.209  16.401 -0.2817 -0.7395  0.1603
   49BDTP    C3 3043   1.249   4.256  16.385 -0.2207 -0.9105  0.1482
   49BDTP    C4 3044   1.296   4.354  16.474 -0.2262 -0.6673 -0.1132
   49BDTP    C5 3045   1.209   4.401  16.577 -0.2933 -0.2582 -0.3538
   49BDTP    C6 3046   1.079   4.354  16.593 -0.3543 -0.0869 -0.3419
   49BDTP    C7 3047   1.426   4.417  16.478 -0.1706 -0.7777 -0.1771
   49BDTP    C8 3048   1.441   4.509  16.576 -0.1924 -0.4750 -0.4507
   49BDTP    S1 3049   1.292   4.527  16.679 -0.2865 -0.0076 -0.6658
   49BDTP    C9 3050   0.903   4.193  16.501 -0.4045 -0.2199 -0.0163
   49BDTP   C10 3051   0.888   4.101  16.402 -0.3826 -0.5226  0.2571
   49BDTP    S2 3052   1.036   4.083  16.299 -0.2885 -0.9899  0.4721
   50FTM     S1 3053   1.429   4.054  16.293  0.2541  0.3227 -0.6401
   50FTM     C1 3054   1.440   4.029  16.115 -0.0660  0.1350 -0.6343
   50FTM     C2 3055   1.371   4.128  16.051 -0.5079 -0.1501 -0.6076
   50FTM     C3 3056   1.308   4.226  16.134 -0.6217 -0.2376 -0.5902
   50FTM     C4 3057   1.329   4.201  16.267 -0.2550 -0.0124 -0.6044
   50FTM     F1 3058   1.361   4.135  15.913 -0.8354 -0.3484 -0.5971
   50FTM     C5 3059   1.513   3.907  16.078 -0.9366  0.4927 -0.9297
   50FTM     C6 3060   1.637   3.886  15.988  0.3660 -0.2442 -0.2619
   50FTM     C7 3061   1.696   4.014  15.955  0.2115 -0.5051 -0.1876
   50FTM     C8 3062   1.707   4.026  15.809  0.1392 -0.5081  0.9324
   50FTM     C9 3063   1.759   4.131  15.718  0.1071  0.4665  0.1011
   50FTM    C10 3064   1.699   4.260  15.761  0.3246 -1.5283 -0.7582
   50FTM    C11 3065   1.770   3.809  16.029  1.0245 -0.7026  0.7878
   50FTM    C12 3066   1.741   3.666  16.085  0.0626 -0.1136  1.7374
   51FTM     S1 3067   0.843   4.467  16.739 -0.0900 -0.1670 -0.0452
   51FTM     C1 3068   0.837   4.400  16.906 -0.3767  0.7258  0.3103
   51FTM     C2 3069   0.949   4.328  16.932 -0.1990  1.2377  1.0619
   51FTM     C3 3070   1.045   4.319  16.825  0.1623  0.9736  1.3990
   51FTM     C4 3071   1.004   4.388  16.714  0.2645  0.2351  0.8889
   51FTM     F1 3072   0.972   4.264  17.053 -0.3529  1.9764  1.4894
   51FTM     C5 3073   0.716   4.443  16.990 -0.0546 -0.4279  0.7984
   51FTM     C6 3074   0.598   4.349  17.010 -0.2384  0.1500 -0.8236
   51FTM     C7 3075   0.604   4.298  17.142 -0.7613 -0.3071 -0.8908
   51FTM     C8 3076   0.638   4.145  17.144 -0.0529  1.4375  0.3013
   51FTM     C9 3077   0.517   4.059  17.128 -1.2307 -1.4145  0.0135
   51FTM    C10 3078   0.557   3.920  17.168  0.6156 -1.7116 -1.2185
   51FTM    C11 3079   0.449   4.399  16.977  1.2888  0.6832 -0.1569
   51FTM    C12 3080   0.413   4.543  17.004  0.4859 -0.9715 -0.7966
   52TPM     C1 3081   0.778   4.007  16.361 -0.2803 -0.3823  0.5120
   52TPM     C2 3082   0.795   3.885  16.303  0.1141 -0.8809  1.6071
   52TPM     C3 3083   0.681   3.798  16.314  0.2154 -0.9695  1.9704
   52TPM     C4 3084   0.576   3.854  16.382 -0.1018 -0.5385  1.1524
   52TPM     S1 3085   0.615   4.022  16.436 -0.5566  0.0173 -0.1503
   53BDD     C1 3086   0.304   3.619  16.530  0.0066  0.0439  0.5148
   53BDD     C2 3087   0.247   3.680  16.421 -0.0550 -0.0406  0.4994
   53BDD     C3 3088   0.337   3.770  16.352 -0.0729 -0.1445  0.3384
   53BDD     C4 3089   0.461   3.777  16.409 -0.0247 -0.1376  0.2336
   53BDD     S1 3090   0.474   3.671  16.553  0.0464 -0.0008  0.3290
   53BDD     C5 3091   0.108   3.657  16.377 -0.0996 -0.0288  0.6320
   53BDD     C6 3092   0.297   3.846  16.232 -0.1372 -0.2465  0.2947
   53BDD     O1 3093   0.375   3.924  16.173 -0.1526 -0.3361  0.1560
   53BDD     O2 3094   0.030   3.579  16.436 -0.0841  0.0607  0.7709
   53BDD     C7 3095   0.158   3.823  16.188 -0.1818 -0.2350  0.4274
   53BDD     C8 3096   0.068   3.733  16.257 -0.1638 -0.1311  0.5883
   53BDD     C9 3097  -0.056   3.726  16.200 -0.2120 -0.1379  0.6933
   53BDD     S2 3098  -0.069   3.832  16.056 -0.2829 -0.2747  0.5979
   53BDD    C10 3099   0.101   3.884  16.079 -0.2433 -0.3194  0.4121
   53BDD    C11 3100   0.146   4.000  15.991  0.5293 -0.2640 -0.2715
   53BDD    C12 3101   0.146   4.142  16.035 -0.8298 -1.1934  0.2727
   53BDD    C13 3102   0.230   4.233  15.932 -0.5965 -0.2194 -0.4115
   53BDD    C14 3103   0.377   4.209  15.941  0.2503  1.5707  1.0435
   53BDD    C15 3104   0.436   4.294  15.840 -0.8424 -0.0008  0.8327
   53BDD    C16 3105   0.574   4.236  15.816 -0.1778  0.5363  0.7031
   53BDD    C17 3106   0.002   4.197  16.042 -0.8008  0.1946  0.4583
   53BDD    C18 3107  -0.025   4.339  16.076 -0.1729  0.1466 -0.4366
   53BDD    C19 3108  -0.172   3.652  16.237 -0.8215  0.4382 -2.5009
   53BDD    C20 3109  -0.282   3.730  16.335 -0.9954  0.6611  0.7883
   53BDD    C21 3110  -0.419   3.667  16.379 -1.7769  1.7425 -0.0056
   53BDD    C22 3111  -0.530   3.654  16.283  1.8274 -0.4317  0.7939
   53BDD    C23 3112  -0.563   3.795  16.221 -0.8296  0.4225 -1.0581
   53BDD    C24 3113  -0.694   3.801  16.155 -0.4756  0.7090  1.0074
   53BDD    C25 3114  -0.211   3.811  16.443 -0.1570 -0.1926 -1.4391
   53BDD    C26 3115  -0.287   3.883  16.549  0.9237 -0.0616 -1.0018
   54TPM     C1 3116   0.269   3.507  16.624  0.2207 -0.2126 -0.6713
   54TPM     C2 3117   0.152   3.506  16.693 -0.1299 -0.5295 -1.2561
   54TPM     C3 3118   0.145   3.404  16.794 -0.3979 -0.6023 -1.3450
   54TPM     C4 3119   0.258   3.327  16.803 -0.2516 -0.3411 -0.8281
   54TPM     S1 3120   0.382   3.378  16.682  0.2398  0.0200 -0.1836
   55BDTP    C1 3121   0.354   2.868  17.219  0.0810 -0.3635  0.1647
   55BDTP    C2 3122   0.477   2.870  17.147 -0.0436 -0.2972 -0.0465
   55BDTP    C3 3123   0.500   2.959  17.042 -0.2435 -0.2350 -0.0402
   55BDTP    C4 3124   0.398   3.049  17.007 -0.3246 -0.2385  0.1850
   55BDTP    C5 3125   0.275   3.046  17.080 -0.2000 -0.3049  0.3961
   55BDTP    C6 3126   0.252   2.958  17.184 -0.0002 -0.3670  0.3898
   55BDTP    C7 3127   0.400   3.149  16.903 -0.5272 -0.1813  0.2364
   55BDTP    C8 3128   0.285   3.222  16.894 -0.5603 -0.2013  0.4728
   55BDTP    S1 3129   0.160   3.172  17.015 -0.3396 -0.2956  0.6636
   55BDTP    C9 3130   0.352   2.767  17.323  0.2836 -0.4208  0.1132
   55BDTP   C10 3131   0.467   2.695  17.333  0.3167 -0.4007 -0.1231
   55BDTP    S2 3132   0.592   2.744  17.211  0.0959 -0.3066 -0.3141
   56FTM     S1 3133   0.729   3.125  16.995 -0.0004  0.5241 -0.2460
   56FTM     C1 3134   0.881   3.042  16.944 -0.3339 -0.2475 -0.0074
   56FTM     C2 3135   0.856   2.909  16.925 -0.9475 -0.1541  0.0790
   56FTM     C3 3136   0.722   2.865  16.949 -1.1900  0.5071 -0.0322
   56FTM     C4 3137   0.640   2.968  16.987 -0.7475  0.9340 -0.2097
   56FTM     F1 3138   0.955   2.820  16.885 -1.3261 -0.6619  0.2640
   56FTM     C5 3139   1.002   3.130  16.953 -0.5920 -0.0282  0.0268
   56FTM     C6 3140   1.077   3.175  16.827 -0.5406  1.4556 -1.0593
   56FTM     C7 3141   1.177   3.288  16.878  1.1715 -0.0437 -0.9623
   56FTM     C8 3142   1.309   3.247  16.951 -0.3261 -0.0503  0.2826
   56FTM     C9 3143   1.394   3.140  16.875  0.0729 -0.0602  0.6485
   56FTM    C10 3144   1.386   3.005  16.950  0.4442 -0.3750 -0.9613
   56FTM    C11 3145   0.975   3.195  16.713 -0.1516  0.5346  0.4008
   56FTM    C12 3146   0.893   3.322  16.727  0.6550  0.3898  0.1249
   57FTM     S1 3147   0.117   3.073  17.422 -0.1498 -0.1411 -0.1861
   57FTM     C1 3148  -0.015   2.963  17.475 -0.1427 -0.0096  0.1146
   57FTM     C2 3149  -0.034   2.865  17.381 -0.4764  0.0299  0.1374
   57FTM     C3 3150   0.051   2.870  17.266 -0.7510 -0.0380 -0.0725
   57FTM     C4 3151   0.139   2.975  17.272 -0.6236 -0.1325 -0.2622
   57FTM     F1 3152  -0.130   2.766  17.394 -0.5527  0.1299  0.3498
   57FTM     C5 3153  -0.102   2.999  17.602  0.0405 -0.0494  0.5583
   57FTM     C6 3154  -0.259   2.995  17.618  0.7441 -0.3494 -0.0577
   57FTM     C7 3155  -0.314   3.052  17.764 -0.5412 -0.5722 -0.7568
   57FTM     C8 3156  -0.335   2.951  17.878  0.1871 -0.6738 -0.1107
   57FTM     C9 3157  -0.398   2.815  17.834  0.4041  1.5319  0.2495
   57FTM    C10 3158  -0.459   2.745  17.960  0.1495 -0.4898  0.1572
   57FTM    C11 3159  -0.344   3.049  17.501 -0.6752  0.2823  0.0636
   57FTM    C12 3160  -0.462   2.958  17.480  0.8095  0.0698 -0.0362
   58TPM     C1 3161   0.477   2.576  17.411  0.0555 -0.7318 -0.0268
   58TPM     C2 3162   0.476   2.445  17.372 -0.0858 -0.8209  0.2697
   58TPM     C3 3163   0.440   2.354  17.477  0.0326 -0.5628  0.5383
   58TPM     C4 3164   0.413   2.414  17.596  0.2643 -0.2769  0.4467
   58TPM     S1 3165   0.432   2.593  17.585  0.3515 -0.3118  0.0104
   59BDD     C1 3166   0.569   2.260  17.932  0.3015 -0.3086 -0.0268
   59BDD     C2 3167   0.520   2.149  17.867  0.0834 -0.2235 -0.0094
   59BDD     C3 3168   0.452   2.181  17.742  0.0493 -0.0994  0.0404
   59BDD     C4 3169   0.450   2.315  17.714  0.2419 -0.0916  0.0604
   59BDD     S1 3170   0.533   2.410  17.841  0.4791 -0.2391  0.0179
   59BDD     C5 3171   0.534   2.011  17.917 -0.1016 -0.2531 -0.0379
   59BDD     C6 3172   0.392   2.077  17.656 -0.1731  0.0070  0.0666
   59BDD     O1 3173   0.334   2.105  17.549 -0.2024  0.1140  0.1096
   59BDD     O2 3174   0.593   1.984  18.024 -0.0722 -0.3603 -0.0808
   59BDD     C7 3175   0.406   1.939  17.706 -0.3581 -0.0228  0.0380
   59BDD     C8 3176   0.474   1.907  17.831 -0.3240 -0.1469 -0.0118
   59BDD     C9 3177   0.476   1.774  17.859 -0.5166 -0.1547 -0.0317
   59BDD     S2 3178   0.393   1.678  17.732 -0.7538 -0.0072  0.0108
   59BDD    C10 3179   0.357   1.829  17.641 -0.5761  0.0622  0.0554
   59BDD    C11 3180   0.303   1.791  17.514 -0.5176 -0.6762  0.6819
   59BDD    C12 3181   0.170   1.722  17.499  0.1433  0.9977  0.0347
   59BDD    C13 3182   0.178   1.576  17.454 -0.0541  0.6268 -1.3124
   59BDD    C14 3183   0.133   1.466  17.540  0.3593  0.8158  0.9838
   59BDD    C15 3184   0.084   1.341  17.467  0.4392  1.7896 -0.2713
   59BDD    C16 3185  -0.039   1.358  17.380  0.3975 -1.0780 -0.3630
   59BDD    C17 3186   0.048   1.802  17.533  0.1297  1.0036  0.4198
   59BDD    C18 3187  -0.077   1.755  17.450  0.9262  0.8955  0.1024
   59BDD    C19 3188   0.517   1.703  17.980  0.8689 -0.8608 -0.1734
   59BDD    C20 3189   0.576   1.571  17.960 -0.7862  1.6310  1.0484
   59BDD    C21 3190   0.725   1.555  17.898  0.1184 -1.3612 -0.2513
   59BDD    C22 3191   0.774   1.625  17.772 -0.2203  1.8304  0.2672
   59BDD    C23 3192   0.922   1.596  17.788 -0.6021  1.4194 -0.1260
   59BDD    C24 3193   1.005   1.678  17.700  0.4466  0.6878  1.1543
   59BDD    C25 3194   0.542   1.461  18.053 -0.7305  1.3251  0.0842
   59BDD    C26 3195   0.625   1.415  18.170  0.4742 -0.5187 -0.3021
   60TPM     C1 3196   0.630   2.295  18.055 -0.4706 -0.1100  0.4255
   60TPM     C2 3197   0.719   2.208  18.113 -0.6035  0.0172  0.8287
   60TPM     C3 3198   0.791   2.265  18.224 -0.7302  0.3270  0.7551
   60TPM     C4 3199   0.758   2.394  18.251 -0.6940  0.4361  0.2961
   60TPM     S1 3200   0.631   2.455  18.137 -0.4954  0.1539 -0.0817
    1BDTP    C1 3201   4.741   6.501   2.773  0.1526  0.0402 -0.3181
    1BDTP    C2 3202   4.820   6.515   2.656 -0.0310 -0.1315 -0.4625
    1BDTP    C3 3203   4.893   6.409   2.602 -0.1819 -0.2322 -0.4714
    1BDTP    C4 3204   4.888   6.285   2.667 -0.1509 -0.1603 -0.3314
    1BDTP    C5 3205   4.809   6.272   2.785  0.0325  0.0114 -0.1869
    1BDTP    C6 3206   4.736   6.377   2.839  0.1835  0.1122 -0.1781
    1BDTP    C7 3207   4.955   6.162   2.631 -0.2854 -0.2397 -0.3113
    1BDTP    C8 3208   4.930   6.058   2.714 -0.2127 -0.1370 -0.1608
    1BDTP    S1 3209   4.818   6.102   2.851  0.0364  0.0746 -0.0232
    1BDTP    C9 3210   4.674   6.625   2.810  0.2871  0.1197 -0.3381
    1BDTP   C10 3211   4.699   6.728   2.727  0.2143  0.0172 -0.4886
    1BDTP    S2 3212   4.811   6.685   2.590 -0.0347 -0.1946 -0.6262
    2FTM     S1 3213   4.955   6.492   2.328  0.4592 -0.3219  0.0958
    2FTM     C1 3214   5.129   6.484   2.280  0.5218 -1.1262  0.4085
    2FTM     C2 3215   5.204   6.440   2.384  0.1422 -1.4017  0.5721
    2FTM     C3 3216   5.133   6.410   2.505 -0.2118 -1.0135  0.4668
    2FTM     C4 3217   5.000   6.432   2.493 -0.0997 -0.4215  0.2143
    2FTM     F1 3218   5.342   6.425   2.376  0.0930 -2.0218  0.8270
    2FTM     C5 3219   5.145   6.547   2.140 -0.8887  0.0502 -0.5363
    2FTM     C6 3220   5.124   6.487   2.002 -0.3217  0.2888  0.1080
    2FTM     C7 3221   5.221   6.390   1.949 -1.5183  0.4334  1.1063
    2FTM     C8 3222   5.277   6.391   1.788  1.0408 -0.3391 -0.4086
    2FTM     C9 3223   5.399   6.471   1.793 -0.7953 -0.3654 -1.2497
    2FTM    C10 3224   5.497   6.412   1.699 -0.2725  0.4264 -0.3648
    2FTM    C11 3225   4.975   6.443   1.977  0.9281 -0.6797 -0.0639
    2FTM    C12 3226   4.925   6.312   2.020 -0.3235  1.0660  0.2467
    3FTM     S1 3227   4.524   6.453   3.033 -0.3705  0.0553 -0.4363
    3FTM     C1 3228   4.544   6.376   3.195 -0.3991  0.0502 -0.4354
    3FTM     C2 3229   4.646   6.287   3.192 -0.0333  0.4575 -0.2721
    3FTM     C3 3230   4.714   6.273   3.066  0.2844  0.7904 -0.1411
    3FTM     C4 3231   4.662   6.354   2.970  0.1571  0.6330 -0.2061
    3FTM     F1 3232   4.685   6.212   3.302  0.0364  0.5533 -0.2316
    3FTM     C5 3233   4.465   6.449   3.304 -1.5566 -1.7680 -0.3297
    3FTM     C6 3234   4.476   6.465   3.465 -0.3289  0.6649  1.2245
    3FTM     C7 3235   4.421   6.600   3.520 -1.2104  0.8006 -0.4590
    3FTM     C8 3236   4.524   6.674   3.604  0.3070  0.7678  0.7229
    3FTM     C9 3237   4.576   6.631   3.739  1.1527 -1.7528  0.4229
    3FTM    C10 3238   4.456   6.632   3.860 -0.2662 -0.3839  0.6141
    3FTM    C11 3239   4.451   6.315   3.519 -0.6100 -1.1639 -1.5822
    3FTM    C12 3240   4.470   6.273   3.677  0.4175 -1.1049  1.3092
    4TPM     C1 3241   4.668   6.870   2.751 -0.1979  0.0110  0.1706
    4TPM     C2 3242   4.660   6.962   2.650  0.0265 -0.1624 -0.0055
    4TPM     C3 3243   4.601   7.087   2.690  0.4458  0.1060 -0.2121
    4TPM     C4 3244   4.563   7.091   2.821  0.5415  0.4838 -0.1935
    4TPM     S1 3245   4.600   6.935   2.905  0.1059  0.5305  0.0886
    5BDD     C1 3246   4.468   7.442   2.957  0.0310 -0.3681 -0.1429
    5BDD     C2 3247   4.397   7.355   3.035 -0.1323 -0.3308 -0.2488
    5BDD     C3 3248   4.416   7.216   2.997 -0.2222 -0.3343 -0.2797
    5BDD     C4 3249   4.501   7.200   2.891 -0.1261 -0.3746 -0.1968
    5BDD     S1 3250   4.563   7.357   2.831  0.0834 -0.4108 -0.0746
    5BDD     C5 3251   4.310   7.396   3.147 -0.2117 -0.2899 -0.3256
    5BDD     C6 3252   4.349   7.105   3.067 -0.4002 -0.2975 -0.3904
    5BDD     O1 3253   4.365   6.985   3.034 -0.4777 -0.3006 -0.4171
    5BDD     O2 3254   4.294   7.516   3.179 -0.1342 -0.2868 -0.2990
    5BDD     C7 3255   4.261   7.146   3.179 -0.4793 -0.2568 -0.4671
    5BDD     C8 3256   4.243   7.285   3.217 -0.3896 -0.2533 -0.4362
    5BDD     C9 3257   4.158   7.301   3.323 -0.4855 -0.2129 -0.5191
    5BDD     S2 3258   4.095   7.144   3.382 -0.6952 -0.1766 -0.6414
    5BDD    C10 3259   4.190   7.058   3.257 -0.6427 -0.2192 -0.5731
    5BDD    C11 3260   4.174   6.903   3.262  0.3150 -0.4353  1.3756
    5BDD    C12 3261   4.032   6.851   3.286  0.6194 -0.4803 -0.1455
    5BDD    C13 3262   3.915   6.915   3.201 -0.5536 -0.3689 -0.1716
    5BDD    C14 3263   3.762   6.907   3.251 -0.0120 -0.2612 -0.6765
    5BDD    C15 3264   3.648   6.939   3.169  0.0625 -0.1402  0.0411
    5BDD    C16 3265   3.541   7.006   3.254 -0.4052 -0.5155  0.1391
    5BDD    C17 3266   3.988   6.734   3.376 -1.7993  1.0347 -0.9146
    5BDD    C18 3267   4.091   6.613   3.410 -0.0330 -0.8471 -0.1417
    5BDD    C19 3268   4.096   7.431   3.392  0.9395  0.7503  1.9040
    5BDD    C20 3269   3.955   7.472   3.335  0.7463  0.0709  0.1094
    5BDD    C21 3270   3.837   7.389   3.383 -0.1848 -0.9010 -1.3260
    5BDD    C22 3271   3.793   7.428   3.534 -0.6086  0.8099 -0.9956
    5BDD    C23 3272   3.799   7.567   3.579 -0.1958 -0.3220 -0.1565
    5BDD    C24 3273   3.718   7.661   3.500  0.3308  0.1654  0.5199
    5BDD    C25 3274   3.924   7.517   3.199  0.6660 -2.4874  0.1027
    5BDD    C26 3275   3.999   7.624   3.123  0.0806  0.1983 -0.1641
    6TPM     C1 3276   4.458   7.590   2.933 -0.4660 -0.4551  0.0690
    6TPM     C2 3277   4.568   7.649   2.879 -0.2112 -0.7104  0.2996
    6TPM     C3 3278   4.553   7.791   2.858  0.1498 -0.6790  0.2346
    6TPM     C4 3279   4.431   7.839   2.896  0.1704 -0.4000 -0.0455
    6TPM     S1 3280   4.326   7.709   2.961 -0.2679 -0.1532 -0.2507
    7BDTP    C1 3281   4.261   8.442   2.992  0.1283 -0.0141 -0.2382
    7BDTP    C2 3282   4.136   8.374   2.997  0.1235 -0.0086 -0.2786
    7BDTP    C3 3283   4.124   8.237   2.978  0.0999  0.0200 -0.4678
    7BDTP    C4 3284   4.241   8.164   2.951  0.0805  0.0443 -0.6248
    7BDTP    C5 3285   4.367   8.232   2.946  0.0852  0.0386 -0.5844
    7BDTP    C6 3286   4.378   8.369   2.965  0.1088  0.0101 -0.3952
    7BDTP    C7 3287   4.254   8.021   2.928  0.0545  0.0753 -0.8327
    7BDTP    C8 3288   4.381   7.980   2.905  0.0399  0.0933 -0.9488
    7BDTP    S1 3289   4.502   8.115   2.911  0.0567  0.0732 -0.8112
    7BDTP    C9 3290   4.249   8.585   3.015  0.1539 -0.0453 -0.0303
    7BDTP   C10 3291   4.122   8.626   3.038  0.1686 -0.0637  0.0858
    7BDTP    S2 3292   4.000   8.491   3.033  0.1518 -0.0430 -0.0518
    8FTM     S1 3293   3.903   8.091   2.869 -0.4011 -0.7585 -0.6618
    8FTM     C1 3294   3.770   8.044   2.981 -0.8983  0.4334 -0.7155
    8FTM     C2 3295   3.795   8.091   3.106 -1.0920  1.1473 -0.9344
    8FTM     C3 3296   3.917   8.165   3.122 -0.8709  0.8190 -1.0700
    8FTM     C4 3297   3.987   8.175   3.005 -0.4957 -0.1790 -0.9514
    8FTM     F1 3298   3.710   8.069   3.213 -1.4809  2.1405 -1.0246
    8FTM     C5 3299   3.657   7.958   2.941  0.9424 -0.1276  1.3534
    8FTM     C6 3300   3.647   7.924   2.801 -1.8893  0.9151  0.9573
    8FTM     C7 3301   3.541   8.004   2.728 -0.7451  0.0721  0.3365
    8FTM     C8 3302   3.530   8.150   2.728 -1.1962  0.1853  0.0866
    8FTM     C9 3303   3.659   8.237   2.705  0.1882  1.7805 -0.4102
    8FTM    C10 3304   3.694   8.243   2.544  0.0195 -0.8671 -0.4927
    8FTM    C11 3305   3.644   7.774   2.800  0.3434 -1.1606 -0.3964
    8FTM    C12 3306   3.521   7.705   2.846 -1.3660 -0.5043 -1.9425
    9FTM     S1 3307   4.601   8.535   3.058  0.0400 -0.4634  0.0073
    9FTM     C1 3308   4.734   8.559   2.938  0.2165 -0.7749  0.1388
    9FTM     C2 3309   4.701   8.498   2.820 -0.1022 -0.1552 -0.1020
    9FTM     C3 3310   4.575   8.431   2.817 -0.4932  0.5813 -0.3964
    9FTM     C4 3311   4.508   8.441   2.935 -0.4737  0.5240 -0.3805
    9FTM     F1 3312   4.785   8.499   2.709 -0.0583 -0.2189 -0.0702
    9FTM     C5 3313   4.862   8.632   2.947  0.6409 -0.2934  0.8427
    9FTM     C6 3314   4.981   8.607   3.042  0.0242  1.1654 -0.2188
    9FTM     C7 3315   5.089   8.719   3.023  0.0135 -0.4011 -1.6601
    9FTM     C8 3316   5.217   8.727   3.119 -0.2190 -0.2570 -0.0338
    9FTM     C9 3317   5.314   8.832   3.063 -1.2836  1.6385  0.1742
    9FTM    C10 3318   5.371   8.799   2.918 -0.7143 -0.4725  0.3278
    9FTM    C11 3319   4.941   8.597   3.189  0.1832  0.9351 -0.1128
    9FTM    C12 3320   4.855   8.694   3.260  0.0355  0.1697 -0.5653
   10TPM     C1 3321   4.084   8.757   3.088  0.2030 -0.2721 -0.8095
   10TPM     C2 3322   3.971   8.796   3.154  0.0448 -1.1230 -0.5574
   10TPM     C3 3323   3.979   8.929   3.210 -0.5487 -1.3509  0.1011
   10TPM     C4 3324   4.098   8.991   3.186 -0.8435 -0.6742  0.3513
   10TPM     S1 3325   4.210   8.886   3.090 -0.3905  0.3112 -0.2301
   11BDD     C1 3326   4.028   9.368   3.303  0.3367  0.2820  0.0549
   11BDD     C2 3327   4.158   9.369   3.260  0.3321  0.1614  0.0382
   11BDD     C3 3328   4.204   9.240   3.212  0.2254  0.1037  0.0901
   11BDD     C4 3329   4.108   9.142   3.218  0.1501  0.1815  0.1456
   11BDD     S1 3330   3.954   9.206   3.285  0.2077  0.3316  0.1367
   11BDD     C5 3331   4.246   9.488   3.263  0.4256  0.0949 -0.0260
   11BDD     C6 3332   4.341   9.217   3.161  0.2018 -0.0257  0.0828
   11BDD     O1 3333   4.380   9.106   3.119  0.1098 -0.0753  0.1276
   11BDD     O2 3334   4.206   9.599   3.305  0.5176  0.1445 -0.0708
   11BDD     C7 3335   4.428   9.337   3.164  0.2953 -0.0925  0.0186
   11BDD     C8 3336   4.383   9.466   3.212  0.4021 -0.0348 -0.0333
   11BDD     C9 3337   4.479   9.563   3.206  0.4774 -0.1125 -0.0888
   11BDD     S2 3338   4.633   9.499   3.139  0.4198 -0.2626 -0.0800
   11BDD    C10 3339   4.558   9.337   3.121  0.2908 -0.2131  0.0019
   11BDD    C11 3340   4.652   9.228   3.098  0.6939  0.7885  0.5395
   11BDD    C12 3341   4.769   9.233   2.995 -0.4110 -0.7969 -0.3812
   11BDD    C13 3342   4.757   9.333   2.873  0.2474  1.5635 -0.8590
   11BDD    C14 3343   4.667   9.303   2.749 -1.4126 -0.3336 -0.4408
   11BDD    C15 3344   4.526   9.354   2.762  1.0577  0.7542 -0.9905
   11BDD    C16 3345   4.490   9.497   2.798 -0.2765 -0.7703 -0.0224
   11BDD    C17 3346   4.871   9.112   2.981 -1.1652 -0.6739  1.1800
   11BDD    C18 3347   4.919   9.031   2.863  0.7777  1.8209  0.3192
   11BDD    C19 3348   4.491   9.703   3.266 -0.0639 -0.4086  0.7502
   11BDD    C20 3349   4.591   9.715   3.387  0.4742 -1.1284 -0.0303
   11BDD    C21 3350   4.686   9.833   3.408 -0.8067  0.1329  0.7281
   11BDD    C22 3351   4.792   9.835   3.286 -0.5076  1.2299 -0.3761
   11BDD    C23 3352   4.825   9.952   3.201 -0.0792  0.4251 -0.8487
   11BDD    C24 3353   4.791   9.949   3.046 -0.2235 -0.9218 -0.4280
   11BDD    C25 3354   4.509   9.670   3.518  1.3811 -0.6225 -0.7127
   11BDD    C26 3355   4.526   9.749   3.651 -0.2711  0.1358  0.0204
   12TPM     C1 3356   3.950   9.468   3.347 -0.1498  0.1796  0.0806
   12TPM     C2 3357   3.907   9.573   3.271  0.7863  0.9375  0.5518
   12TPM     C3 3358   3.824   9.666   3.343  1.2022  1.0879  0.8444
   12TPM     C4 3359   3.804   9.632   3.474  0.5833  0.4448  0.5963
   12TPM     S1 3360   3.889   9.479   3.516 -0.5818 -0.4075 -0.0311
   13BDTP    C1 3361   3.420   9.924   3.873  0.2192 -0.3750 -0.0789
   13BDTP    C2 3362   3.503   9.848   3.960  0.3073 -0.2584 -0.0598
   13BDTP    C3 3363   3.604   9.765   3.915  0.3721 -0.1898 -0.0417
   13BDTP    C4 3364   3.626   9.757   3.776  0.3491 -0.2370 -0.0427
   13BDTP    C5 3365   3.544   9.833   3.688  0.2609 -0.3533 -0.0619
   13BDTP    C6 3366   3.442   9.916   3.734  0.1962 -0.4227 -0.0799
   13BDTP    C7 3367   3.725   9.678   3.705  0.4048 -0.1819 -0.0261
   13BDTP    C8 3368   3.721   9.692   3.571  0.3633 -0.2506 -0.0317
   13BDTP    S1 3369   3.591   9.806   3.514  0.2480 -0.3943 -0.0589
   13BDTP    C9 3370   3.321  10.003   3.943  0.1635 -0.4301 -0.0955
   13BDTP   C10 3371   3.325   9.990   4.078  0.2049 -0.3614 -0.0898
   13BDTP    S2 3372   3.455   9.875   4.134  0.3203 -0.2176 -0.0626
   14FTM     S1 3373   3.742   9.520   4.016 -0.7132  0.0616  0.1893
   14FTM     C1 3374   3.860   9.554   4.148 -0.6385  0.1984  0.0878
   14FTM     C2 3375   3.854   9.686   4.181 -0.9047  0.1538  0.2273
   14FTM     C3 3376   3.761   9.766   4.108 -1.1764  0.0136  0.4171
   14FTM     C4 3377   3.692   9.693   4.015 -1.1163 -0.0510  0.4231
   14FTM     F1 3378   3.934   9.742   4.281 -0.9182  0.2367  0.1916
   14FTM     C5 3379   3.917   9.430   4.229  1.6427  0.1255 -0.1699
   14FTM     C6 3380   4.055   9.456   4.297  0.2554  1.0438 -1.5287
   14FTM     C7 3381   4.105   9.343   4.399  0.2221 -0.7414 -0.3460
   14FTM     C8 3382   4.031   9.273   4.518  0.1701  0.4758  0.2070
   14FTM     C9 3383   3.911   9.350   4.579  0.6801  0.3794 -0.8265
   14FTM    C10 3384   3.809   9.265   4.683 -0.8515  0.6213  0.5465
   14FTM    C11 3385   4.158   9.514   4.198  0.2150 -0.0957  0.7382
   14FTM    C12 3386   4.291   9.578   4.257  0.7512  1.0847  0.1700
   15FTM     S1 3387   3.447  10.172   3.634 -0.1369 -0.0207 -0.8240
   15FTM     C1 3388   3.324  10.222   3.513 -0.3941 -0.0892 -0.5934
   15FTM     C2 3389   3.243  10.117   3.483 -0.2548 -0.1950 -0.6031
   15FTM     C3 3390   3.271   9.994   3.551  0.0532 -0.2282 -0.7860
   15FTM     C4 3391   3.377  10.005   3.636  0.1529 -0.1453 -0.9208
   15FTM     F1 3392   3.138  10.126   3.392 -0.3977 -0.2682 -0.4469
   15FTM     C5 3393   3.320  10.383   3.495  1.1654  1.2729  0.3067
   15FTM     C6 3394   3.409  10.437   3.371  0.6503  0.8393 -0.3368
   15FTM     C7 3395   3.472  10.585   3.386  0.7155 -1.4146  0.3724
   15FTM     C8 3396   3.575  10.606   3.495 -0.1756  0.1275  0.1421
   15FTM     C9 3397   3.542  10.609   3.645  0.5209  0.3053 -0.3256
   15FTM    C10 3398   3.485  10.749   3.685 -0.9811 -0.6255  0.2304
   15FTM    C11 3399   3.355  10.397   3.232  0.1649  0.8889  0.8920
   15FTM    C12 3400   3.247  10.500   3.167  0.0891  1.0056  1.2643
   16TPM     C1 3401   3.206  10.045   4.155  0.0138  0.1749  0.5675
   16TPM     C2 3402   3.206  10.116   4.272 -0.4359 -0.7863  1.1799
   16TPM     C3 3403   3.076  10.132   4.330 -0.6821 -1.1909  0.7602
   16TPM     C4 3404   2.976  10.074   4.259 -0.4199 -0.5380 -0.1724
   16TPM     S1 3405   3.039   9.993   4.110  0.1627  0.6477 -0.5960
   17BDD     C1 3406   2.661  10.248   4.406  0.0844 -0.2961  0.2539
   17BDD     C2 3407   2.678  10.307   4.283 -0.0409 -0.3109  0.2298
   17BDD     C3 3408   2.793  10.256   4.210 -0.1298 -0.3374  0.1078
   17BDD     C4 3409   2.862  10.160   4.278 -0.0707 -0.3416  0.0407
   17BDD     S1 3410   2.789  10.126   4.438  0.1001 -0.3135  0.1256
   17BDD     C5 3411   2.588  10.411   4.229 -0.0837 -0.3016  0.3181
   17BDD     C6 3412   2.829  10.306   4.076 -0.2699 -0.3569  0.0621
   17BDD     O1 3413   2.928  10.262   4.013 -0.3465 -0.3796 -0.0430
   17BDD     O2 3414   2.489  10.454   4.292 -0.0072 -0.2789  0.4232
   17BDD     C7 3415   2.740  10.410   4.022 -0.3127 -0.3476  0.1502
   17BDD     C8 3416   2.625  10.460   4.095 -0.2239 -0.3211  0.2722
   17BDD     C9 3417   2.555  10.557   4.027 -0.2829 -0.3166  0.3394
   17BDD     S2 3418   2.629  10.591   3.867 -0.4537 -0.3450  0.2544
   17BDD    C10 3419   2.756  10.469   3.899 -0.4382 -0.3626  0.1261
   17BDD    C11 3420   2.826  10.475   3.768 -0.7683 -0.0356  0.8130
   17BDD    C12 3421   2.898  10.610   3.727  0.4309 -0.1339 -0.8935
   17BDD    C13 3422   3.006  10.691   3.808  0.5275 -0.5750 -0.9460
   17BDD    C14 3423   3.003  10.689   3.974  0.3312  0.1550  0.4827
   17BDD    C15 3424   3.140  10.740   4.028  0.5495  0.0385 -1.6888
   17BDD    C16 3425   3.261  10.647   4.038  1.4147 -0.6986  0.1072
   17BDD    C17 3426   2.980  10.614   3.591  0.0999 -0.5821 -0.0457
   17BDD    C18 3427   2.985  10.736   3.504  0.2588 -1.2935 -0.5876
   17BDD    C19 3428   2.435  10.654   4.071 -0.6177  1.1261  1.7559
   17BDD    C20 3429   2.286  10.611   4.093 -1.1569 -0.3026  0.5526
   17BDD    C21 3430   2.247  10.519   3.978 -1.0965  1.3647  0.6897
   17BDD    C22 3431   2.113  10.439   3.986 -1.1985 -1.2247  0.5593
   17BDD    C23 3432   2.161  10.297   3.965  1.3415 -0.9049 -0.3408
   17BDD    C24 3433   2.125  10.205   4.079 -0.2183 -0.0294 -0.9606
   17BDD    C25 3434   2.189  10.692   4.170 -0.1482 -0.6843  0.8024
   17BDD    C26 3435   2.262  10.745   4.295 -0.3807  0.8030  0.7337
   18TPM     C1 3436   2.578  10.277   4.529  0.9577 -0.1552  1.0844
   18TPM     C2 3437   2.550  10.186   4.626  1.6683  0.3924  1.8275
   18TPM     C3 3438   2.475  10.239   4.737  1.4034  0.7482  1.4794
   18TPM     C4 3439   2.445  10.372   4.724  0.4909  0.4724  0.4708
   18TPM     S1 3440   2.510  10.439   4.570 -0.1094 -0.2645 -0.1220
   19BDTP    C1 3441   2.047  10.782   4.977 -0.2726 -0.1066 -0.4224
   19BDTP    C2 3442   2.149  10.771   5.077 -0.0777  0.2089 -0.5821
   19BDTP    C3 3443   2.256  10.684   5.065  0.0001  0.3076 -0.6021
   19BDTP    C4 3444   2.264  10.604   4.950 -0.1196  0.0849 -0.4579
   19BDTP    C5 3445   2.163  10.615   4.850 -0.3145 -0.2306 -0.2984
   19BDTP    C6 3446   2.055  10.702   4.862 -0.3923 -0.3292 -0.2782
   19BDTP    C7 3447   2.366  10.506   4.916 -0.0712  0.1315 -0.4475
   19BDTP    C8 3448   2.347  10.445   4.797 -0.2186 -0.1297 -0.2896
   19BDTP    S1 3449   2.196  10.501   4.711 -0.4392 -0.4725 -0.1321
   19BDTP    C9 3450   1.945  10.879   5.012 -0.3209 -0.1535 -0.4328
   19BDTP   C10 3451   1.965  10.940   5.131 -0.1736  0.1082 -0.5906
   19BDTP    S2 3452   2.115  10.884   5.216  0.0470  0.4510 -0.7483
   20FTM     S1 3453   2.506  10.580   5.184 -0.4009  0.0965  0.2776
   20FTM     C1 3454   2.544  10.644   5.348  0.2108  0.4372  0.0119
   20FTM     C2 3455   2.446  10.730   5.388  0.4267  0.6249  0.1426
   20FTM     C3 3456   2.339  10.751   5.295  0.1369  0.5183  0.4499
   20FTM     C4 3457   2.355  10.678   5.181 -0.3159  0.2395  0.5578
   20FTM     F1 3458   2.448  10.795   5.510  0.8999  0.9048 -0.0082
   20FTM     C5 3459   2.650  10.583   5.435 -0.5356 -0.5724 -0.9450
   20FTM     C6 3460   2.593  10.486   5.549 -1.0323 -1.0072 -0.6449
   20FTM     C7 3461   2.547  10.560   5.671 -0.0362  1.5790  0.6670
   20FTM     C8 3462   2.635  10.575   5.796  1.3758 -0.1795  0.0405
   20FTM     C9 3463   2.547  10.598   5.922 -2.0306 -0.5479 -0.7937
   20FTM    C10 3464   2.510  10.485   6.002  0.3410  0.6757  0.2146
   20FTM    C11 3465   2.528  10.357   5.522 -0.8444 -0.5253 -0.7302
   20FTM    C12 3466   2.563  10.283   5.389 -1.9489 -0.1559  0.5391
   21FTM     S1 3467   1.921  10.837   4.623 -0.1909  0.4560  0.2164
   21FTM     C1 3468   1.776  10.745   4.568  0.0827 -0.1198  0.4288
   21FTM     C2 3469   1.753  10.640   4.650  0.3741  0.0339  0.7108
   21FTM     C3 3470   1.845  10.623   4.759  0.4017  0.5944  0.7774
   21FTM     C4 3471   1.941  10.720   4.760  0.1224  0.8800  0.5384
   21FTM     F1 3472   1.648  10.551   4.632  0.6332 -0.3247  0.9254
   21FTM     C5 3473   1.756  10.784   4.424  0.8332 -0.6238 -0.9548
   21FTM     C6 3474   1.616  10.843   4.392  1.1150  0.1424 -1.7374
   21FTM     C7 3475   1.604  10.884   4.246  0.4987 -0.2036 -0.5282
   21FTM     C8 3476   1.576  11.030   4.221 -1.3704 -0.4344 -0.2074
   21FTM     C9 3477   1.577  11.139   4.340  0.1974  0.6553 -0.2814
   21FTM    C10 3478   1.514  11.275   4.306 -0.0679 -1.3815  0.5155
   21FTM    C11 3479   1.478  10.786   4.450 -1.7346  0.8429  0.5094
   21FTM    C12 3480   1.350  10.853   4.420  0.1340 -0.2009  0.3381
   22TPM     C1 3481   1.882  11.043   5.194 -0.6972 -0.2416  0.3382
   22TPM     C2 3482   1.897  11.108   5.313 -1.1806 -0.1495  0.3542
   22TPM     C3 3483   1.805  11.216   5.333 -1.3673 -0.2356 -0.0340
   22TPM     C4 3484   1.719  11.235   5.228 -1.0263 -0.3935 -0.3460
   22TPM     S1 3485   1.749  11.115   5.096 -0.4383 -0.4457 -0.1724
   23BDD     C1 3486   1.350  11.290   5.281  0.0570 -0.1527  0.3554
   23BDD     C2 3487   1.406  11.413   5.299  0.0123 -0.1280  0.3277
   23BDD     C3 3488   1.551  11.412   5.286 -0.0043 -0.0429  0.1286
   23BDD     C4 3489   1.602  11.288   5.259  0.0279 -0.0037  0.0078
   23BDD     S1 3490   1.473  11.164   5.248  0.0812 -0.0708  0.1347
   23BDD     C5 3491   1.329  11.536   5.327 -0.0167 -0.1819  0.4829
   23BDD     C6 3492   1.633  11.534   5.300 -0.0516 -0.0036  0.0657
   23BDD     O1 3493   1.757  11.534   5.289 -0.0660  0.0696 -0.1059
   23BDD     O2 3494   1.205  11.536   5.338 -0.0024 -0.2556  0.6545
   23BDD     C7 3495   1.556  11.657   5.329 -0.0806 -0.0575  0.2208
   23BDD     C8 3496   1.411  11.658   5.342 -0.0640 -0.1426  0.4199
   23BDD     C9 3497   1.360  11.782   5.369 -0.0962 -0.1817  0.5407
   23BDD     S2 3498   1.489  11.906   5.380 -0.1496 -0.1150  0.4136
   23BDD    C10 3499   1.613  11.781   5.346 -0.1253 -0.0331  0.1929
   23BDD    C11 3500   1.731  11.850   5.287  1.6212 -1.6717 -0.3001
   23BDD    C12 3501   1.837  11.873   5.390 -0.8900 -0.5090 -0.5627
   23BDD    C13 3502   1.946  11.747   5.390 -0.1255 -0.4250 -0.1802
   23BDD    C14 3503   2.072  11.793   5.330 -0.7638  0.0091  0.4435
   23BDD    C15 3504   2.074  11.816   5.177  0.4772  2.3922  0.5471
   23BDD    C16 3505   2.189  11.904   5.135 -0.5446 -0.5975  0.9858
   23BDD    C17 3506   1.790  11.926   5.524  0.1494  0.2833  1.3974
   23BDD    C18 3507   1.771  12.079   5.522 -0.0514 -0.8648  0.6709
   23BDD    C19 3508   1.213  11.822   5.392 -0.0899  1.0974 -0.4176
   23BDD    C20 3509   1.164  11.824   5.547 -1.0224  1.2946 -1.1256
   23BDD    C21 3510   1.217  11.949   5.621  0.4313 -0.3701 -0.3728
   23BDD    C22 3511   1.253  12.076   5.549 -0.4439 -1.8045  0.0592
   23BDD    C23 3512   1.158  12.194   5.508 -0.4950 -1.4423  0.4184
   23BDD    C24 3513   1.045  12.160   5.417 -0.1229  1.1653  0.5654
   23BDD    C25 3514   1.137  11.677   5.604 -0.3002 -0.8997 -0.3659
   23BDD    C26 3515   1.160  11.643   5.760 -0.1435 -0.0141 -0.6040
   24TPM     C1 3516   1.227  11.226   5.259  0.4951  0.0969  0.0606
   24TPM     C2 3517   1.144  11.278   5.163  0.9454  0.3281 -0.2099
   24TPM     C3 3518   1.027  11.198   5.139  0.6510  0.8056 -0.3744
   24TPM     C4 3519   1.020  11.086   5.215 -0.0237  0.9384 -0.2291
   24TPM     S1 3520   1.162  11.071   5.325 -0.3421  0.4670  0.1294
   25BDTP    C1 3521   0.644  10.656   5.464  0.2109  0.1326 -0.1780
   25BDTP    C2 3522   0.652  10.606   5.331  0.1270  0.1354 -0.1839
   25BDTP    C3 3523   0.724  10.669   5.231  0.0898  0.1204 -0.2207
   25BDTP    C4 3524   0.793  10.787   5.264  0.1376  0.1018 -0.2533
   25BDTP    C5 3525   0.786  10.837   5.397  0.2215  0.0989 -0.2475
   25BDTP    C6 3526   0.713  10.774   5.497  0.2586  0.1141 -0.2106
   25BDTP    C7 3527   0.875  10.870   5.178  0.1126  0.0841 -0.2940
   25BDTP    C8 3528   0.929  10.978   5.239  0.1729  0.0682 -0.3189
   25BDTP    S1 3529   0.883  10.991   5.415  0.2699  0.0737 -0.2940
   25BDTP    C9 3530   0.562  10.573   5.550  0.2359  0.1504 -0.1372
   25BDTP   C10 3531   0.509  10.465   5.489  0.1756  0.1662 -0.1125
   25BDTP    S2 3532   0.554  10.453   5.313  0.0786  0.1607 -0.1373
   26FTM     S1 3533   0.871  10.535   5.039 -0.0446  0.0250 -0.3244
   26FTM     C1 3534   0.812  10.533   4.869  0.4646  0.7708 -0.5151
   26FTM     C2 3535   0.692  10.595   4.861  0.6454  1.1082 -0.6688
   26FTM     C3 3536   0.638  10.647   4.983  0.4048  0.8144 -0.6478
   26FTM     C4 3537   0.721  10.623   5.089  0.0275  0.2334 -0.4728
   26FTM     F1 3538   0.622  10.610   4.741  1.0395  1.7028 -0.8373
   26FTM     C5 3539   0.913  10.466   4.788  0.0446 -1.5569 -0.3368
   26FTM     C6 3540   1.021  10.546   4.709  0.5678 -0.7839 -0.3249
   26FTM     C7 3541   1.007  10.704   4.671 -1.1662  0.5212 -0.7738
   26FTM     C8 3542   0.930  10.759   4.547 -0.8045  0.6951  0.5778
   26FTM     C9 3543   1.017  10.748   4.416  0.8674  0.4696 -0.9485
   26FTM    C10 3544   1.102  10.616   4.390  0.6348  0.0368  0.7338
   26FTM    C11 3545   1.159  10.504   4.756 -0.2768  2.1557  0.2504
   26FTM    C12 3546   1.185  10.361   4.725  0.4519 -0.6080  0.1545
   27FTM     S1 3547   0.586  10.935   5.692 -0.2325 -0.0130  0.2241
   27FTM     C1 3548   0.632  10.892   5.861  0.6186 -0.2323 -0.0529
   27FTM     C2 3549   0.731  10.799   5.860  0.3985 -0.4725 -0.6758
   27FTM     C3 3550   0.777  10.757   5.731 -0.4254 -0.4995 -0.9685
   27FTM     C4 3551   0.710  10.819   5.630 -0.8501 -0.2726 -0.5563
   27FTM     F1 3552   0.787  10.748   5.976  0.9300 -0.6821 -1.0179
   27FTM     C5 3553   0.529  10.938   5.958 -1.3699 -0.7717 -0.1999
   27FTM     C6 3554   0.539  11.097   6.004  0.0967  1.6231  0.0774
   27FTM     C7 3555   0.675  11.120   6.072 -0.9515 -0.3241  0.9388
   27FTM     C8 3556   0.759  11.255   6.048  0.5022  1.0225 -0.2097
   27FTM     C9 3557   0.775  11.300   5.894  1.2769  0.6428  0.2006
   27FTM    C10 3558   0.880  11.258   5.799  0.8941 -0.2366 -0.0721
   27FTM    C11 3559   0.442  11.121   6.114 -0.2617 -0.5052  0.6134
   27FTM    C12 3560   0.299  11.119   6.075  0.2077 -0.5490 -0.3081
   28TPM     C1 3561   0.406  10.390   5.552  0.3853  0.0620 -0.0033
   28TPM     C2 3562   0.286  10.363   5.493  0.4505  0.4764 -0.3376
   28TPM     C3 3563   0.191  10.301   5.581 -0.0200  0.8202 -0.5972
   28TPM     C4 3564   0.237  10.282   5.708 -0.4439  0.6675 -0.4607
   28TPM     S1 3565   0.407  10.340   5.725 -0.2805  0.0730  0.0099
   29BDD     C1 3566   0.039  10.053   5.954  0.3771 -0.2273  0.5789
   29BDD     C2 3567   0.078  10.160   6.029  0.1800 -0.0916  0.4891
   29BDD     C3 3568   0.155  10.258   5.953 -0.1830  0.0930  0.3542
   29BDD     C4 3569   0.173  10.223   5.822 -0.2574  0.0954  0.3434
   29BDD     S1 3570   0.095  10.066   5.784  0.1218 -0.1335  0.5010
   29BDD     C5 3571   0.047  10.177   6.172  0.3181 -0.1266  0.5237
   29BDD     C6 3572   0.207  10.382   6.014 -0.4428  0.2604  0.2409
   29BDD     O1 3573   0.273  10.466   5.949 -0.7558  0.4194  0.1246
   29BDD     O2 3574  -0.019  10.093   6.237  0.6311 -0.2856  0.6400
   29BDD     C7 3575   0.176  10.399   6.157 -0.3047  0.2253  0.2756
   29BDD     C8 3576   0.099  10.301   6.233  0.0583  0.0408  0.4106
   29BDD     C9 3577   0.081  10.336   6.364  0.1327  0.0381  0.4215
   29BDD     S2 3578   0.159  10.493   6.402 -0.2465  0.2670  0.2637
   29BDD    C10 3579   0.215  10.507   6.232 -0.5018  0.3607  0.1857
   29BDD    C11 3580   0.302  10.631   6.217 -0.2100  0.6374 -1.1044
   29BDD    C12 3581   0.448  10.609   6.281 -0.7549 -0.2959 -0.5758
   29BDD    C13 3582   0.536  10.490   6.236  0.2655 -0.4578 -0.8843
   29BDD    C14 3583   0.561  10.488   6.090 -1.3287 -0.9279  0.7902
   29BDD    C15 3584   0.686  10.398   6.050  0.1080 -2.0251  0.5282
   29BDD    C16 3585   0.709  10.410   5.908 -0.3444 -1.1407  0.9769
   29BDD    C17 3586   0.509  10.730   6.375  1.1895 -0.0053  0.2844
   29BDD    C18 3587   0.444  10.772   6.515  0.0733 -0.3122  1.7728
   29BDD    C19 3588   0.001  10.264   6.463 -0.0898 -0.9671 -0.0263
   29BDD    C20 3589  -0.108  10.345   6.517  0.5660 -0.4421  0.6163
   29BDD    C21 3590  -0.171  10.257   6.630  1.4459  0.0305 -1.1481
   29BDD    C22 3591  -0.302  10.175   6.601  0.0630  0.2816  0.4778
   29BDD    C23 3592  -0.368  10.086   6.704  0.2909  0.9093 -0.4546
   29BDD    C24 3593  -0.492  10.006   6.669 -1.1515 -0.0869  0.6548
   29BDD    C25 3594  -0.201  10.414   6.416 -0.0323  0.9118  0.2524
   29BDD    C26 3595  -0.308  10.516   6.451 -0.6930 -0.2544  0.4323
   30TPM     C1 3596  -0.033   9.926   5.976  0.1835  0.3919  0.0522
   30TPM     C2 3597  -0.129   9.882   5.890 -0.0179  0.6950  0.1172
   30TPM     C3 3598  -0.171   9.746   5.915 -0.0994  0.6716 -0.1427
   30TPM     C4 3599  -0.106   9.687   6.020  0.0396  0.3504 -0.4061
   30TPM     S1 3600   0.013   9.799   6.096  0.2864  0.0504 -0.3454
   31BDTP    C1 3601   0.028   9.086   6.161  0.5026  0.0761  0.2006
   31BDTP    C2 3602  -0.010   9.074   6.024  0.4151 -0.0157  0.2327
   31BDTP    C3 3603  -0.054   9.182   5.948  0.3653 -0.0670  0.1886
   31BDTP    C4 3604  -0.060   9.308   6.011  0.4029 -0.0257  0.1084
   31BDTP    C5 3605  -0.022   9.320   6.147  0.4902  0.0663  0.0762
   31BDTP    C6 3606   0.022   9.212   6.223  0.5400  0.1175  0.1205
   31BDTP    C7 3607  -0.102   9.434   5.953  0.3640 -0.0646  0.0509
   31BDTP    C8 3608  -0.097   9.539   6.039  0.4170 -0.0076 -0.0221
   31BDTP    S1 3609  -0.038   9.493   6.204  0.5236  0.1042 -0.0280
   31BDTP    C9 3610   0.070   8.960   6.218  0.5412  0.1149  0.2582
   31BDTP   C10 3611   0.065   8.855   6.133  0.4885  0.0577  0.3309
   31BDTP    S2 3612   0.007   8.902   5.967  0.3817 -0.0540  0.3370
   32FTM     S1 3613  -0.214   9.173   5.688  0.0192 -0.2474  0.0274
   32FTM     C1 3614  -0.112   9.191   5.540 -0.0943 -1.3150 -0.1966
   32FTM     C2 3615   0.018   9.208   5.575 -0.0851 -0.9291 -0.4144
   32FTM     C3 3616   0.046   9.209   5.716  0.0081  0.1929 -0.4200
   32FTM     C4 3617  -0.066   9.191   5.791  0.0731  0.6820 -0.1993
   32FTM     F1 3618   0.119   9.225   5.482 -0.1612 -1.5693 -0.6213
   32FTM     C5 3619  -0.158   9.204   5.390 -0.3133  0.3166 -1.0560
   32FTM     C6 3620  -0.259   9.096   5.341 -1.0319 -0.5869 -0.6324
   32FTM     C7 3621  -0.318   9.114   5.193 -0.3419  0.0078 -1.0869
   32FTM     C8 3622  -0.233   9.161   5.068 -1.9034  1.1101 -0.7813
   32FTM     C9 3623  -0.317   9.130   4.947 -1.4639  0.5950 -1.7863
   32FTM    C10 3624  -0.305   8.983   4.941 -0.9135  1.6631  0.2541
   32FTM    C11 3625  -0.249   8.948   5.394 -0.5764 -0.3700  0.3150
   32FTM    C12 3626  -0.389   8.892   5.406  0.5425 -0.5503  1.6503
   33FTM     S1 3627  -0.074   9.285   6.477 -0.1233 -0.3067 -0.0357
   33FTM     C1 3628   0.045   9.289   6.611  0.2699 -0.0411 -0.3879
   33FTM     C2 3629   0.169   9.257   6.564  0.2279  0.3486 -0.7766
   33FTM     C3 3630   0.178   9.228   6.424 -0.1042  0.4616 -0.8235
   33FTM     C4 3631   0.057   9.238   6.362 -0.3238  0.1483 -0.4583
   33FTM     F1 3632   0.281   9.252   6.646  0.4878  0.6261 -1.1134
   33FTM     C5 3633  -0.011   9.372   6.733  0.1658 -0.6247 -0.9163
   33FTM     C6 3634  -0.047   9.293   6.867  0.7699  1.6998  0.3903
   33FTM     C7 3635   0.075   9.245   6.944  0.6596  0.9683 -1.2291
   33FTM     C8 3636   0.182   9.331   7.006 -1.0549 -1.1977  0.0253
   33FTM     C9 3637   0.315   9.251   7.061 -0.0813  0.5356  0.3631
   33FTM    C10 3638   0.402   9.174   6.961  0.7829  0.4867  1.3163
   33FTM    C11 3639  -0.161   9.194   6.818  0.4194  0.1996  0.6874
   33FTM    C12 3640  -0.215   9.112   6.934 -1.2715  1.0390 -0.1099
   34TPM     C1 3641   0.075   8.713   6.143  0.0139  0.1910 -0.0973
   34TPM     C2 3642   0.178   8.626   6.164  0.0322  0.3192  0.3836
   34TPM     C3 3643   0.135   8.494   6.203  0.0107  0.2618  0.1698
   34TPM     C4 3644  -0.000   8.481   6.212 -0.0232  0.0901 -0.4740
   34TPM     S1 3645  -0.085   8.635   6.172 -0.0311 -0.0137 -0.8634
   35BDD     C1 3646  -0.157   8.166   6.392  0.0972  0.1903  0.1706
   35BDD     C2 3647  -0.094   8.238   6.490  0.1945  0.1564  0.1329
   35BDD     C3 3648  -0.030   8.359   6.441  0.2134  0.1326  0.0979
   35BDD     C4 3649  -0.045   8.378   6.307  0.1302  0.1480  0.1096
   35BDD     S1 3650  -0.140   8.246   6.232  0.0219  0.1938  0.1650
   35BDD     C5 3651  -0.090   8.197   6.632  0.2739  0.1450  0.1277
   35BDD     C6 3652   0.043   8.451   6.530  0.3138  0.0949  0.0544
   35BDD     O1 3653   0.098   8.555   6.489  0.3302  0.0741  0.0243
   35BDD     O2 3654  -0.145   8.093   6.674  0.2577  0.1655  0.1577
   35BDD     C7 3655   0.047   8.410   6.672  0.3932  0.0834  0.0492
   35BDD     C8 3656  -0.016   8.289   6.721  0.3741  0.1073  0.0842
   35BDD     C9 3657  -0.001   8.270   6.855  0.4573  0.0913  0.0727
   35BDD     S2 3658   0.094   8.402   6.931  0.5655  0.0459  0.0172
   35BDD    C10 3659   0.110   8.482   6.771  0.4904  0.0496  0.0117
   35BDD    C11 3660   0.189   8.604   6.753  0.3135 -0.3953 -0.7889
   35BDD    C12 3661   0.144   8.737   6.825  0.3338  0.8087 -1.2422
   35BDD    C13 3662   0.003   8.795   6.791  0.0634 -0.0938  0.1006
   35BDD    C14 3663  -0.045   8.810   6.635 -0.4081 -0.3270 -0.3019
   35BDD    C15 3664  -0.185   8.871   6.645  0.6609  0.4599  0.0547
   35BDD    C16 3665  -0.247   8.895   6.496 -0.0202  0.7797 -1.6679
   35BDD    C17 3666   0.195   8.742   6.985 -1.1034  0.9969  0.2627
   35BDD    C18 3667   0.190   8.862   7.068  0.9009 -0.4408  0.8385
   35BDD    C19 3668  -0.026   8.163   6.956  0.2016 -0.4833  0.7137
   35BDD    C20 3669   0.062   8.054   6.932 -0.6183  0.5359 -1.1227
   35BDD    C21 3670   0.036   7.930   7.015  0.2706 -0.4065 -0.5199
   35BDD    C22 3671  -0.099   7.886   7.037 -0.5487  1.7523 -0.4847
   35BDD    C23 3672  -0.087   7.750   7.109 -0.4847 -0.2338  1.0139
   35BDD    C24 3673  -0.104   7.732   7.244 -0.3042  0.9512 -0.1493
   35BDD    C25 3674   0.212   8.075   6.917  0.1325  2.4916 -0.2243
   35BDD    C26 3675   0.281   7.941   6.863  0.2388 -0.9381 -0.4286
   36TPM     C1 3676  -0.241   8.050   6.386  0.1482 -0.1001  1.1413
   36TPM     C2 3677  -0.341   8.020   6.474  0.5925 -0.4721  1.5364
   36TPM     C3 3678  -0.416   7.902   6.439  0.4330 -0.3392  1.4225
   36TPM     C4 3679  -0.372   7.841   6.325 -0.1328  0.1343  0.9406
   36TPM     S1 3680  -0.233   7.929   6.252 -0.5110  0.4515  0.5905
   37BDTP    C1 3681  -0.590   7.282   6.174  0.0441  0.0985  0.0894
   37BDTP    C2 3682  -0.470   7.288   6.097  0.1400  0.0653  0.2346
   37BDTP    C3 3683  -0.385   7.398   6.097  0.1342  0.0696  0.2842
   37BDTP    C4 3684  -0.420   7.508   6.177  0.0298  0.1082  0.1862
   37BDTP    C5 3685  -0.540   7.503   6.254 -0.0658  0.1414  0.0411
   37BDTP    C6 3686  -0.624   7.393   6.254 -0.0604  0.1371 -0.0086
   37BDTP    C7 3687  -0.348   7.633   6.194  0.0035  0.1201  0.2127
   37BDTP    C8 3688  -0.407   7.720   6.278 -0.1056  0.1596  0.0958
   37BDTP    S1 3689  -0.562   7.657   6.349 -0.1910  0.1879 -0.0641
   37BDTP    C9 3690  -0.661   7.158   6.157  0.0703  0.0869  0.0629
   37BDTP   C10 3691  -0.602   7.070   6.073  0.1798  0.0472  0.1798
   37BDTP    S2 3692  -0.447   7.133   6.002  0.2650  0.0189  0.3397
   38FTM     S1 3693  -0.122   7.501   5.990  0.2354 -0.0127 -0.4072
   38FTM     C1 3694  -0.142   7.533   5.814 -0.2918  0.7798 -0.2165
   38FTM     C2 3695  -0.263   7.488   5.772 -0.5286  1.2124 -0.0069
   38FTM     C3 3696  -0.347   7.428   5.872 -0.3192  0.9603  0.0179
   38FTM     C4 3697  -0.287   7.426   5.994  0.0910  0.3134 -0.1795
   38FTM     F1 3698  -0.306   7.499   5.641 -0.9487  1.8624  0.1752
   38FTM     C5 3699  -0.043   7.599   5.730  0.3890 -0.7984  1.5361
   38FTM     C6 3700   0.101   7.654   5.790  0.8146  1.3359  0.6895
   38FTM     C7 3701   0.193   7.543   5.845  0.7947 -0.9562 -0.8860
   38FTM     C8 3702   0.329   7.501   5.803  0.2336  0.3718  1.5285
   38FTM     C9 3703   0.319   7.384   5.716 -0.6131  0.1451  0.2812
   38FTM    C10 3704   0.345   7.438   5.570  1.0697 -0.2647  0.5018
   38FTM    C11 3705   0.089   7.794   5.863  0.2104 -0.0622  1.4696
   38FTM    C12 3706   0.229   7.869   5.879  0.0739  0.9883 -0.1389
   39FTM     S1 3707  -0.910   7.431   6.307 -0.0420  0.1861  0.0625
   39FTM     C1 3708  -0.967   7.344   6.455  0.2096  0.1492  0.1382
   39FTM     C2 3709  -0.861   7.292   6.521  0.2997 -0.1024 -0.2017
   39FTM     C3 3710  -0.732   7.314   6.463  0.1812 -0.2779 -0.5337
   39FTM     C4 3711  -0.740   7.387   6.348 -0.0053 -0.1565 -0.4451
   39FTM     F1 3712  -0.874   7.219   6.639  0.4942 -0.1889 -0.2325
   39FTM     C5 3713  -1.104   7.351   6.525  0.2807 -0.7288  0.8932
   39FTM     C6 3714  -1.153   7.239   6.596  1.0486  0.9478 -1.2646
   39FTM     C7 3715  -1.261   7.272   6.703  0.8972  0.1541  0.8172
   39FTM     C8 3716  -1.261   7.377   6.802 -0.7783  1.0417 -0.8290
   39FTM     C9 3717  -1.384   7.411   6.900  0.0433  1.1146  1.4375
   39FTM    C10 3718  -1.351   7.540   6.970  1.8120 -1.0644 -0.7143
   39FTM    C11 3719  -1.196   7.111   6.527 -0.0552 -0.3778  1.2893
   39FTM    C12 3720  -1.282   7.129   6.407  0.0726  0.0596  0.6009
   40TPM     C1 3721  -0.639   6.937   6.034 -0.1937  0.0965  0.4092
   40TPM     C2 3722  -0.613   6.874   5.917  0.1488  0.2720  0.3893
   40TPM     C3 3723  -0.649   6.735   5.916  0.4935  0.1807  0.1991
   40TPM     C4 3724  -0.703   6.691   6.034  0.4139 -0.0647  0.0740
   40TPM     S1 3725  -0.713   6.825   6.155 -0.1068 -0.2003  0.1875
   41BDD     C1 3726  -0.851   6.346   6.175  0.1096 -0.0841  0.4711
   41BDD     C2 3727  -0.764   6.309   6.076  0.1054  0.0205  0.4278
   41BDD     C3 3728  -0.701   6.422   6.009 -0.2170  0.1054  0.2587
   41BDD     C4 3729  -0.740   6.543   6.059 -0.4537  0.0640  0.1754
   41BDD     S1 3730  -0.859   6.525   6.192 -0.2897 -0.0839  0.3030
   41BDD     C5 3731  -0.736   6.169   6.038  0.3974  0.0465  0.5403
   41BDD     C6 3732  -0.603   6.405   5.899 -0.2785  0.2242  0.1858
   41BDD     O1 3733  -0.549   6.502   5.842 -0.5567  0.2973  0.0402
   41BDD     O2 3734  -0.791   6.072   6.095  0.6754 -0.0266  0.6860
   41BDD     C7 3735  -0.576   6.265   5.862  0.0136  0.2502  0.2984
   41BDD     C8 3736  -0.639   6.152   5.928  0.3362  0.1655  0.4674
   41BDD     C9 3737  -0.600   6.031   5.879  0.5729  0.2068  0.5507
   41BDD     S2 3738  -0.481   6.049   5.746  0.4086  0.3546  0.4232
   41BDD    C10 3739  -0.489   6.228   5.763  0.0093  0.3550  0.2551
   41BDD    C11 3740  -0.406   6.299   5.648  0.3817 -1.6156 -0.5443
   41BDD    C12 3741  -0.272   6.381   5.680  0.3152 -0.3537  0.5812
   41BDD    C13 3742  -0.227   6.449   5.541 -0.1485  1.5910 -0.2525
   41BDD    C14 3743  -0.110   6.365   5.463 -0.4850  0.0223  0.0782
   41BDD    C15 3744  -0.072   6.408   5.316 -0.0047  1.4165 -1.2652
   41BDD    C16 3745  -0.065   6.551   5.286  0.1260 -0.8038  0.8257
   41BDD    C17 3746  -0.196   6.365   5.805  0.5734  0.7716  0.9531
   41BDD    C18 3747  -0.197   6.491   5.889 -0.5763 -0.3140 -0.3191
   41BDD    C19 3748  -0.663   5.888   5.895 -0.3760  0.8635 -0.5697
   41BDD    C20 3749  -0.555   5.784   5.953  0.1200  1.1405 -0.2352
   41BDD    C21 3750  -0.577   5.680   6.074  1.0085  0.0117 -0.2885
   41BDD    C22 3751  -0.649   5.735   6.202 -0.0569  0.7731  0.4085
   41BDD    C23 3752  -0.576   5.847   6.294 -0.0783 -0.4239 -0.3822
   41BDD    C24 3753  -0.509   5.782   6.410 -0.3292 -0.7433  0.1945
   41BDD    C25 3754  -0.445   5.731   5.859 -1.3352  1.2279 -0.5563
   41BDD    C26 3755  -0.499   5.627   5.754 -0.2548 -1.2373  0.7507
   42TPM     C1 3756  -0.946   6.273   6.267 -0.2804 -0.3865 -0.0412
   42TPM     C2 3757  -1.038   6.179   6.230 -0.9708  0.1953  0.1577
   42TPM     C3 3758  -1.118   6.131   6.339 -0.8864  0.5411  0.3757
   42TPM     C4 3759  -1.087   6.188   6.459 -0.1312  0.2229  0.3430
   42TPM     S1 3760  -0.953   6.308   6.443  0.5368 -0.5440  0.0319
   43BDTP    C1 3761  -1.391   5.886   6.926  0.1552  0.0533 -0.0361
   43BDTP    C2 3762  -1.370   5.782   6.831  0.3598 -0.1497  0.2296
   43BDTP    C3 3763  -1.299   5.800   6.714  0.4475 -0.3494  0.2508
   43BDTP    C4 3764  -1.246   5.928   6.688  0.3290 -0.3492 -0.0015
   43BDTP    C5 3765  -1.267   6.032   6.783  0.1247 -0.1459 -0.2674
   43BDTP    C6 3766  -1.338   6.014   6.900  0.0363  0.0536 -0.2884
   43BDTP    C7 3767  -1.168   5.971   6.573  0.3871 -0.5352 -0.0329
   43BDTP    C8 3768  -1.131   6.101   6.577  0.2384 -0.4821 -0.3058
   43BDTP    S1 3769  -1.188   6.187   6.727  0.0031 -0.1892 -0.5614
   43BDTP    C9 3770  -1.469   5.843   7.041  0.0968  0.2393 -0.0049
   43BDTP   C10 3771  -1.506   5.713   7.037  0.2463  0.1862  0.2679
   43BDTP    S2 3772  -1.449   5.627   6.887  0.4810 -0.1067  0.5237
   44FTM     S1 3773  -1.366   5.649   6.491 -0.3723 -0.2719  0.5884
   44FTM     C1 3774  -1.237   5.537   6.436 -0.6851 -0.5819  0.4766
   44FTM     C2 3775  -1.134   5.537   6.525 -0.4530 -0.5572  0.2110
   44FTM     C3 3776  -1.149   5.623   6.638 -0.0284 -0.3017  0.0813
   44FTM     C4 3777  -1.268   5.690   6.637  0.0683 -0.1254  0.2534
   44FTM     F1 3778  -1.020   5.460   6.508 -0.6118 -0.7643  0.0695
   44FTM     C5 3779  -1.240   5.463   6.301 -1.1158 -0.1283 -0.4905
   44FTM     C6 3780  -1.261   5.312   6.302  0.6941 -0.1263 -0.6900
   44FTM     C7 3781  -1.219   5.215   6.201 -0.3505 -1.1092  1.3039
   44FTM     C8 3782  -1.060   5.195   6.178 -0.5779 -0.3525  0.4984
   44FTM     C9 3783  -0.971   5.081   6.121  1.7349 -0.0304  1.1470
   44FTM    C10 3784  -0.982   4.950   6.215  0.5984  0.0262 -0.5528
   44FTM    C11 3785  -1.381   5.254   6.383 -0.0018 -0.0780 -0.2261
   44FTM    C12 3786  -1.358   5.252   6.534  1.0499 -0.1505 -0.4937
   45FTM     S1 3787  -1.431   6.269   6.892 -0.2197  0.0192  0.2201
   45FTM     C1 3788  -1.456   6.365   7.043  0.4249 -0.1823  0.4591
   45FTM     C2 3789  -1.422   6.290   7.151  0.1740 -0.5943  0.2589
   45FTM     C3 3790  -1.375   6.157   7.124 -0.5176 -0.7739 -0.0844
   45FTM     C4 3791  -1.374   6.129   6.991 -0.8067 -0.4904 -0.1490
   45FTM     F1 3792  -1.430   6.338   7.281  0.5565 -0.8329  0.3744
   45FTM     C5 3793  -1.509   6.509   7.041  0.0820 -1.5436 -1.2083
   45FTM     C6 3794  -1.452   6.624   6.963  1.4744 -0.3801 -0.0642
   45FTM     C7 3795  -1.509   6.759   7.016  0.1559  1.2245 -0.3708
   45FTM     C8 3796  -1.660   6.760   6.980  0.3336 -1.6674  0.7605
   45FTM     C9 3797  -1.769   6.871   7.019 -0.9105  0.0074  0.1436
   45FTM    C10 3798  -1.789   6.956   7.137  0.0370 -0.2986  0.2996
   45FTM    C11 3799  -1.296   6.620   6.953 -1.3490 -0.1669 -0.7243
   45FTM    C12 3800  -1.222   6.528   6.846 -0.2316  0.7949 -0.2213
   46TPM     C1 3801  -1.586   5.634   7.128  0.3364  0.3196 -0.0328
   46TPM     C2 3802  -1.665   5.526   7.101  0.6726  0.0843 -0.0836
   46TPM     C3 3803  -1.739   5.478   7.214  0.7017 -0.1013 -0.1434
   46TPM     C4 3804  -1.717   5.549   7.329  0.3877 -0.0077 -0.1385
   46TPM     S1 3805  -1.600   5.683   7.302  0.0281  0.3248 -0.0568
   47BDD     C1 3806  -2.030   5.487   7.555  0.2781  0.0910 -0.1285
   47BDD     C2 3807  -1.920   5.458   7.631  0.3042  0.1351 -0.1490
   47BDD     C3 3808  -1.795   5.490   7.566  0.2728  0.4308 -0.0688
   47BDD     C4 3809  -1.810   5.543   7.441  0.2224  0.6078  0.0117
   47BDD     S1 3810  -1.983   5.557   7.396  0.2115  0.4164 -0.0073
   47BDD     C5 3811  -1.927   5.400   7.767  0.3593 -0.0927 -0.2432
   47BDD     C6 3812  -1.664   5.466   7.630  0.2933  0.5271 -0.0750
   47BDD     O1 3813  -1.555   5.494   7.574  0.2661  0.7821 -0.0057
   47BDD     O2 3814  -2.036   5.372   7.823  0.3865 -0.3477 -0.3124
   47BDD     C7 3815  -1.670   5.408   7.766  0.3483  0.2992 -0.1693
   47BDD     C8 3816  -1.796   5.376   7.831  0.3800  0.0035 -0.2496
   47BDD     C9 3817  -1.781   5.323   7.956  0.4296 -0.1734 -0.3303
   47BDD     S2 3818  -1.608   5.309   8.001  0.4409  0.0180 -0.3114
   47BDD    C10 3819  -1.561   5.379   7.842  0.3746  0.3434 -0.1900
   47BDD    C11 3820  -1.408   5.370   7.823  0.7165  0.5695  0.2646
   47BDD    C12 3821  -1.331   5.497   7.817 -1.1509 -0.1921 -0.5109
   47BDD    C13 3822  -1.365   5.607   7.925  0.8898  0.2854 -0.6580
   47BDD    C14 3823  -1.313   5.749   7.899 -0.1645 -0.3066  0.1051
   47BDD    C15 3824  -1.266   5.852   8.014  0.8973  0.1687 -0.1551
   47BDD    C16 3825  -1.154   5.803   8.119  0.1548 -0.1979 -0.9401
   47BDD    C17 3826  -1.179   5.470   7.798  0.1214  0.2844 -0.3413
   47BDD    C18 3827  -1.090   5.561   7.717 -0.4636 -0.3171 -0.6798
   47BDD    C19 3828  -1.883   5.274   8.059  1.1025  0.5703 -0.7702
   47BDD    C20 3829  -1.942   5.128   8.059  0.7503 -0.4098  2.1556
   47BDD    C21 3830  -2.030   5.082   8.179  0.6620 -0.3072 -0.4294
   47BDD    C22 3831  -2.146   5.169   8.223 -0.7030  0.5366  0.8074
   47BDD    C23 3832  -2.271   5.115   8.178 -0.1318 -0.1461  0.6998
   47BDD    C24 3833  -2.389   5.199   8.240  0.9940  0.0597  0.3579
   47BDD    C25 3834  -1.818   5.043   8.070  0.5212 -0.1079  0.0053
   47BDD    C26 3835  -1.798   4.957   7.948 -1.0194  0.1968 -0.5541
   48TPM     C1 3836  -2.176   5.476   7.569  0.4572 -0.7350 -0.1893
   48TPM     C2 3837  -2.244   5.373   7.626  0.4039 -0.7820 -0.3399
   48TPM     C3 3838  -2.387   5.384   7.613  0.4082 -0.6716 -0.2939
   48TPM     C4 3839  -2.427   5.496   7.546  0.4651 -0.5403 -0.1085
   48TPM     S1 3840  -2.287   5.597   7.495  0.5181 -0.5461  0.0238
   49BDTP    C1 3841  -3.018   5.701   7.512 -0.0014  0.3386  0.1225
   49BDTP    C2 3842  -2.944   5.814   7.467  0.1202  0.2704  0.1496
   49BDTP    C3 3843  -2.805   5.815   7.460  0.1256  0.1552  0.2376
   49BDTP    C4 3844  -2.736   5.699   7.500  0.0057  0.1051  0.3023
   49BDTP    C5 3845  -2.810   5.586   7.545 -0.1163  0.1738  0.2753
   49BDTP    C6 3846  -2.949   5.585   7.552 -0.1218  0.2889  0.1871
   49BDTP    C7 3847  -2.593   5.677   7.501 -0.0133 -0.0120  0.3975
   49BDTP    C8 3848  -2.556   5.554   7.545 -0.1421 -0.0346  0.4425
   49BDTP    S1 3849  -2.698   5.449   7.590 -0.2570  0.0895  0.3711
   49BDTP    C9 3850  -3.161   5.723   7.511  0.0176  0.4559  0.0273
   49BDTP   C10 3851  -3.198   5.846   7.467  0.1462  0.4785 -0.0178
   49BDTP    S2 3852  -3.056   5.951   7.422  0.2614  0.3545  0.0538
   50FTM     S1 3853  -2.645   6.052   7.531 -0.3680  0.3660  0.6722
   50FTM     C1 3854  -2.631   6.172   7.397  0.7325  0.0175  0.4548
   50FTM     C2 3855  -2.694   6.125   7.287  1.1754 -0.0347  0.2189
   50FTM     C3 3856  -2.756   5.997   7.299  0.6979  0.1875  0.1932
   50FTM     C4 3857  -2.739   5.943   7.423 -0.1383  0.4178  0.4171
   50FTM     F1 3858  -2.700   6.196   7.168  2.0394 -0.2871  0.0118
   50FTM     C5 3859  -2.605   6.315   7.433 -0.4340 -0.8113 -0.0460
   50FTM     C6 3860  -2.481   6.350   7.520 -0.8149  0.1521  0.6721
   50FTM     C7 3861  -2.463   6.500   7.568  0.6550  0.1975  0.0203
   50FTM     C8 3862  -2.518   6.548   7.698  0.8598 -1.3191  0.3267
   50FTM     C9 3863  -2.682   6.567   7.670 -0.5263  0.6371 -0.4502
   50FTM    C10 3864  -2.744   6.556   7.803 -0.3454  0.2296  1.4348
   50FTM    C11 3865  -2.335   6.291   7.492  0.1847  0.1315  0.8595
   50FTM    C12 3866  -2.247   6.278   7.614  0.1214  0.2002  0.7115
   51FTM     S1 3867  -3.164   5.399   7.500 -0.1346 -0.1115  0.5071
   51FTM     C1 3868  -3.143   5.240   7.581  0.6169 -0.3178 -0.0643
   51FTM     C2 3869  -3.044   5.248   7.673  0.8121 -0.2772 -0.2778
   51FTM     C3 3870  -2.979   5.375   7.686  0.3989 -0.0875 -0.0161
   51FTM     C4 3871  -3.031   5.467   7.600 -0.1301  0.0203  0.4116
   51FTM     F1 3872  -3.005   5.140   7.752  1.3764 -0.4091 -0.7226
   51FTM     C5 3873  -3.212   5.103   7.561 -0.7743 -1.1062  0.0185
   51FTM     C6 3874  -3.314   5.080   7.458  1.1519 -0.0048  1.0775
   51FTM     C7 3875  -3.254   5.003   7.334  0.4137 -0.1195 -0.1579
   51FTM     C8 3876  -3.309   4.852   7.304 -0.4472 -0.6675 -0.2376
   51FTM     C9 3877  -3.313   4.821   7.157  0.4640  0.3589 -0.7560
   51FTM    C10 3878  -3.453   4.749   7.132  0.2379  0.5959  0.5468
   51FTM    C11 3879  -3.454   5.155   7.456  0.3213 -0.1229 -0.0046
   51FTM    C12 3880  -3.526   5.129   7.325  2.0633  0.7435  0.5373
   52TPM     C1 3881  -3.324   5.884   7.428 -0.0081 -0.7672  0.8357
   52TPM     C2 3882  -3.380   6.008   7.428  0.5429 -0.5096  1.1042
   52TPM     C3 3883  -3.513   6.012   7.372  0.7905  0.3140  0.5302
   52TPM     C4 3884  -3.557   5.890   7.329  0.4287  0.6845 -0.1761
   52TPM     S1 3885  -3.434   5.761   7.356 -0.2584  0.0167 -0.1707
   53BDD     C1 3886  -3.883   5.816   7.112 -0.0034 -0.2533 -0.4125
   53BDD     C2 3887  -3.904   5.762   7.236 -0.0702 -0.1750 -0.3895
   53BDD     C3 3888  -3.794   5.786   7.328 -0.0411 -0.2695 -0.3992
   53BDD     C4 3889  -3.691   5.858   7.273  0.0476 -0.4188 -0.4297
   53BDD     S1 3890  -3.725   5.900   7.102  0.1005 -0.4512 -0.4482
   53BDD     C5 3891  -4.025   5.687   7.275 -0.1633 -0.0101 -0.3575
   53BDD     C6 3892  -3.794   5.738   7.468 -0.1022 -0.2085 -0.3781
   53BDD     O1 3893  -3.700   5.759   7.547 -0.0769 -0.2903 -0.3865
   53BDD     O2 3894  -4.119   5.666   7.196 -0.1885  0.0715 -0.3490
   53BDD     C7 3895  -3.915   5.662   7.507 -0.1953 -0.0437 -0.3461
   53BDD     C8 3896  -4.025   5.638   7.415 -0.2244  0.0510 -0.3363
   53BDD     C9 3897  -4.127   5.566   7.470 -0.3130  0.2002 -0.3058
   53BDD     S2 3898  -4.093   5.524   7.641 -0.3661  0.2326 -0.2871
   53BDD    C10 3899  -3.935   5.609   7.631 -0.2620  0.0347 -0.3228
   53BDD    C11 3900  -3.848   5.593   7.749  0.2142 -0.6015  0.3020
   53BDD    C12 3901  -3.812   5.716   7.834  0.3910 -0.6798 -0.0761
   53BDD    C13 3902  -3.698   5.701   7.932 -0.2117 -0.6153  0.3028
   53BDD    C14 3903  -3.699   5.606   8.060 -0.5961 -0.0517  0.5914
   53BDD    C15 3904  -3.789   5.645   8.169  0.4448  0.3563  0.7597
   53BDD    C16 3905  -3.714   5.713   8.279 -0.7088  0.0885 -1.0051
   53BDD    C17 3906  -3.928   5.801   7.907  0.0604  1.9149 -0.2543
   53BDD    C18 3907  -3.894   5.946   7.894 -0.2629  1.5146  1.1864
   53BDD    C19 3908  -4.264   5.532   7.409 -0.0021  0.0348  0.2746
   53BDD    C20 3909  -4.392   5.607   7.447  0.6730 -0.2240  0.2267
   53BDD    C21 3910  -4.366   5.748   7.483  1.0424  0.4961 -1.4406
   53BDD    C22 3911  -4.454   5.882   7.505 -1.5877  0.3709 -0.2726
   53BDD    C23 3912  -4.514   5.864   7.632  1.1458 -0.7743 -0.4733
   53BDD    C24 3913  -4.619   5.985   7.692 -0.2194 -0.9444  1.5594
   53BDD    C25 3914  -4.480   5.519   7.549 -0.0400  0.4922  0.3529
   53BDD    C26 3915  -4.421   5.512   7.692 -0.3251  0.9305 -0.7579
   54TPM     C1 3916  -3.959   5.829   6.990 -0.3987 -0.4666 -0.0441
   54TPM     C2 3917  -3.986   5.724   6.906  0.4742 -0.4176 -0.4055
   54TPM     C3 3918  -4.031   5.765   6.776  1.0885 -0.3458 -0.6011
   54TPM     C4 3919  -4.038   5.900   6.760  0.6841 -0.3402 -0.3885
   54TPM     S1 3920  -3.989   5.987   6.910 -0.5133 -0.4258  0.0785
   55BDTP    C1 3921  -4.277   6.227   6.273 -0.3495 -0.5289  0.3437
   55BDTP    C2 3922  -4.310   6.309   6.385 -0.1466 -0.4395  0.3401
   55BDTP    C3 3923  -4.275   6.275   6.515  0.0113 -0.3803  0.3133
   55BDTP    C4 3924  -4.203   6.155   6.535 -0.0323 -0.4107  0.2886
   55BDTP    C5 3925  -4.170   6.074   6.423 -0.2351 -0.5003  0.2923
   55BDTP    C6 3926  -4.205   6.108   6.293 -0.3933 -0.5593  0.3192
   55BDTP    C7 3927  -4.156   6.100   6.661  0.1062 -0.3617  0.2586
   55BDTP    C8 3928  -4.090   5.982   6.648  0.0181 -0.4095  0.2397
   55BDTP    S1 3929  -4.078   5.926   6.476 -0.2525 -0.5232  0.2574
   55BDTP    C9 3930  -4.324   6.283   6.147 -0.4879 -0.5778  0.3737
   55BDTP   C10 3931  -4.390   6.400   6.160 -0.3998 -0.5300  0.3927
   55BDTP    S2 3932  -4.402   6.457   6.332 -0.1294 -0.4162  0.3751
   56FTM     S1 3933  -4.418   6.282   6.764 -0.1706  0.4903 -0.0926
   56FTM     C1 3934  -4.407   6.436   6.855  0.9994  0.5655 -0.3311
   56FTM     C2 3935  -4.342   6.530   6.781  1.4132  0.0638 -0.6125
   56FTM     C3 3936  -4.298   6.488   6.651  0.8591 -0.3986 -0.6588
   56FTM     C4 3937  -4.330   6.358   6.625 -0.0072 -0.2459 -0.4044
   56FTM     F1 3938  -4.319   6.659   6.826  2.3185 -0.0066 -0.8448
   56FTM     C5 3939  -4.476   6.455   6.989  0.1527 -0.4370  0.1064
   56FTM     C6 3940  -4.430   6.415   7.139  0.2078 -1.7111  1.1732
   56FTM     C7 3941  -4.462   6.281   7.181  1.1344 -0.4327 -0.3283
   56FTM     C8 3942  -4.404   6.162   7.110 -0.5161 -0.2327 -0.1039
   56FTM     C9 3943  -4.238   6.171   7.077 -0.2067 -0.4431 -0.1207
   56FTM    C10 3944  -4.133   6.180   7.188  1.3913 -0.7704 -0.3240
   56FTM    C11 3945  -4.435   6.532   7.226  0.6443 -1.9267 -0.4036
   56FTM    C12 3946  -4.371   6.537   7.367 -0.1607 -0.2172  0.8762
   57FTM     S1 3947  -4.328   5.899   6.145 -0.4256  0.1373 -0.1943
   57FTM     C1 3948  -4.247   5.839   5.996 -0.6615  0.2221 -0.3570
   57FTM     C2 3949  -4.134   5.911   5.972 -0.3959 -0.1296 -0.1812
   57FTM     C3 3950  -4.104   6.015   6.067 -0.0025 -0.4784  0.0844
   57FTM     C4 3951  -4.198   6.022   6.166  0.0348 -0.3905  0.1128
   57FTM     F1 3952  -4.051   5.888   5.864 -0.4936 -0.1570 -0.2502
   57FTM     C5 3953  -4.327   5.732   5.933  0.5002 -0.2369  0.9610
   57FTM     C6 3954  -4.255   5.591   5.936 -1.8860  1.7827 -0.2936
   57FTM     C7 3955  -4.119   5.579   5.869  0.5664  0.9720  1.7196
   57FTM     C8 3956  -4.154   5.577   5.714 -0.5691 -0.2754  0.1061
   57FTM     C9 3957  -4.178   5.702   5.637 -0.2794 -0.3213 -0.0242
   57FTM    C10 3958  -4.286   5.665   5.532 -0.2268 -0.1394  0.0642
   57FTM    C11 3959  -4.248   5.513   6.073  0.9464 -0.2500  0.1836
   57FTM    C12 3960  -4.383   5.528   6.141 -1.7981  0.5797 -0.1093
   58TPM     C1 3961  -4.466   6.470   6.054  0.4973 -0.3298  0.1175
   58TPM     C2 3962  -4.579   6.542   6.080  0.3110 -0.8818  0.8774
   58TPM     C3 3963  -4.633   6.611   5.966 -0.5374 -0.7589  1.3324
   58TPM     C4 3964  -4.561   6.591   5.852 -0.9980 -0.1130  0.9196
   58TPM     S1 3965  -4.419   6.484   5.880 -0.3915  0.3937 -0.0839
   59BDD     C1 3966  -4.638   6.859   5.564 -0.4014  0.1629 -0.2096
   59BDD     C2 3967  -4.600   6.745   5.499 -0.1860  0.1436 -0.0536
   59BDD     C3 3968  -4.562   6.637   5.588  0.3796  0.4555  0.0917
   59BDD     C4 3969  -4.571   6.670   5.721  0.5874  0.7085  0.0442
   59BDD     S1 3970  -4.628   6.839   5.742  0.0890  0.5732 -0.1854
   59BDD     C5 3971  -4.598   6.731   5.352 -0.4921 -0.1624 -0.0323
   59BDD     C6 3972  -4.518   6.505   5.539  0.6936  0.4916  0.2723
   59BDD     O1 3973  -4.485   6.412   5.616  1.1814  0.7606  0.3976
   59BDD     O2 3974  -4.630   6.824   5.275 -0.9799 -0.4314 -0.1576
   59BDD     C7 3975  -4.515   6.491   5.392  0.3872  0.1855  0.2935
   59BDD     C8 3976  -4.553   6.599   5.303 -0.1783 -0.1265  0.1483
   59BDD     C9 3977  -4.544   6.565   5.170 -0.3861 -0.3791  0.1959
   59BDD     S2 3978  -4.487   6.397   5.149  0.1121 -0.2439  0.4256
   59BDD    C10 3979  -4.477   6.377   5.327  0.6026  0.1663  0.4498
   59BDD    C11 3980  -4.467   6.229   5.369 -1.0852 -0.9439  0.3302
   59BDD    C12 3981  -4.339   6.157   5.334 -0.2534  0.3252 -1.5108
   59BDD    C13 3982  -4.196   6.216   5.368  0.1534  0.1019  0.5750
   59BDD    C14 3983  -4.166   6.264   5.516 -0.0101 -0.2468 -0.6477
   59BDD    C15 3984  -4.017   6.299   5.541  0.6763  0.1207 -0.2786
   59BDD    C16 3985  -3.957   6.324   5.683  0.5392 -0.3977 -1.0701
   59BDD    C17 3986  -4.305   6.015   5.367  1.2529  1.2171  0.3234
   59BDD    C18 3987  -4.418   5.918   5.338  0.4048  1.0914  0.4574
   59BDD    C19 3988  -4.543   6.662   5.053 -0.4904  0.5593  0.0241
   59BDD    C20 3989  -4.631   6.612   4.940  0.2157  0.6564 -0.8995
   59BDD    C21 3990  -4.630   6.704   4.819 -0.6601 -0.2075  0.0550
   59BDD    C22 3991  -4.506   6.731   4.737  0.5227 -1.2143  0.6189
   59BDD    C23 3992  -4.543   6.806   4.606 -0.0161 -0.5012  0.1468
   59BDD    C24 3993  -4.531   6.963   4.596 -0.5754 -0.5105  0.2852
   59BDD    C25 3994  -4.768   6.541   4.984 -0.6834 -0.7101  0.0853
   59BDD    C26 3995  -4.827   6.449   4.876  0.6271 -1.9970 -0.0330
   60TPM     C1 3996  -4.677   6.997   5.538  0.9095 -0.0085  0.8048
   60TPM     C2 3997  -4.724   7.036   5.415  0.6044 -0.6900  0.6924
   60TPM     C3 3998  -4.746   7.178   5.405 -0.4188 -0.8653  0.2812
   60TPM     C4 3999  -4.717   7.247   5.519 -0.8938 -0.3175  0.0801
   60TPM     S1 4000  -4.659   7.138   5.649 -0.0795  0.4682  0.3969
    1BDTP    C1 4001   3.607   9.007  10.134 -0.0201  0.0410 -0.0427
    1BDTP    C2 4002   3.467   9.028  10.154  0.0001  0.0927  0.0467
    1BDTP    C3 4003   3.407   9.015  10.278  0.0929  0.2213  0.1049
    1BDTP    C4 4004   3.488   8.981  10.388  0.1696  0.3021  0.0741
    1BDTP    C5 4005   3.627   8.961  10.368  0.1493  0.2503 -0.0153
    1BDTP    C6 4006   3.688   8.973  10.244  0.0565  0.1222 -0.0735
    1BDTP    C7 4007   3.448   8.963  10.526  0.2715  0.4382  0.1224
    1BDTP    C8 4008   3.549   8.930  10.610  0.3281  0.4902  0.0741
    1BDTP    S1 4009   3.710   8.918  10.525  0.2602  0.3743 -0.0393
    1BDTP    C9 4010   3.647   9.026   9.996 -0.1221 -0.0949 -0.0911
    1BDTP   C10 4011   3.545   9.058   9.912 -0.1788 -0.1471 -0.0429
    1BDTP    S2 4012   3.385   9.071   9.997 -0.1108 -0.0309  0.0702
    2FTM     S1 4013   3.199   9.200  10.314  0.4754 -0.3965  0.7019
    2FTM     C1 4014   3.035   9.129  10.340  0.0275  0.2552 -0.2464
    2FTM     C2 4015   3.041   8.994  10.328 -0.5917  0.2759 -0.9086
    2FTM     C3 4016   3.170   8.938  10.299 -0.7519 -0.2019 -0.7231
    2FTM     C4 4017   3.266   9.034  10.288 -0.2384 -0.6018  0.1081
    2FTM     F1 4018   2.930   8.912  10.342 -1.0504  0.7291 -1.7216
    2FTM     C5 4019   2.923   9.238  10.363 -0.0645 -1.0506 -0.4950
    2FTM     C6 4020   2.968   9.367  10.451  0.2945  0.5436  1.0086
    2FTM     C7 4021   2.920   9.362  10.596  0.5280  0.6708 -0.2475
    2FTM     C8 4022   2.790   9.427  10.636  0.3376  0.0658  0.1233
    2FTM     C9 4023   2.772   9.430  10.793  0.4631 -0.1440  0.0470
    2FTM    C10 4024   2.627   9.403  10.846 -0.1509  0.4186  1.2589
    2FTM    C11 4025   2.956   9.506  10.377 -0.0082 -1.0409 -0.0900
    2FTM    C12 4026   3.041   9.627  10.430 -0.2241  0.8405 -0.2874
    3FTM     S1 4027   3.910   8.775  10.264 -0.1206 -0.0395  0.2336
    3FTM     C1 4028   4.059   8.814  10.172 -0.2509 -0.4318 -0.1452
    3FTM     C2 4029   4.046   8.935  10.111 -0.1482 -0.4683 -0.2396
    3FTM     C3 4030   3.922   9.003  10.132  0.0334 -0.1996 -0.0284
    3FTM     C4 4031   3.837   8.932  10.212  0.0712  0.0503  0.2367
    3FTM     F1 4032   4.146   8.990  10.032 -0.2130 -0.7465 -0.5231
    3FTM     C5 4033   4.168   8.706  10.188  0.3746 -0.6230 -0.1274
    3FTM     C6 4034   4.315   8.764  10.229  0.0762  0.1292 -0.2136
    3FTM     C7 4035   4.314   8.888  10.303  0.0648 -0.2002  0.3946
    3FTM     C8 4036   4.429   8.965  10.362 -0.0481 -0.8507  0.3960
    3FTM     C9 4037   4.428   9.117  10.397 -0.0256 -0.1721 -0.0440
    3FTM    C10 4038   4.482   9.199  10.276  0.4508  0.8040 -0.0131
    3FTM    C11 4039   4.417   8.659  10.271 -1.0356  1.0039  0.5722
    3FTM    C12 4040   4.410   8.589  10.412 -0.2296 -2.0958 -0.3641
    4TPM     C1 4041   3.534   9.094   9.764 -0.7582  0.2567 -0.2924
    4TPM     C2 4042   3.423   9.150   9.708 -0.4730  0.4842 -0.6340
    4TPM     C3 4043   3.438   9.179   9.567  0.1792  0.8786 -0.4940
    4TPM     C4 4044   3.560   9.144   9.517  0.3913  0.9516 -0.0453
    4TPM     S1 4045   3.666   9.072   9.643 -0.2210  0.5246  0.2371
    5BDD     C1 4046   3.553   9.189   9.132  0.2041 -0.1809 -0.1501
    5BDD     C2 4047   3.612   9.067   9.150  0.2221 -0.1783 -0.1926
    5BDD     C3 4048   3.612   9.022   9.288  0.3543 -0.1636 -0.1876
    5BDD     C4 4049   3.554   9.112   9.374  0.4350 -0.1547 -0.1417
    5BDD     S1 4050   3.494   9.257   9.287  0.3513 -0.1645 -0.1011
    5BDD     C5 4051   3.670   8.986   9.040  0.1187 -0.1898 -0.2394
    5BDD     C6 4052   3.670   8.893   9.330  0.3957 -0.1583 -0.2289
    5BDD     O1 4053   3.670   8.855   9.450  0.5096 -0.1454 -0.2248
    5BDD     O2 4054   3.670   9.024   8.921  0.0048 -0.2027 -0.2437
    5BDD     C7 4055   3.728   8.813   9.221  0.2922 -0.1698 -0.2754
    5BDD     C8 4056   3.728   8.857   9.083  0.1600 -0.1845 -0.2804
    5BDD     C9 4057   3.786   8.767   8.997  0.0793 -0.1934 -0.3266
    5BDD     S2 4058   3.846   8.622   9.084  0.1631 -0.1837 -0.3669
    5BDD    C10 4059   3.787   8.690   9.239  0.3103 -0.1671 -0.3181
    5BDD    C11 4060   3.817   8.594   9.362  0.7530 -0.1360  1.5986
    5BDD    C12 4061   3.698   8.558   9.449  0.0529 -0.8859 -0.5804
    5BDD    C13 4062   3.594   8.469   9.382  0.7957 -0.5850  0.0425
    5BDD    C14 4063   3.599   8.318   9.401 -0.6258  0.3419  0.8511
    5BDD    C15 4064   3.687   8.238   9.302 -0.1654 -0.7543 -0.1160
    5BDD    C16 4065   3.614   8.145   9.213 -0.6644  2.1656 -0.2114
    5BDD    C17 4066   3.729   8.497   9.591  1.7874 -0.8246 -1.3691
    5BDD    C18 4067   3.803   8.592   9.680 -2.2530  0.2813 -0.3706
    5BDD    C19 4068   3.812   8.768   8.845  0.7485 -0.5664 -0.8639
    5BDD    C20 4069   3.745   8.644   8.766 -0.7605 -0.9932  0.0729
    5BDD    C21 4070   3.813   8.513   8.804 -0.8590  0.7229  1.4771
    5BDD    C22 4071   3.958   8.489   8.757 -1.0393 -0.7056  0.8434
    5BDD    C23 4072   4.033   8.377   8.841 -0.3074 -0.3323 -0.7475
    5BDD    C24 4073   4.088   8.293   8.738 -1.0870  0.3642 -1.1045
    5BDD    C25 4074   3.706   8.681   8.618 -0.4974  0.4904 -0.8659
    5BDD    C26 4075   3.639   8.803   8.594  0.8495 -0.7084 -0.2290
    6TPM     C1 4076   3.529   9.281   9.018  1.1760 -0.5356 -0.6595
    6TPM     C2 4077   3.542   9.413   9.050  1.8814 -0.6454 -0.4654
    6TPM     C3 4078   3.476   9.502   8.958  1.6866 -0.2003  0.0918
    6TPM     C4 4079   3.412   9.438   8.856  0.8328  0.2481  0.3223
    6TPM     S1 4080   3.431   9.259   8.868  0.2037  0.1432 -0.1503
    7BDTP    C1 4081   3.009   9.718   8.472  0.2408  0.2258 -0.1748
    7BDTP    C2 4082   2.969   9.581   8.464 -0.0705  0.3026  0.0470
    7BDTP    C3 4083   3.038   9.479   8.527 -0.3290  0.2499  0.2506
    7BDTP    C4 4084   3.153   9.513   8.601 -0.2787  0.1152  0.2348
    7BDTP    C5 4085   3.193   9.649   8.609  0.0326  0.0384  0.0129
    7BDTP    C6 4086   3.124   9.752   8.546  0.2912  0.0911 -0.1904
    7BDTP    C7 4087   3.241   9.424   8.675 -0.5094  0.0391  0.4213
    7BDTP    C8 4088   3.344   9.487   8.737 -0.3880 -0.0896  0.3507
    7BDTP    S1 4089   3.344   9.667   8.711  0.0356 -0.1321  0.0389
    7BDTP    C9 4090   2.921   9.806   8.398  0.4715  0.3021 -0.3612
    7BDTP   C10 4091   2.818   9.743   8.336  0.3501  0.4301 -0.2911
    7BDTP    S2 4092   2.818   9.563   8.363 -0.0736  0.4729  0.0215
    8FTM     S1 4093   3.075   9.190   8.580  0.4468 -0.1897 -0.2192
    8FTM     C1 4094   2.930   9.091   8.539  0.1412 -0.3331  1.1268
    8FTM     C2 4095   2.834   9.169   8.483 -0.2633 -0.5231  1.5380
    8FTM     C3 4096   2.867   9.308   8.468 -0.3581 -0.5672  0.8478
    8FTM     C4 4097   2.991   9.337   8.515 -0.0149 -0.4063 -0.1235
    8FTM     F1 4098   2.711   9.120   8.441 -0.5718 -0.6683  2.5635
    8FTM     C5 4099   2.907   8.946   8.598 -1.0222  0.4786  0.5073
    8FTM     C6 4100   2.787   8.942   8.686  1.5347  1.1265 -0.0160
    8FTM     C7 4101   2.799   9.039   8.804  1.0919 -0.4807  0.0701
    8FTM     C8 4102   2.678   9.142   8.816  0.2276  0.1374 -1.1319
    8FTM     C9 4103   2.652   9.273   8.897  0.0479 -0.5419 -0.2582
    8FTM    C10 4104   2.642   9.273   9.053  0.9841 -0.0048  0.5427
    8FTM    C11 4105   2.689   8.822   8.707 -0.0050  0.7279 -1.7244
    8FTM    C12 4106   2.721   8.698   8.789 -1.0891  0.1489 -0.6072
    9FTM     S1 4107   3.192  10.009   8.420 -0.2607 -0.0040 -0.4806
    9FTM     C1 4108   3.227  10.139   8.540 -0.2798 -0.2158 -0.2460
    9FTM     C2 4109   3.213  10.090   8.666 -0.1475 -0.4797 -0.3335
    9FTM     C3 4110   3.176   9.952   8.677 -0.0262 -0.5329 -0.5825
    9FTM     C4 4111   3.161   9.893   8.555 -0.0669 -0.3012 -0.6889
    9FTM     F1 4112   3.234  10.167   8.780 -0.1283 -0.6897 -0.1934
    9FTM     C5 4113   3.251  10.284   8.493  0.1117 -0.9740 -0.7861
    9FTM     C6 4114   3.372  10.352   8.429 -1.3654 -0.3090  1.7416
    9FTM     C7 4115   3.326  10.500   8.400  0.9896 -1.9811  0.3889
    9FTM     C8 4116   3.234  10.514   8.276  0.3924 -0.0256  1.2219
    9FTM     C9 4117   3.101  10.575   8.327 -0.3566  0.8255 -0.4075
    9FTM    C10 4118   2.994  10.550   8.228 -0.3989  0.4178  1.5408
    9FTM    C11 4119   3.505  10.337   8.515 -0.6053  0.6327  1.1094
    9FTM    C12 4120   3.549  10.194   8.534 -0.2708  0.2020  0.6123
   10TPM     C1 4121   2.692   9.799   8.284 -0.1476  0.4990 -0.2147
   10TPM     C2 4122   2.663   9.932   8.276 -0.5029  0.3972 -0.7138
   10TPM     C3 4123   2.525   9.959   8.245 -0.5785 -0.0849 -0.8221
   10TPM     C4 4124   2.449   9.847   8.230 -0.2808 -0.3503 -0.4059
   10TPM     S1 4125   2.546   9.697   8.253  0.1212 -0.0100  0.1599
   11BDD     C1 4126   2.219   9.850   7.904  0.1398  0.1345 -0.1597
   11BDD     C2 4127   2.157   9.926   7.999  0.1136  0.0103 -0.0765
   11BDD     C3 4128   2.235   9.941   8.120  0.1801  0.0412 -0.1233
   11BDD     C4 4129   2.356   9.876   8.116  0.2559  0.1889 -0.2415
   11BDD     S1 4130   2.379   9.791   7.959  0.2494  0.2992 -0.3024
   11BDD     C5 4131   2.024   9.988   7.982  0.0265 -0.1416  0.0491
   11BDD     C6 4132   2.188  10.019   8.236  0.1658 -0.0768 -0.0491
   11BDD     O1 4133   2.256  10.032   8.341  0.2231 -0.0503 -0.0896
   11BDD     O2 4134   1.956   9.974   7.878 -0.0307 -0.1686  0.0896
   11BDD     C7 4135   2.055  10.081   8.219  0.0789 -0.2289  0.0765
   11BDD     C8 4136   1.977  10.066   8.098  0.0123 -0.2599  0.1233
   11BDD     C9 4137   1.856  10.131   8.103 -0.0635 -0.4077  0.2418
   11BDD     S2 4138   1.833  10.215   8.259 -0.0570 -0.5181  0.3023
   11BDD    C10 4139   1.994  10.157   8.315  0.0526 -0.3536  0.1600
   11BDD    C11 4140   2.006  10.177   8.466 -0.8217 -0.7640  0.2327
   11BDD    C12 4141   1.996  10.051   8.554  0.2837 -0.6026  0.6200
   11BDD    C13 4142   1.863   9.978   8.547  0.7828  0.0383  0.6622
   11BDD    C14 4143   1.899   9.838   8.598 -1.0604  0.4833 -0.6377
   11BDD    C15 4144   2.001   9.751   8.524 -0.2990 -0.1889 -0.6496
   11BDD    C16 4145   1.944   9.674   8.412  0.0573 -1.1655 -0.2056
   11BDD    C17 4146   2.071  10.055   8.693  0.2770 -0.1891 -1.0585
   11BDD    C18 4147   2.210  10.121   8.705 -0.0791 -1.2781 -0.4497
   11BDD    C19 4148   1.751  10.135   7.990  0.5006  0.9550  0.4927
   11BDD    C20 4149   1.670  10.005   7.959 -1.5539 -0.7820 -0.1072
   11BDD    C21 4150   1.581   9.994   7.834 -0.2490 -1.0714 -1.0665
   11BDD    C22 4151   1.677  10.020   7.715 -1.5783 -0.0900 -0.3970
   11BDD    C23 4152   1.613   9.980   7.582 -0.6261  0.7094 -0.8261
   11BDD    C24 4153   1.603   9.832   7.550  0.4405  0.5513  0.1085
   11BDD    C25 4154   1.623   9.929   8.089 -0.5062 -0.5039 -0.4978
   11BDD    C26 4155   1.530   9.983   8.195 -0.8041 -1.5621 -0.5351
   12TPM     C1 4156   2.176   9.816   7.766  0.6152 -0.2733 -0.0096
   12TPM     C2 4157   2.075   9.727   7.746  0.4228 -0.1254  0.2933
   12TPM     C3 4158   2.022   9.728   7.612 -0.1042  0.0796  0.4951
   12TPM     C4 4159   2.084   9.818   7.530 -0.3138  0.0878  0.3463
   12TPM     S1 4160   2.214   9.909   7.616  0.1419 -0.1650 -0.0637
   13BDTP    C1 4161   1.836   9.968   6.987 -0.0584 -0.0603 -0.2708
   13BDTP    C2 4162   1.899  10.089   7.029 -0.3780  0.0880 -0.2064
   13BDTP    C3 4163   1.981  10.095   7.141 -0.4576  0.2632 -0.1582
   13BDTP    C4 4164   2.001   9.978   7.216 -0.2108  0.2937 -0.1740
   13BDTP    C5 4165   1.937   9.857   7.174  0.1088  0.1454 -0.2383
   13BDTP    C6 4166   1.856   9.851   7.062  0.1884 -0.0300 -0.2866
   13BDTP    C7 4167   2.081   9.960   7.335 -0.2352  0.4631 -0.1320
   13BDTP    C8 4168   2.080   9.834   7.384  0.0470  0.4492 -0.1615
   13BDTP    S1 4169   1.979   9.719   7.286  0.3834  0.2198 -0.2464
   13BDTP    C9 4170   1.756   9.986   6.868 -0.0339 -0.2296 -0.3127
   13BDTP   C10 4171   1.756  10.112   6.818 -0.3161 -0.2160 -0.2831
   13BDTP    S2 4172   1.858  10.226   6.917 -0.6525  0.0133 -0.1983
   14FTM     S1 4173   2.052  10.311   7.324 -0.5296 -0.1162 -0.0250
   14FTM     C1 4174   2.180  10.419   7.258  0.0078 -0.4737  0.4073
   14FTM     C2 4175   2.220  10.374   7.136  0.8888 -1.0474  0.8904
   14FTM     C3 4176   2.156  10.255   7.088  1.1922 -1.2391  0.9527
   14FTM     C4 4177   2.063  10.208   7.176  0.5218 -0.7979  0.5022
   14FTM     F1 4178   2.318  10.437   7.061  1.4726 -1.4331  1.3049
   14FTM     C5 4179   2.214  10.557   7.325  0.4013  0.2036 -1.4935
   14FTM     C6 4180   2.097  10.638   7.393  0.8241  0.7785 -0.1182
   14FTM     C7 4181   1.998  10.686   7.284  0.1940  0.1514  1.7008
   14FTM     C8 4182   2.046  10.793   7.197  0.6957 -0.4218  0.4266
   14FTM     C9 4183   1.965  10.848   7.079 -0.9985  0.0606 -0.3997
   14FTM    C10 4184   1.965  10.770   6.944 -0.1981  0.3562 -1.1428
   14FTM    C11 4185   2.016  10.585   7.502 -0.4208  0.8461 -1.3409
   14FTM    C12 4186   2.054  10.616   7.650 -0.3405 -0.0020  0.2107
   15FTM     S1 4187   1.887   9.574   6.988 -0.4766  0.0551  0.1179
   15FTM     C1 4188   1.741   9.487   6.928 -0.5376  0.6018 -0.5496
   15FTM     C2 4189   1.634   9.571   6.928 -0.3043  0.9027 -0.6943
   15FTM     C3 4190   1.658   9.704   6.974 -0.0696  0.7310 -0.3043
   15FTM     C4 4191   1.788   9.724   7.010 -0.1250  0.2840  0.1538
   15FTM     F1 4192   1.508   9.531   6.887 -0.2894  1.3521 -1.1882
   15FTM     C5 4193   1.745   9.361   6.849 -0.4060  0.1522 -0.2235
   15FTM     C6 4194   1.759   9.229   6.925 -1.8995 -0.6870  0.4586
   15FTM     C7 4195   1.640   9.173   7.000  0.1629 -0.1416  0.5287
   15FTM     C8 4196   1.552   9.111   6.891 -0.3814 -1.0226 -1.3446
   15FTM     C9 4197   1.415   9.069   6.922 -0.7679  0.9638 -1.3444
   15FTM    C10 4198   1.304   9.154   6.968 -0.7880  0.1691 -1.0781
   15FTM    C11 4199   1.898   9.180   6.978  0.0517 -1.2100  0.7523
   15FTM    C12 4200   1.977   9.238   7.101 -1.8019  1.0431 -0.5945
   16TPM     C1 4201   1.701  10.157   6.694 -0.4102 -0.1859 -0.2685
   16TPM     C2 4202   1.596  10.111   6.620 -0.3472  0.1020 -0.5394
   16TPM     C3 4203   1.591  10.165   6.486 -0.0910  0.4330 -0.4172
   16TPM     C4 4204   1.693  10.252   6.459  0.0414  0.3974 -0.0533
   16TPM     S1 4205   1.803  10.272   6.600 -0.1487 -0.0601  0.1650
   17BDD     C1 4206   1.896  10.229   6.110  0.0891 -0.0594 -0.5169
   17BDD     C2 4207   1.773  10.282   6.080  0.0377 -0.0567 -0.3052
   17BDD     C3 4208   1.689  10.301   6.196  0.2831  0.0567 -0.1440
   17BDD     C4 4209   1.748  10.263   6.313  0.5181  0.1381 -0.2351
   17BDD     S1 4210   1.914  10.200   6.286  0.4483  0.0789 -0.5289
   17BDD     C5 4211   1.729  10.316   5.943 -0.2389 -0.1578 -0.2433
   17BDD     C6 4212   1.552  10.357   6.187  0.2756  0.0796  0.0944
   17BDD     O1 4213   1.479  10.374   6.288  0.4872  0.1771  0.2333
   17BDD     O2 4214   1.802  10.300   5.843 -0.4505 -0.2553 -0.3822
   17BDD     C7 4215   1.508  10.391   6.050 -0.0010 -0.0215  0.1563
   17BDD     C8 4216   1.593  10.372   5.934 -0.2463 -0.1345 -0.0048
   17BDD     C9 4217   1.534  10.410   5.817 -0.4813 -0.2162  0.0862
   17BDD     S2 4218   1.368  10.473   5.844 -0.4115 -0.1570  0.3799
   17BDD    C10 4219   1.386  10.444   6.020 -0.0523 -0.0184  0.3678
   17BDD    C11 4220   1.262  10.488   6.103 -0.3058 -0.1223 -0.4953
   17BDD    C12 4221   1.163  10.380   6.174  1.5134 -0.5591 -0.4325
   17BDD    C13 4222   1.089  10.302   6.075 -0.0062 -0.1917  0.8037
   17BDD    C14 4223   1.006  10.186   6.124  0.2483 -0.1849 -1.7327
   17BDD    C15 4224   1.019  10.066   6.032  0.6304 -0.1973 -1.7993
   17BDD    C16 4225   0.926   9.959   6.092 -0.9444  1.0069 -0.2523
   17BDD    C17 4226   1.068  10.455   6.287  0.1912 -0.8431  2.2266
   17BDD    C18 4227   1.148  10.527   6.403 -0.1181  0.6413  0.4362
   17BDD    C19 4228   1.578  10.415   5.673  1.1751  0.7665  0.1994
   17BDD    C20 4229   1.549  10.533   5.577 -1.2516  0.7209  0.0061
   17BDD    C21 4230   1.621  10.665   5.631  0.3403 -0.4440  0.4233
   17BDD    C22 4231   1.646  10.803   5.559 -0.4416  0.6314  0.7853
   17BDD    C23 4232   1.554  10.883   5.480  0.7702  0.4624  0.6377
   17BDD    C24 4233   1.430  10.950   5.557 -0.7531 -0.6837  0.1109
   17BDD    C25 4234   1.574  10.502   5.424 -1.0112  0.8112 -0.6978
   17BDD    C26 4235   1.586  10.608   5.306 -0.9359  1.3641 -0.6407
   18TPM     C1 4236   2.006  10.181   6.034  0.4356 -1.0102  1.1225
   18TPM     C2 4237   2.136  10.220   6.045  0.4609 -1.1718  1.4323
   18TPM     C3 4238   2.226  10.145   5.961  0.3606 -0.3445  0.5561
   18TPM     C4 4239   2.165  10.049   5.886  0.2589  0.4475 -0.4214
   18TPM     S1 4240   1.987  10.045   5.916  0.2819  0.2083 -0.3105
   19BDTP    C1 4241   2.491   9.621   5.587  0.4514 -0.2277  0.1566
   19BDTP    C2 4242   2.397   9.542   5.659  0.2530 -0.2723 -0.1451
   19BDTP    C3 4243   2.297   9.598   5.737  0.0260 -0.3204 -0.4001
   19BDTP    C4 4244   2.288   9.738   5.744 -0.0070 -0.3250 -0.3558
   19BDTP    C5 4245   2.382   9.817   5.672  0.1915 -0.2799 -0.0541
   19BDTP    C6 4246   2.482   9.762   5.594  0.4183 -0.2322  0.2009
   19BDTP    C7 4247   2.193   9.818   5.818 -0.2250 -0.3701 -0.5844
   19BDTP    C8 4248   2.210   9.952   5.805 -0.2002 -0.3619 -0.4705
   19BDTP    S1 4249   2.350   9.995   5.697  0.1029 -0.2952 -0.0576
   19BDTP    C9 4250   2.587   9.541   5.513  0.6694 -0.1819  0.3853
   19BDTP   C10 4251   2.569   9.408   5.526  0.6446 -0.1903  0.2714
   19BDTP    S2 4252   2.430   9.364   5.634  0.3415 -0.2570 -0.1418
   20FTM     S1 4253   2.108   9.526   5.939  0.4461 -0.2802 -0.2440
   20FTM     C1 4254   1.966   9.437   5.873  0.2260  0.6737 -1.1098
   20FTM     C2 4255   1.987   9.407   5.743  0.2005  1.7519 -1.3858
   20FTM     C3 4256   2.112   9.450   5.687  0.3471  1.8992 -0.9515
   20FTM     C4 4257   2.189   9.515   5.778  0.4894  0.9004 -0.3223
   20FTM     F1 4258   1.895   9.338   5.665  0.0430  2.6703 -2.0483
   20FTM     C5 4259   1.851   9.420   5.969  0.9034  1.0863 -0.3164
   20FTM     C6 4260   1.717   9.483   5.927  0.2901  0.1382 -0.4492
   20FTM     C7 4261   1.714   9.633   5.883  0.3217  0.2619 -0.0709
   20FTM     C8 4262   1.709   9.654   5.731 -0.2569 -0.9415 -0.0624
   20FTM     C9 4263   1.719   9.793   5.673 -0.3162 -0.3996 -0.2672
   20FTM    C10 4264   1.595   9.888   5.703 -0.2929  1.2320 -0.1063
   20FTM    C11 4265   1.575   9.428   5.936 -2.2207  0.7887  0.2507
   20FTM    C12 4266   1.476   9.462   6.046 -0.6647 -0.6027  0.2678
   21FTM     S1 4267   2.707   9.921   5.640  0.4037 -0.1765 -0.0091
   21FTM     C1 4268   2.787   9.992   5.494 -0.1163 -0.8673 -0.6437
   21FTM     C2 4269   2.718   9.956   5.382 -0.8554 -0.9341 -0.1822
   21FTM     C3 4270   2.602   9.874   5.403 -1.0575 -0.4637  0.6726
   21FTM     C4 4271   2.582   9.846   5.534 -0.4534 -0.0226  0.8719
   21FTM     F1 4272   2.756   9.996   5.255 -1.3928 -1.4257 -0.5062
   21FTM     C5 4273   2.908  10.062   5.500  1.1228  1.7100 -0.8497
   21FTM     C6 4274   3.035   9.974   5.492 -0.5431 -1.5555 -0.0729
   21FTM     C7 4275   3.141  10.016   5.380 -0.0818  0.7200 -1.0217
   21FTM     C8 4276   3.232  10.143   5.403 -0.7669 -0.1621 -0.8179
   21FTM     C9 4277   3.149  10.257   5.358 -0.5617 -0.0279 -1.0306
   21FTM    C10 4278   3.207  10.392   5.390 -0.0734 -0.0581  0.4100
   21FTM    C11 4279   3.079   9.865   5.603  0.9632 -1.1304  0.3080
   21FTM    C12 4280   3.159   9.743   5.564  0.5321  0.6645 -0.4130
   22TPM     C1 4281   2.637   9.294   5.473 -1.4799  0.2828  0.8368
   22TPM     C2 4282   2.695   9.290   5.350 -1.7700  1.3950  0.6430
   22TPM     C3 4283   2.745   9.160   5.313 -0.8586  1.9484 -0.1909
   22TPM     C4 4284   2.724   9.065   5.408  0.1264  1.2579 -0.6330
   22TPM     S1 4285   2.639   9.132   5.552 -0.0218 -0.1558 -0.0255
   23BDD     C1 4286   2.927   8.735   5.519 -0.4759 -0.3931  0.4638
   23BDD     C2 4287   2.876   8.707   5.395 -0.2699 -0.2725  0.3510
   23BDD     C3 4288   2.808   8.819   5.334  0.3923 -0.0145  0.0675
   23BDD     C4 4289   2.807   8.932   5.411  0.6817  0.0578 -0.0317
   23BDD     S1 4290   2.892   8.905   5.567  0.1451 -0.1924  0.2227
   23BDD     C5 4291   2.889   8.575   5.329 -0.6744 -0.3896  0.4998
   23BDD     C6 4292   2.746   8.811   5.200  0.7139  0.1512 -0.0947
   23BDD     O1 4293   2.687   8.908   5.147  1.2850  0.3734 -0.3390
   23BDD     O2 4294   2.948   8.478   5.382 -1.2454 -0.6120  0.7442
   23BDD     C7 4295   2.759   8.679   5.134  0.3095  0.0334  0.0541
   23BDD     C8 4296   2.827   8.567   5.195 -0.3528 -0.2246  0.3376
   23BDD     C9 4297   2.828   8.454   5.118 -0.6421 -0.2968  0.4369
   23BDD     S2 4298   2.743   8.481   4.962 -0.1056 -0.0464  0.1824
   23BDD    C10 4299   2.708   8.651   5.010  0.5155  0.1540 -0.0587
   23BDD    C11 4300   2.634   8.747   4.918  0.6347 -0.1278 -0.7464
   23BDD    C12 4301   2.696   8.794   4.786 -0.7392  0.7044 -0.0388
   23BDD    C13 4302   2.605   8.904   4.724 -0.8996 -1.0721 -0.4306
   23BDD    C14 4303   2.651   8.994   4.608 -0.0128 -1.1780 -1.3415
   23BDD    C15 4304   2.555   9.117   4.588  0.0516  0.2802 -0.2340
   23BDD    C16 4305   2.610   9.152   4.454  0.5759 -1.6065  0.8293
   23BDD    C17 4306   2.761   8.695   4.696 -0.5559 -0.5986  0.1925
   23BDD    C18 4307   2.713   8.584   4.600 -1.3158 -0.0246  0.3848
   23BDD    C19 4308   2.903   8.319   5.107 -0.8383 -0.6841  1.5455
   23BDD    C20 4309   2.828   8.185   5.139 -1.1713  0.6408  0.1927
   23BDD    C21 4310   2.773   8.136   5.011  0.2656  0.4616  0.4803
   23BDD    C22 4311   2.655   8.029   4.996 -0.9163 -0.0371 -1.4782
   23BDD    C23 4312   2.559   8.048   5.111 -0.5667  0.0051  0.1441
   23BDD    C24 4313   2.486   7.927   5.136  0.7419  1.6163 -0.8016
   23BDD    C25 4314   2.899   8.062   5.216 -0.0178 -0.7847 -1.5838
   23BDD    C26 4315   3.028   7.978   5.172  1.0876 -1.2944  0.1929
   24TPM     C1 4316   3.009   8.676   5.610  0.3607  0.3248  0.4750
   24TPM     C2 4317   3.144   8.678   5.592  0.3456  0.3953  0.3715
   24TPM     C3 4318   3.217   8.603   5.691  0.4358  0.1156  0.0979
   24TPM     C4 4319   3.138   8.544   5.785  0.5197 -0.1683 -0.0070
   24TPM     S1 4320   2.963   8.578   5.755  0.4910 -0.1034  0.2332
   25BDTP    C1 4321   3.303   8.174   6.265 -0.5525  0.0567 -0.0137
   25BDTP    C2 4322   3.369   8.297   6.296 -0.2581 -0.0730 -0.1125
   25BDTP    C3 4323   3.358   8.410   6.216 -0.0679 -0.0830 -0.1521
   25BDTP    C4 4324   3.280   8.401   6.100 -0.1721  0.0403 -0.0916
   25BDTP    C5 4325   3.215   8.278   6.069 -0.4663  0.1700  0.0072
   25BDTP    C6 4326   3.225   8.166   6.149 -0.6567  0.1802  0.0470
   25BDTP    C7 4327   3.254   8.504   6.001 -0.0157  0.0558 -0.1163
   25BDTP    C8 4328   3.174   8.465   5.899 -0.1764  0.1891 -0.0418
   25BDTP    S1 4329   3.120   8.293   5.913 -0.5483  0.3140  0.0702
   25BDTP    C9 4330   3.329   8.071   6.364 -0.7089  0.0415  0.0111
   25BDTP   C10 4331   3.409   8.110   6.466 -0.5482 -0.0918 -0.0635
   25BDTP    S2 4332   3.464   8.283   6.452 -0.1764 -0.2169 -0.1754
   26FTM     S1 4333   3.318   8.670   6.285 -0.1633 -0.2035 -0.2586
   26FTM     C1 4334   3.460   8.771   6.331 -0.0869 -0.2805 -0.3219
   26FTM     C2 4335   3.575   8.699   6.319 -0.1478 -0.3979 -0.2056
   26FTM     C3 4336   3.560   8.564   6.274 -0.2550 -0.4344 -0.0633
   26FTM     C4 4337   3.430   8.531   6.251 -0.2768 -0.3416 -0.0711
   26FTM     F1 4338   3.700   8.752   6.348 -0.1102 -0.4795 -0.2208
   26FTM     C5 4339   3.424   8.919   6.355  0.2376  0.5020  0.4640
   26FTM     C6 4340   3.460   8.984   6.219  0.2941  0.4841  0.2500
   26FTM     C7 4341   3.341   8.981   6.103  0.0521 -0.0352 -0.4492
   26FTM     C8 4342   3.211   9.042   6.167  0.7831  1.4517  0.9881
   26FTM     C9 4343   3.101   9.036   6.049  0.7535 -1.5445  0.4729
   26FTM    C10 4344   2.977   9.119   6.085  0.5199  0.2508  0.7021
   26FTM    C11 4345   3.541   9.126   6.236  1.0480  0.0463 -0.4331
   26FTM    C12 4346   3.602   9.206   6.132 -0.2729  1.1956  0.4419
   27FTM     S1 4347   3.138   7.990   5.936 -0.3584  0.5190 -0.1861
   27FTM     C1 4348   3.083   7.824   5.982 -0.5498  0.3712 -0.9141
   27FTM     C2 4349   3.078   7.813   6.118 -0.5006 -0.2396 -0.9551
   27FTM     C3 4350   3.115   7.930   6.192 -0.3154 -0.6202 -0.4358
   27FTM     C4 4351   3.150   8.034   6.111 -0.2198 -0.2906  0.0178
   27FTM     F1 4352   3.039   7.697   6.183 -0.6202 -0.4901 -1.4656
   27FTM     C5 4353   3.050   7.722   5.876 -0.3527 -1.0519 -0.4133
   27FTM     C6 4354   3.178   7.706   5.777  0.2273 -0.0849  0.2674
   27FTM     C7 4355   3.173   7.606   5.655  0.9241  0.4707 -0.9415
   27FTM     C8 4356   3.065   7.648   5.534 -0.4100  0.9150  1.0276
   27FTM     C9 4357   3.078   7.789   5.467 -1.2864 -0.5448 -0.1392
   27FTM    C10 4358   3.127   7.914   5.543 -1.4692 -0.5337 -0.1204
   27FTM    C11 4359   3.319   7.715   5.853 -0.2951  0.5904 -0.1542
   27FTM    C12 4360   3.434   7.762   5.765  0.0877  1.0389  0.9731
   28TPM     C1 4361   3.481   8.031   6.570  0.0389 -0.0144 -0.0229
   28TPM     C2 4362   3.565   8.067   6.671 -0.1128  0.2966 -0.0046
   28TPM     C3 4363   3.615   7.956   6.747  0.1676  0.4894  0.0969
   28TPM     C4 4364   3.568   7.835   6.705  0.5332  0.3255  0.1564
   28TPM     S1 4365   3.457   7.852   6.564  0.5517 -0.0883  0.0879
   29BDD     C1 4366   3.737   7.582   6.951  0.0995 -0.1449 -0.4624
   29BDD     C2 4367   3.664   7.503   6.867 -0.0821 -0.1808 -0.2724
   29BDD     C3 4368   3.582   7.579   6.774 -0.4795 -0.2204  0.0384
   29BDD     C4 4369   3.594   7.714   6.788 -0.5951 -0.2141  0.0808
   29BDD     S1 4370   3.709   7.757   6.920 -0.2145 -0.1584 -0.2654
   29BDD     C5 4371   3.666   7.356   6.869  0.1031 -0.1799 -0.3695
   29BDD     C6 4372   3.495   7.514   6.674 -0.7302 -0.2629  0.2818
   29BDD     O1 4373   3.425   7.579   6.593 -1.0728 -0.2968  0.5497
   29BDD     O2 4374   3.737   7.290   6.950  0.4457 -0.1457 -0.6374
   29BDD     C7 4375   3.497   7.366   6.676 -0.5449 -0.2619  0.1848
   29BDD     C8 4376   3.579   7.291   6.769 -0.1475 -0.2222 -0.1259
   29BDD     C9 4377   3.567   7.155   6.755 -0.0318 -0.2284 -0.1682
   29BDD     S2 4378   3.452   7.113   6.624 -0.4125 -0.2842  0.1777
   29BDD    C10 4379   3.424   7.287   6.592 -0.7265 -0.2977  0.3748
   29BDD    C11 4380   3.347   7.290   6.454 -1.6167 -0.3742 -1.0832
   29BDD    C12 4381   3.394   7.310   6.304 -0.3105  1.0199 -0.4701
   29BDD    C13 4382   3.487   7.445   6.303 -0.7862  0.0202 -0.0091
   29BDD    C14 4383   3.527   7.498   6.162  0.1101 -0.5325 -0.4833
   29BDD    C15 4384   3.636   7.604   6.177  0.1986 -0.0043 -0.3071
   29BDD    C16 4385   3.770   7.534   6.179  0.0468 -0.4039 -0.7475
   29BDD    C17 4386   3.480   7.196   6.251 -0.4243 -0.5943 -0.7974
   29BDD    C18 4387   3.445   7.049   6.259 -0.9592  0.9975  0.5262
   29BDD    C19 4388   3.647   7.038   6.821 -0.0464 -0.9604  0.2477
   29BDD    C20 4389   3.563   6.927   6.883  0.3692 -0.6529  0.4159
   29BDD    C21 4390   3.534   6.966   7.029 -1.2286  0.4629  0.2744
   29BDD    C22 4391   3.642   6.994   7.138  0.9860 -0.9412  0.1817
   29BDD    C23 4392   3.731   6.875   7.170  0.0657 -1.3848 -0.6806
   29BDD    C24 4393   3.827   6.954   7.254 -0.2590 -0.4067 -0.2169
   29BDD    C25 4394   3.475   6.862   6.784  1.9568 -0.5298 -0.3106
   29BDD    C26 4395   3.437   6.720   6.829  0.3818  1.2889  0.9336
   30TPM     C1 4396   3.832   7.562   7.075 -0.0342 -0.6462  0.0639
   30TPM     C2 4397   3.870   7.667   7.153 -0.6515 -0.6928  0.4381
   30TPM     C3 4398   3.925   7.628   7.280 -0.9254 -0.7949  0.5286
   30TPM     C4 4399   3.930   7.493   7.298 -0.5169 -0.8263  0.2233
   30TPM     S1 4400   3.864   7.404   7.156  0.2513 -0.7282 -0.2055
   31BDTP    C1 4401   4.206   7.093   7.696 -0.3673  0.4448 -0.1675
   31BDTP    C2 4402   4.233   7.035   7.568  0.1227  0.6437 -0.1608
   31BDTP    C3 4403   4.191   7.092   7.449  0.4346  0.7439 -0.2232
   31BDTP    C4 4404   4.120   7.214   7.456  0.2557  0.6434 -0.2954
   31BDTP    C5 4405   4.093   7.272   7.583 -0.2341  0.4445 -0.3021
   31BDTP    C6 4406   4.135   7.214   7.702 -0.5462  0.3445 -0.2398
   31BDTP    C7 4407   4.067   7.292   7.346  0.5104  0.7163 -0.3680
   31BDTP    C8 4408   4.003   7.405   7.384  0.2389  0.5838 -0.4280
   31BDTP    S1 4409   4.000   7.428   7.565 -0.3779  0.3476 -0.4011
   31BDTP    C9 4410   4.259   7.014   7.805 -0.6220  0.3718 -0.0950
   31BDTP   C10 4411   4.324   6.902   7.767 -0.3504  0.5044 -0.0349
   31BDTP    S2 4412   4.326   6.879   7.587  0.2662  0.7407 -0.0618
   32FTM     S1 4413   4.411   7.037   7.270 -0.4847 -0.1577 -0.5341
   32FTM     C1 4414   4.365   6.958   7.115 -0.4267 -0.2212 -0.5192
   32FTM     C2 4415   4.230   6.941   7.109 -0.4357 -0.1254 -0.6082
   32FTM     C3 4416   4.156   6.987   7.223 -0.4869  0.0001 -0.6913
   32FTM     C4 4417   4.237   7.040   7.319 -0.5182  0.0004 -0.6651
   32FTM     F1 4418   4.166   6.883   7.001 -0.3980 -0.1457 -0.6198
   32FTM     C5 4419   4.477   6.919   7.015  0.9867  0.9476  0.1279
   32FTM     C6 4420   4.551   7.009   6.923 -0.5596 -1.8461 -1.2858
   32FTM     C7 4421   4.623   6.942   6.814 -0.4140  0.2296 -0.6790
   32FTM     C8 4422   4.580   6.817   6.747  0.4393  0.6609 -1.0059
   32FTM     C9 4423   4.535   6.809   6.595  0.0144  1.4955 -1.2718
   32FTM    C10 4424   4.654   6.832   6.508  0.3143 -2.3011  1.0224
   32FTM    C11 4425   4.515   7.152   6.859 -0.3640 -0.8094 -0.1873
   32FTM    C12 4426   4.393   7.230   6.905 -1.6918  0.2221 -0.4005
   33FTM     S1 4427   3.944   7.239   7.917 -0.0325 -0.0207 -0.0370
   33FTM     C1 4428   3.998   7.308   8.074 -0.0057 -0.0471 -0.0346
   33FTM     C2 4429   4.126   7.353   8.064  0.0861 -0.2899  0.0260
   33FTM     C3 4430   4.188   7.337   7.936  0.1395 -0.4660  0.0734
   33FTM     C4 4431   4.106   7.278   7.845  0.0873 -0.3542  0.0482
   33FTM     F1 4432   4.194   7.411   8.170  0.1268 -0.3672  0.0424
   33FTM     C5 4433   3.894   7.347   8.177 -1.0870 -0.0677 -1.1806
   33FTM     C6 4434   3.813   7.234   8.237  0.5652  0.1532 -0.6210
   33FTM     C7 4435   3.726   7.298   8.346 -0.0946  0.4245  0.2299
   33FTM     C8 4436   3.615   7.382   8.299  0.5372 -0.5174 -1.6062
   33FTM     C9 4437   3.538   7.459   8.414  0.9649 -0.4518  0.1815
   33FTM    C10 4438   3.410   7.387   8.457 -0.1765  0.3332  0.3821
   33FTM    C11 4439   3.909   7.138   8.303  0.9678  0.8515 -0.2135
   33FTM    C12 4440   4.024   7.160   8.405 -0.8935  0.5737 -0.1157
   34TPM     C1 4441   4.362   6.795   7.849  0.1717 -0.0752 -0.0786
   34TPM     C2 4442   4.489   6.757   7.880  0.1875 -0.3093 -0.4277
   34TPM     C3 4443   4.497   6.632   7.951  0.1428 -0.2452 -0.3105
   34TPM     C4 4444   4.375   6.575   7.975  0.0931  0.0377  0.1276
   34TPM     S1 4445   4.241   6.676   7.909  0.0987  0.2469  0.4289
   35BDD     C1 4446   4.258   6.225   8.119 -0.4475  0.0845  0.2507
   35BDD     C2 4447   4.332   6.281   8.219 -0.3264 -0.0596  0.2420
   35BDD     C3 4448   4.391   6.409   8.183 -0.0972 -0.1646  0.2418
   35BDD     C4 4449   4.361   6.448   8.055 -0.0469 -0.0988  0.2503
   35BDD     S1 4450   4.256   6.328   7.972 -0.2831  0.0989  0.2590
   35BDD     C5 4451   4.351   6.219   8.352 -0.4168 -0.1062  0.2334
   35BDD     C6 4452   4.475   6.487   8.276  0.0639 -0.3264  0.2332
   35BDD     O1 4453   4.526   6.597   8.245  0.2615 -0.4170  0.2329
   35BDD     O2 4454   4.300   6.109   8.383 -0.6145 -0.0157  0.2334
   35BDD     C7 4455   4.494   6.425   8.409 -0.0267 -0.3731  0.2248
   35BDD     C8 4456   4.435   6.297   8.445 -0.2559 -0.2681  0.2251
   35BDD     C9 4457   4.465   6.258   8.572 -0.3061 -0.3338  0.2170
   35BDD     S2 4458   4.570   6.377   8.656 -0.0698 -0.5317  0.2080
   35BDD    C10 4459   4.569   6.481   8.509  0.0947 -0.5174  0.2167
   35BDD    C11 4460   4.654   6.607   8.561  0.2822  0.8630  0.3058
   35BDD    C12 4461   4.612   6.688   8.691  1.2641 -0.0695  0.6957
   35BDD    C13 4462   4.467   6.740   8.708  1.0266  0.8540 -0.8213
   35BDD    C14 4463   4.412   6.822   8.581  0.3893 -0.8295 -0.0230
   35BDD    C15 4464   4.258   6.857   8.561 -1.0724 -0.6113 -0.8981
   35BDD    C16 4465   4.182   6.806   8.451  0.5708  0.8132 -1.0294
   35BDD    C17 4466   4.719   6.770   8.757 -0.5785  1.1215 -1.3608
   35BDD    C18 4467   4.863   6.717   8.760 -0.0615 -0.7565 -0.6084
   35BDD    C19 4468   4.434   6.131   8.664  0.3225 -0.7668  1.0782
   35BDD    C20 4469   4.279   6.098   8.707 -0.2176  0.5075 -0.1709
   35BDD    C21 4470   4.267   5.963   8.796 -0.3257  0.5364  0.8202
   35BDD    C22 4471   4.234   5.843   8.702  1.5486 -0.8433 -0.9935
   35BDD    C23 4472   4.290   5.712   8.747  0.1682 -1.2692  0.4860
   35BDD    C24 4473   4.442   5.704   8.738  0.9336  0.2603  0.8038
   35BDD    C25 4474   4.166   6.203   8.664  0.9059  0.1540 -2.0672
   35BDD    C26 4475   4.162   6.317   8.764 -0.4859  0.6858 -0.5579
   36TPM     C1 4476   4.182   6.100   8.099 -0.0324  0.1507 -0.4698
   36TPM     C2 4477   4.053   6.106   8.143 -0.0423  0.2869 -0.5157
   36TPM     C3 4478   3.966   6.010   8.081 -0.0133  0.0466 -0.1917
   36TPM     C4 4479   4.028   5.931   7.989  0.0186 -0.2725  0.1011
   36TPM     S1 4480   4.203   5.972   7.974  0.0146 -0.2947 -0.0106
   37BDTP    C1 4481   3.863   5.383   7.728 -0.2004  0.3368 -0.2569
   37BDTP    C2 4482   3.800   5.376   7.856  0.2022  0.1070 -0.0679
   37BDTP    C3 4483   3.808   5.478   7.949  0.3270  0.0244  0.0128
   37BDTP    C4 4484   3.882   5.594   7.915  0.0420  0.1752 -0.0980
   37BDTP    C5 4485   3.945   5.601   7.788 -0.3605  0.4051 -0.2869
   37BDTP    C6 4486   3.937   5.498   7.694 -0.4854  0.4877 -0.3677
   37BDTP    C7 4487   3.904   5.712   7.996  0.1008  0.1287 -0.0452
   37BDTP    C8 4488   3.979   5.807   7.935 -0.2338  0.3105 -0.1835
   37BDTP    S1 4489   4.033   5.759   7.768 -0.6706  0.5656 -0.4004
   37BDTP    C9 4490   3.841   5.265   7.648 -0.2593  0.3833 -0.3097
   37BDTP   C10 4491   3.766   5.170   7.709  0.0753  0.2017 -0.1712
   37BDTP    S2 4492   3.712   5.218   7.876  0.5121 -0.0536  0.0456
   38FTM     S1 4493   3.551   5.452   8.088 -0.1031  0.4972 -0.0886
   38FTM     C1 4494   3.555   5.457   8.268  0.2698  0.0120 -0.0826
   38FTM     C2 4495   3.684   5.471   8.311  0.3929 -0.4027 -0.2985
   38FTM     C3 4496   3.784   5.480   8.208  0.2091 -0.3688 -0.4771
   38FTM     C4 4497   3.730   5.472   8.083 -0.0635  0.0862 -0.3953
   38FTM     F1 4498   3.718   5.478   8.445  0.6793 -0.8372 -0.3469
   38FTM     C5 4499   3.436   5.438   8.348  0.4596 -0.5038 -1.4402
   38FTM     C6 4500   3.405   5.517   8.480  2.6132  0.0365  1.9918
   38FTM     C7 4501   3.291   5.445   8.553 -0.5921  0.6656  0.9649
   38FTM     C8 4502   3.334   5.373   8.692 -0.9325 -0.3579  0.4692
   38FTM     C9 4503   3.439   5.260   8.697  0.6085 -0.5538  0.3766
   38FTM    C10 4504   3.393   5.127   8.620 -0.7554 -0.8041 -0.4735
   38FTM    C11 4505   3.362   5.673   8.446 -0.2979  0.7322 -0.9391
   38FTM    C12 4506   3.370   5.756   8.566 -1.0236  0.2329 -0.9641
   39FTM     S1 4507   3.981   5.585   7.412  0.3438  1.1646 -0.0122
   39FTM     C1 4508   4.125   5.506   7.337  0.0401  0.1465  0.4517
   39FTM     C2 4509   4.188   5.429   7.429 -0.9327 -0.5232  0.5999
   39FTM     C3 4510   4.131   5.428   7.561 -1.4879 -0.2910  0.3670
   39FTM     C4 4511   4.020   5.506   7.569 -0.9216  0.5851  0.0296
   39FTM     F1 4512   4.303   5.356   7.400 -1.3782 -1.3862  0.9550
   39FTM     C5 4513   4.153   5.511   7.189 -0.3271  1.0127  1.1027
   39FTM     C6 4514   4.263   5.595   7.119 -0.1603  0.8308 -0.1962
   39FTM     C7 4515   4.283   5.618   6.966  0.6676  0.3826  0.8508
   39FTM     C8 4516   4.186   5.685   6.864 -1.0024  0.7919  0.0814
   39FTM     C9 4517   4.238   5.752   6.734 -0.1211  0.1596  0.5847
   39FTM    C10 4518   4.278   5.651   6.624  0.2463 -1.3751 -0.6886
   39FTM    C11 4519   4.394   5.603   7.179  0.4300 -1.0896  0.8856
   39FTM    C12 4520   4.383   5.735   7.259  0.7140 -0.0863  0.1598
   40TPM     C1 4521   3.704   5.062   7.639  0.9179 -1.0958  0.5970
   40TPM     C2 4522   3.769   4.977   7.554  1.1103 -1.6915  1.3124
   40TPM     C3 4523   3.691   4.863   7.515  0.7046 -1.2935  0.9328
   40TPM     C4 4524   3.566   4.860   7.570  0.2029 -0.3940 -0.0721
   40TPM     S1 4525   3.538   5.003   7.677  0.2038  0.0231 -0.6214
   41BDD     C1 4526   3.246   4.707   7.399 -0.1832  0.4026 -0.3645
   41BDD     C2 4527   3.337   4.605   7.405 -0.2618  0.3411 -0.2184
   41BDD     C3 4528   3.466   4.646   7.458 -0.3613  0.2224  0.1216
   41BDD     C4 4529   3.471   4.778   7.491 -0.3572  0.1954  0.2301
   41BDD     S1 4530   3.315   4.861   7.459 -0.2283  0.3165 -0.0862
   41BDD     C5 4531   3.308   4.466   7.363 -0.2481  0.3889 -0.3861
   41BDD     C6 4532   3.579   4.552   7.474 -0.4570  0.1404  0.3268
   41BDD     O1 4533   3.690   4.587   7.520 -0.5429  0.0384  0.6199
   41BDD     O2 4534   3.197   4.431   7.318 -0.1622  0.4909 -0.6794
   41BDD     C7 4535   3.550   4.413   7.432 -0.4434  0.1881  0.1589
   41BDD     C8 4536   3.422   4.372   7.379 -0.3438  0.3067 -0.1812
   41BDD     C9 4537   3.416   4.240   7.346 -0.3480  0.3337 -0.2894
   41BDD     S2 4538   3.572   4.157   7.379 -0.4768  0.2127  0.0267
   41BDD    C10 4539   3.641   4.311   7.438 -0.5221  0.1266  0.3049
   41BDD    C11 4540   3.788   4.327   7.480  0.0201  0.2235 -0.5967
   41BDD    C12 4541   3.869   4.213   7.553  0.2984  0.1052  0.1533
   41BDD    C13 4542   3.908   4.062   7.506  1.4545  0.8495 -1.2819
   41BDD    C14 4543   4.004   4.038   7.398 -0.4128  0.6721 -0.3824
   41BDD    C15 4544   4.130   4.120   7.416 -0.0280 -0.0797  0.0754
   41BDD    C16 4545   4.200   4.135   7.282 -0.2740  0.5494  0.4299
   41BDD    C17 4546   3.893   4.267   7.697 -0.6709  1.2676  0.2311
   41BDD    C18 4547   3.988   4.182   7.770 -0.7620  0.5877 -0.3144
   41BDD    C19 4548   3.312   4.143   7.284  0.6087  0.1339 -0.5976
   41BDD    C20 4549   3.196   4.086   7.365  0.1484  1.3425 -0.5822
   41BDD    C21 4550   3.065   4.024   7.287 -0.8096 -0.3555 -0.1512
   41BDD    C22 4551   2.969   4.104   7.211 -1.2550 -0.9702 -0.3573
   41BDD    C23 4552   3.028   4.132   7.069  1.7349  0.6591 -0.8637
   41BDD    C24 4553   2.946   4.233   7.015 -0.8911 -0.1820 -0.3633
   41BDD    C25 4554   3.213   4.057   7.517  0.0296 -0.3300 -0.2512
   41BDD    C26 4555   3.232   3.909   7.556  0.3676  0.2845  0.3447
   42TPM     C1 4556   3.104   4.733   7.348  0.4484  0.1475 -0.0510
   42TPM     C2 4557   3.000   4.652   7.382  0.8080 -0.0727  0.5573
   42TPM     C3 4558   2.871   4.713   7.363  0.5577 -0.3639  1.2450
   42TPM     C4 4559   2.877   4.840   7.314  0.0072 -0.3657  1.1611
   42TPM     S1 4560   3.047   4.893   7.288 -0.2396  0.0032  0.1995
   43BDTP    C1 4561   2.495   5.235   7.008  0.4453  0.1788  0.4084
   43BDTP    C2 4562   2.402   5.134   7.047  0.3408  0.0983 -0.0420
   43BDTP    C3 4563   2.440   5.020   7.118  0.1797 -0.1302 -0.3178
   43BDTP    C4 4564   2.575   5.006   7.152  0.1187 -0.2874 -0.1421
   43BDTP    C5 4565   2.668   5.107   7.114  0.2232 -0.2071  0.3085
   43BDTP    C6 4566   2.631   5.220   7.043  0.3843  0.0214  0.5844
   43BDTP    C7 4567   2.638   4.897   7.225 -0.0438 -0.5320 -0.3636
   43BDTP    C8 4568   2.771   4.912   7.243 -0.0659 -0.6380 -0.1044
   43BDTP    S1 4569   2.837   5.065   7.170  0.1159 -0.4429  0.4567
   43BDTP    C9 4570   2.433   5.343   6.935  0.6077  0.4233  0.6300
   43BDTP   C10 4571   2.300   5.329   6.917  0.6298  0.5293  0.3709
   43BDTP    S2 4572   2.234   5.176   6.990  0.4480  0.3341 -0.1901
   44FTM     S1 4573   2.332   4.751   7.163  0.5220 -0.0846 -0.0419
   44FTM     C1 4574   2.182   4.749   7.263  0.8510 -0.2010  0.4552
   44FTM     C2 4575   2.148   4.875   7.299  0.9615 -0.2415  0.7062
   44FTM     C3 4576   2.235   4.980   7.252  0.8011 -0.1857  0.5314
   44FTM     C4 4577   2.338   4.931   7.177  0.5598 -0.0998  0.1338
   44FTM     F1 4578   2.037   4.905   7.376  1.2146 -0.3313  1.1091
   44FTM     C5 4579   2.136   4.621   7.309 -0.3759 -0.4861  0.5093
   44FTM     C6 4580   2.207   4.529   7.409 -0.3274 -0.7640 -1.1001
   44FTM     C7 4581   2.220   4.581   7.561 -0.8510  0.4038  0.2335
   44FTM     C8 4582   2.096   4.638   7.634  0.1763  0.1634 -0.1083
   44FTM     C9 4583   2.095   4.736   7.761  0.3473  0.1858  0.0978
   44FTM    C10 4584   1.959   4.788   7.811 -1.3968  0.0981 -0.5262
   44FTM    C11 4585   2.130   4.389   7.399  0.8005 -0.7412 -1.2948
   44FTM    C12 4586   1.981   4.359   7.426  0.3956 -0.5114 -0.3916
   45FTM     S1 4587   2.873   5.398   7.071 -0.5659  0.6870 -0.1952
   45FTM     C1 4588   2.921   5.472   6.914 -0.1730 -0.0646 -0.4408
   45FTM     C2 4589   2.836   5.433   6.816  0.2460 -0.7704 -0.5355
   45FTM     C3 4590   2.730   5.344   6.855  0.2862 -0.7694 -0.4257
   45FTM     C4 4591   2.735   5.315   6.988 -0.1152 -0.0394 -0.2406
   45FTM     F1 4592   2.849   5.474   6.684  0.6182 -1.4589 -0.7275
   45FTM     C5 4593   3.047   5.543   6.901  0.4447 -0.6929 -0.2018
   45FTM     C6 4594   3.187   5.492   6.915 -0.3603 -0.4224  0.2712
   45FTM     C7 4595   3.268   5.463   7.056  0.6767 -0.0187  0.6675
   45FTM     C8 4596   3.280   5.563   7.170  1.9813 -0.5901 -0.6429
   45FTM     C9 4597   3.144   5.608   7.245 -0.6068  0.5792 -1.5154
   45FTM    C10 4598   3.092   5.517   7.360 -1.0057  0.8415  0.2300
   45FTM    C11 4599   3.208   5.438   6.769 -0.7484  0.9812  0.3260
   45FTM    C12 4600   3.367   5.419   6.761  0.2543 -0.0492 -0.0684
   46TPM     C1 4601   2.209   5.417   6.837 -0.0512  0.0203  0.6022
   46TPM     C2 4602   2.074   5.427   6.830 -0.0698 -0.4939  0.0294
   46TPM     C3 4603   2.027   5.542   6.758 -0.2173 -0.9476 -0.6230
   46TPM     C4 4604   2.128   5.621   6.710 -0.3111 -0.7793 -0.5475
   46TPM     S1 4605   2.290   5.554   6.752 -0.2199 -0.0293  0.3600
   47BDD     C1 4606   1.960   5.878   6.467  0.1809 -0.0108 -0.0608
   47BDD     C2 4607   2.059   5.950   6.528  0.2478 -0.0993 -0.0653
   47BDD     C3 4608   2.138   5.871   6.621  0.1478 -0.1560 -0.0293
   47BDD     C4 4609   2.097   5.741   6.630  0.0064 -0.1103  0.0022
   47BDD     S1 4610   1.958   5.708   6.522 -0.0117  0.0072 -0.0110
   47BDD     C5 4611   2.086   6.093   6.502  0.4058 -0.1348 -0.1030
   47BDD     C6 4612   2.250   5.928   6.699  0.1964 -0.2538 -0.0274
   47BDD     O1 4613   2.317   5.860   6.780  0.1103 -0.3029  0.0037
   47BDD     O2 4614   2.018   6.161   6.422  0.4920 -0.0857 -0.1340
   47BDD     C7 4615   2.276   6.071   6.673  0.3545 -0.2894 -0.0650
   47BDD     C8 4616   2.198   6.150   6.580  0.4544 -0.2327 -0.1011
   47BDD     C9 4617   2.239   6.280   6.571  0.5959 -0.2786 -0.1326
   47BDD     S2 4618   2.378   6.313   6.679  0.6138 -0.3960 -0.1193
   47BDD    C10 4619   2.376   6.143   6.735  0.4213 -0.3779 -0.0695
   47BDD    C11 4620   2.475   6.117   6.841 -0.3294  1.4278 -0.1982
   47BDD    C12 4621   2.574   6.004   6.814 -1.0293 -0.6579  1.2721
   47BDD    C13 4622   2.636   6.040   6.668  0.3273 -0.7970  0.1177
   47BDD    C14 4623   2.708   5.953   6.565 -0.4017  0.4989 -0.5023
   47BDD    C15 4624   2.728   6.015   6.426  0.1442 -1.0528 -1.6551
   47BDD    C16 4625   2.616   6.056   6.341  0.9129  1.0538 -0.7484
   47BDD    C17 4626   2.664   5.947   6.931  0.9025  0.1403  1.1168
   47BDD    C18 4627   2.597   5.899   7.059  0.7613  0.4795 -0.0730
   47BDD    C19 4628   2.221   6.407   6.476 -0.0154  1.0226  1.0005
   47BDD    C20 4629   2.322   6.405   6.364  0.0815  0.3279 -0.3401
   47BDD    C21 4630   2.297   6.516   6.257 -0.7742 -0.7400 -0.9653
   47BDD    C22 4631   2.321   6.664   6.321 -0.4833 -0.2332 -0.2517
   47BDD    C23 4632   2.334   6.771   6.210  0.4148 -1.3348  0.3736
   47BDD    C24 4633   2.398   6.902   6.278 -0.1629 -1.0613 -2.0532
   47BDD    C25 4634   2.333   6.269   6.293  0.1557  0.0033 -0.0757
   47BDD    C26 4635   2.230   6.228   6.182 -1.5588 -0.3527  0.8311
   48TPM     C1 4636   1.861   5.916   6.377 -0.0284 -0.5088 -0.3297
   48TPM     C2 4637   1.885   5.954   6.248 -0.2544 -0.2915 -0.3103
   48TPM     C3 4638   1.767   5.994   6.176 -0.3157  0.3413  0.1239
   48TPM     C4 4639   1.653   5.986   6.249 -0.1364  0.6070  0.4356
   48TPM     S1 4640   1.685   5.928   6.417  0.1257  0.0740  0.2031
   49BDTP    C1 4641   1.062   6.056   6.058  0.1601  0.0122  0.2855
   49BDTP    C2 4642   1.050   5.999   6.188  0.1467  0.0087  0.2826
   49BDTP    C3 4643   1.160   5.971   6.268  0.1453 -0.0947  0.2495
   49BDTP    C4 4644   1.288   6.001   6.218  0.1577 -0.1994  0.2177
   49BDTP    C5 4645   1.300   6.058   6.088  0.1711 -0.1960  0.2205
   49BDTP    C6 4646   1.190   6.086   6.008  0.1725 -0.0926  0.2536
   49BDTP    C7 4647   1.417   5.982   6.282  0.1589 -0.3169  0.1804
   49BDTP    C8 4648   1.523   6.021   6.208  0.1725 -0.4005  0.1554
   49BDTP    S1 4649   1.475   6.088   6.046  0.1855 -0.3424  0.1756
   49BDTP    C9 4650   0.934   6.075   5.993  0.1588  0.1296  0.3226
   49BDTP   C10 4651   0.828   6.036   6.068  0.1453  0.2131  0.3476
   49BDTP    S2 4652   0.875   5.969   6.230  0.1323  0.1551  0.3276
   50FTM     S1 4653   1.181   6.050   6.542  0.0005 -0.1773  0.4896
   50FTM     C1 4654   1.139   5.925   6.664  0.0998 -0.8266 -0.1312
   50FTM     C2 4655   1.096   5.812   6.601  0.3348 -0.6065 -0.7014
   50FTM     C3 4656   1.094   5.816   6.458  0.4492  0.0641 -0.6905
   50FTM     C4 4657   1.136   5.936   6.409  0.2969  0.3677 -0.0924
   50FTM     F1 4658   1.057   5.698   6.670  0.4603 -0.9997 -1.2672
   50FTM     C5 4659   1.212   5.955   6.801  1.2362  0.5074 -0.3750
   50FTM     C6 4660   1.155   5.909   6.941  0.8745 -1.1905 -0.1692
   50FTM     C7 4661   1.101   5.771   6.968  0.9282  0.6856 -1.0153
   50FTM     C8 4662   1.184   5.638   6.952  0.0157 -0.8821  1.1568
   50FTM     C9 4663   1.157   5.505   7.029 -0.0450 -1.1519 -0.1831
   50FTM    C10 4664   1.018   5.452   7.066  0.0929  1.0935 -0.5376
   50FTM    C11 4665   1.213   5.970   7.062 -1.9640 -0.4946  0.0703
   50FTM    C12 4666   1.369   5.960   7.074 -1.1471 -0.2974 -0.5184
   51FTM     S1 4667   1.249   6.077   5.726  0.5330 -0.5561  0.1239
   51FTM     C1 4668   1.293   6.237   5.655  0.4864 -0.6090 -0.0255
   51FTM     C2 4669   1.274   6.335   5.747  0.6263 -0.5496 -0.0587
   51FTM     C3 4670   1.225   6.293   5.875  0.7746 -0.4615  0.0278
   51FTM     C4 4671   1.206   6.158   5.881  0.7474 -0.4530  0.1307
   51FTM     F1 4672   1.300   6.469   5.721  0.6283 -0.5716 -0.1694
   51FTM     C5 4673   1.368   6.244   5.520  0.7235 -0.2520 -1.7601
   51FTM     C6 4674   1.492   6.156   5.487  0.4535  1.3426  0.6371
   51FTM     C7 4675   1.577   6.060   5.583  0.8979 -0.2091  0.8207
   51FTM     C8 4676   1.719   6.093   5.603 -1.3196  1.4639 -1.2201
   51FTM     C9 4677   1.769   5.999   5.713  0.3326  0.1088 -1.6102
   51FTM    C10 4678   1.891   5.919   5.676  0.8132  0.6527 -0.9844
   51FTM    C11 4679   1.532   6.194   5.335 -0.3527  0.0443 -0.5073
   51FTM    C12 4680   1.575   6.086   5.236  0.8907 -0.2534 -1.0471
   52TPM     C1 4681   0.683   6.007   6.009 -0.6619  0.4480 -0.3400
   52TPM     C2 4682   0.627   6.087   5.914 -1.1450 -0.4836 -0.8670
   52TPM     C3 4683   0.488   6.061   5.890 -1.0643 -1.2882 -0.5127
   52TPM     C4 4684   0.437   5.961   5.967 -0.5195 -0.9701  0.2845
   52TPM     S1 4685   0.562   5.892   6.077 -0.0627  0.3809  0.6525
   53BDD     C1 4686   0.040   5.966   5.985  0.2466  0.0397  0.1284
   53BDD     C2 4687   0.075   5.872   5.892  0.1939  0.0501  0.0979
   53BDD     C3 4688   0.219   5.857   5.877  0.1857  0.1320 -0.0670
   53BDD     C4 4689   0.291   5.939   5.959  0.2324  0.1829 -0.1598
   53BDD     S1 4690   0.184   6.042   6.060  0.2897  0.1317 -0.0471
   53BDD     C5 4691  -0.022   5.793   5.814  0.1490 -0.0150  0.2191
   53BDD     C6 4692   0.279   5.761   5.783  0.1320  0.1566 -0.1266
   53BDD     O1 4693   0.403   5.747   5.770  0.1249  0.2271 -0.2688
   53BDD     O2 4694  -0.146   5.806   5.827  0.1562 -0.0857  0.3613
   53BDD     C7 4695   0.182   5.681   5.705  0.0871  0.0914 -0.0055
   53BDD     C8 4696   0.039   5.696   5.720  0.0952  0.0095  0.1595
   53BDD     C9 4697  -0.034   5.614   5.638  0.0486 -0.0414  0.2524
   53BDD     S2 4698   0.073   5.511   5.537 -0.0087  0.0098  0.1396
   53BDD    C10 4699   0.217   5.587   5.612  0.0344  0.1018 -0.0359
   53BDD    C11 4700   0.343   5.529   5.546  1.7259 -0.5170  0.0651
   53BDD    C12 4701   0.394   5.566   5.400  0.4900  0.3018  0.2294
   53BDD    C13 4702   0.394   5.714   5.358 -0.7841 -0.0378 -0.1194
   53BDD    C14 4703   0.478   5.805   5.444 -0.1201 -0.0542 -0.1018
   53BDD    C15 4704   0.446   5.958   5.426  0.5596 -1.5499 -0.6872
   53BDD    C16 4705   0.528   6.018   5.312  0.2300  0.2337 -0.6885
   53BDD    C17 4706   0.321   5.484   5.285 -0.0946  2.0181  0.1211
   53BDD    C18 4707   0.412   5.460   5.164 -0.5629  0.8809 -0.5007
   53BDD    C19 4708  -0.177   5.581   5.593  0.4233 -0.7472  0.8263
   53BDD    C20 4709  -0.204   5.428   5.585  0.4290 -0.5320  0.8389
   53BDD    C21 4710  -0.305   5.391   5.477  0.6472  0.3087 -0.2924
   53BDD    C22 4711  -0.264   5.415   5.326 -0.2764  1.6310 -0.1460
   53BDD    C23 4712  -0.373   5.383   5.215  1.2005 -1.2545 -1.2384
   53BDD    C24 4713  -0.343   5.449   5.079  0.3502  1.8118  0.3122
   53BDD    C25 4714  -0.231   5.374   5.738  0.5327  0.3649  0.8196
   53BDD    C26 4715  -0.188   5.230   5.734  0.0140  0.1354  0.7565
   54TPM     C1 4716  -0.086   6.040   6.013 -0.6266 -0.2983  0.0440
   54TPM     C2 4717  -0.196   5.967   6.047 -0.2055 -0.4869  1.0713
   54TPM     C3 4718  -0.289   6.038   6.131  0.3247 -0.5614  1.7364
   54TPM     C4 4719  -0.250   6.166   6.161  0.3078 -0.4296  1.2164
   54TPM     S1 4720  -0.091   6.205   6.085 -0.3847 -0.1994 -0.1645
   55BDTP    C1 4721  -0.531   6.549   6.585  0.0589  0.4888 -0.2432
   55BDTP    C2 4722  -0.461   6.643   6.504  0.0021  0.3699 -0.4326
   55BDTP    C3 4723  -0.385   6.606   6.395 -0.0579  0.2059 -0.4190
   55BDTP    C4 4724  -0.376   6.469   6.363 -0.0622  0.1564 -0.2090
   55BDTP    C5 4725  -0.447   6.375   6.444 -0.0057  0.2753 -0.0196
   55BDTP    C6 4726  -0.523   6.412   6.553  0.0542  0.4394 -0.0330
   55BDTP    C7 4727  -0.303   6.407   6.255 -0.1191 -0.0064 -0.1538
   55BDTP    C8 4728  -0.315   6.272   6.250 -0.1082 -0.0154  0.0651
   55BDTP    S1 4729  -0.420   6.205   6.383 -0.0243  0.1812  0.2320
   55BDTP    C9 4730  -0.604   6.612   6.693  0.1154  0.6517 -0.2981
   55BDTP   C10 4731  -0.593   6.747   6.698  0.1047  0.6608 -0.5168
   55BDTP    S2 4732  -0.487   6.813   6.565  0.0203  0.4642 -0.6841
   56FTM     S1 4733  -0.137   6.752   6.360 -0.1798 -0.0346 -0.2251
   56FTM     C1 4734  -0.123   6.860   6.216  0.5171  0.4058  0.1605
   56FTM     C2 4735  -0.234   6.849   6.140  0.6244  1.0910 -0.1037
   56FTM     C3 4736  -0.335   6.759   6.187  0.1824  1.3101 -0.6096
   56FTM     C4 4737  -0.300   6.699   6.304 -0.2788  0.7750 -0.7371
   56FTM     F1 4738  -0.252   6.921   6.022  1.1296  1.5607  0.0970
   56FTM     C5 4739  -0.012   6.944   6.188 -0.9166  1.7359 -0.3293
   56FTM     C6 4740   0.073   7.039   6.278  0.0215  0.9085  1.2953
   56FTM     C7 4741   0.009   7.056   6.419 -0.4427 -0.6586  0.2941
   56FTM     C8 4742  -0.017   7.205   6.446 -0.8986 -1.3091  1.1538
   56FTM     C9 4743  -0.077   7.231   6.580  0.6551  0.9696 -0.1563
   56FTM    C10 4744  -0.114   7.373   6.599  0.4623 -0.3560 -1.8419
   56FTM    C11 4745   0.150   7.148   6.202 -0.5385 -1.3044  0.4129
   56FTM    C12 4746   0.276   7.216   6.260  1.9511  1.7149  0.4595
   57FTM     S1 4747  -0.667   6.169   6.560 -0.0058  0.3640 -0.1468
   57FTM     C1 4748  -0.717   6.104   6.721 -0.2508  0.2920 -0.2507
   57FTM     C2 4749  -0.684   6.192   6.819 -0.1070  0.1043 -0.1289
   57FTM     C3 4750  -0.619   6.313   6.776  0.1945  0.0075  0.0484
   57FTM     C4 4751  -0.602   6.317   6.641  0.2852  0.1249  0.0630
   57FTM     F1 4752  -0.710   6.169   6.953 -0.2408  0.0092 -0.1709
   57FTM     C5 4753  -0.762   5.957   6.724  0.4889  0.5257 -0.5108
   57FTM     C6 4754  -0.816   5.897   6.861 -0.0362  0.7372  0.3639
   57FTM     C7 4755  -0.946   5.949   6.910 -0.4261  0.0236 -0.1906
   57FTM     C8 4756  -0.998   5.913   7.049 -0.8425 -0.2015  0.2249
   57FTM     C9 4757  -0.926   5.955   7.172  0.5058  0.2839 -0.1333
   57FTM    C10 4758  -1.022   5.910   7.297 -1.2050 -0.4267 -0.8236
   57FTM    C11 4759  -0.774   5.753   6.883 -0.7527  0.1654 -0.2590
   57FTM    C12 4760  -0.820   5.642   6.791  0.4603  0.5270  0.8035
   58TPM     C1 4761  -0.653   6.839   6.795 -0.7133 -0.3060  0.3558
   58TPM     C2 4762  -0.760   6.817   6.877 -1.0056  0.3240  0.1580
   58TPM     C3 4763  -0.776   6.918   6.979 -0.5109  0.3477  0.2177
   58TPM     C4 4764  -0.682   7.016   6.975  0.1589 -0.2642  0.4612
   58TPM     S1 4765  -0.564   6.990   6.841  0.2169 -0.9230  0.6352
   59BDD     C1 4766  -0.750   7.384   7.098 -0.0236 -0.1024  0.2796
   59BDD     C2 4767  -0.786   7.307   7.205  0.0041 -0.0838  0.3023
   59BDD     C3 4768  -0.769   7.164   7.182  0.0141 -0.0869  0.3290
   59BDD     C4 4769  -0.720   7.135   7.058 -0.0058 -0.1079  0.3260
   59BDD     S1 4770  -0.692   7.284   6.961 -0.0386 -0.1253  0.2898
   59BDD     C5 4771  -0.839   7.361   7.332  0.0217 -0.0626  0.3006
   59BDD     C6 4772  -0.802   7.062   7.284  0.0432 -0.0689  0.3563
   59BDD     O1 4773  -0.787   6.940   7.264  0.0517 -0.0716  0.3793
   59BDD     O2 4774  -0.854   7.483   7.352  0.0129 -0.0600  0.2776
   59BDD     C7 4775  -0.854   7.117   7.411  0.0610 -0.0476  0.3545
   59BDD     C8 4776  -0.871   7.259   7.434  0.0508 -0.0445  0.3279
   59BDD     C9 4777  -0.921   7.288   7.558  0.0703 -0.0236  0.3309
   59BDD     S2 4778  -0.949   7.140   7.655  0.1032 -0.0062  0.3673
   59BDD    C10 4779  -0.890   7.039   7.518  0.0882 -0.0290  0.3773
   59BDD    C11 4780  -0.897   6.887   7.523 -0.5277 -0.0562 -0.6216
   59BDD    C12 4781  -1.025   6.805   7.508  0.1748  0.1160  1.4536
   59BDD    C13 4782  -1.101   6.802   7.366 -0.2876  0.2227 -0.3754
   59BDD    C14 4783  -1.045   6.716   7.242  0.2586 -0.4806 -0.2265
   59BDD    C15 4784  -1.069   6.567   7.257 -0.5905 -0.0378  2.7567
   59BDD    C16 4785  -1.035   6.487   7.377 -0.0788 -0.2469 -1.7430
   59BDD    C17 4786  -1.101   6.826   7.630 -0.1797 -0.6883  0.0621
   59BDD    C18 4787  -1.070   6.741   7.759  0.3841 -0.2655 -1.2682
   59BDD    C19 4788  -0.986   7.422   7.591  0.7298  1.3193 -0.2646
   59BDD    C20 4789  -0.923   7.497   7.714  0.3000  0.6240 -1.0850
   59BDD    C21 4790  -0.864   7.427   7.836 -0.7418  1.0991 -0.8338
   59BDD    C22 4791  -0.719   7.363   7.828  0.5109 -0.7180 -0.9668
   59BDD    C23 4792  -0.616   7.473   7.842 -0.6506  1.0994 -0.0018
   59BDD    C24 4793  -0.474   7.417   7.843  0.2158  0.3775 -0.5858
   59BDD    C25 4794  -0.938   7.657   7.726  0.6372  0.9753  1.1629
   59BDD    C26 4795  -0.947   7.724   7.590 -1.4180 -1.0092 -0.0903
   60TPM     C1 4796  -0.760   7.528   7.067 -1.0774 -0.3015  0.9143
   60TPM     C2 4797  -0.711   7.625   7.149 -0.8578 -0.3151  0.7998
   60TPM     C3 4798  -0.718   7.758   7.092 -0.3271 -0.3932  0.5419
   60TPM     C4 4799  -0.772   7.761   6.967 -0.1420 -0.4389  0.4595
   60TPM     S1 4800  -0.819   7.596   6.911 -0.6277 -0.3864  0.7035
    1BDTP    C1 4801   3.038   6.441   6.408  0.4195 -0.0613 -0.0836
    1BDTP    C2 4802   3.088   6.379   6.527  0.0532 -0.0579  0.0751
    1BDTP    C3 4803   3.127   6.246   6.531 -0.2097 -0.1289  0.2699
    1BDTP    C4 4804   3.116   6.170   6.413 -0.1073 -0.2072  0.3104
    1BDTP    C5 4805   3.066   6.232   6.295  0.2589 -0.2104  0.1516
    1BDTP    C6 4806   3.027   6.365   6.290  0.5219 -0.1394 -0.0430
    1BDTP    C7 4807   3.149   6.030   6.394 -0.3318 -0.2891  0.5001
    1BDTP    C8 4808   3.127   5.985   6.268 -0.1540 -0.3529  0.4914
    1BDTP    S1 4809   3.061   6.113   6.157  0.3228 -0.3182  0.2421
    1BDTP    C9 4810   3.005   6.581   6.428  0.6439  0.0207 -0.2732
    1BDTP   C10 4811   3.027   6.626   6.554  0.4660  0.0845 -0.2646
    1BDTP    S2 4812   3.093   6.498   6.665 -0.0106  0.0499 -0.0153
    2FTM     S1 4813   3.353   6.242   6.707 -0.3803 -0.3341 -0.7077
    2FTM     C1 4814   3.336   6.161   6.867 -0.2588  0.0268 -0.5074
    2FTM     C2 4815   3.211   6.107   6.878 -0.2172 -0.0342 -0.3308
    2FTM     C3 4816   3.124   6.125   6.765 -0.2759 -0.3574 -0.3401
    2FTM     C4 4817   3.184   6.195   6.665 -0.3653 -0.5504 -0.5300
    2FTM     F1 4818   3.169   6.037   6.990 -0.1235  0.1992 -0.1500
    2FTM     C5 4819   3.433   6.160   6.977 -0.1634  0.7569 -0.8254
    2FTM     C6 4820   3.458   6.296   7.033 -1.3110 -0.5410 -1.2376
    2FTM     C7 4821   3.581   6.292   7.131  0.4833 -0.1520 -0.1345
    2FTM     C8 4822   3.637   6.416   7.169  0.2070 -0.3173 -0.4963
    2FTM     C9 4823   3.787   6.422   7.230  0.0409 -0.4408  0.3028
    2FTM    C10 4824   3.787   6.378   7.356  0.4766 -1.2404  0.8159
    2FTM    C11 4825   3.348   6.404   7.059 -1.2091 -0.9232 -0.4385
    2FTM    C12 4826   3.272   6.400   7.181 -0.0581 -0.0514 -0.0457
    3FTM     S1 4827   2.890   6.561   6.132 -0.2004  0.1255  0.4369
    3FTM     C1 4828   2.924   6.553   5.955 -0.5235 -0.3973  0.3948
    3FTM     C2 4829   3.018   6.458   5.929 -1.1754 -1.0661  0.4032
    3FTM     C3 4830   3.069   6.388   6.043 -1.4564 -1.2093  0.4418
    3FTM     C4 4831   3.011   6.430   6.160 -1.0050 -0.6314  0.4638
    3FTM     F1 4832   3.063   6.430   5.802 -1.5562 -1.5881  0.3765
    3FTM     C5 4833   2.834   6.618   5.855 -0.3261 -0.1403  0.0980
    3FTM     C6 4834   2.693   6.615   5.885  0.3039 -1.1111  1.1903
    3FTM     C7 4835   2.612   6.585   5.742  0.4362 -0.2780 -0.4613
    3FTM     C8 4836   2.576   6.441   5.727 -0.5129 -0.0982  0.2458
    3FTM     C9 4837   2.552   6.357   5.859  1.8008  0.5391  0.2330
    3FTM    C10 4838   2.481   6.222   5.853  0.7477 -1.1035 -1.2855
    3FTM    C11 4839   2.640   6.728   5.968  0.4025  0.5467  1.2395
    3FTM    C12 4840   2.629   6.876   5.911 -0.1498  0.9954  0.3207
    4TPM     C1 4841   3.000   6.759   6.598  0.1550  0.1165  0.5074
    4TPM     C2 4842   2.909   6.785   6.696 -0.5156  0.0502 -0.0848
    4TPM     C3 4843   2.872   6.923   6.707 -1.1287 -0.0509 -0.6863
    4TPM     C4 4844   2.936   7.004   6.618 -0.9257 -0.0615 -0.5530
    4TPM     S1 4845   3.048   6.911   6.512  0.0635  0.0562  0.3500
    5BDD     C1 4846   2.840   7.369   6.619  0.6658  0.3071 -0.2288
    5BDD     C2 4847   2.932   7.360   6.719  0.5178  0.2276 -0.0998
    5BDD     C3 4848   2.985   7.226   6.737 -0.1549  0.0199  0.4538
    5BDD     C4 4849   2.933   7.135   6.649 -0.5101 -0.0559  0.7388
    5BDD     S1 4850   2.814   7.211   6.539 -0.0268  0.1276  0.3339
    5BDD     C5 4851   2.974   7.474   6.803  0.9894  0.3395 -0.4809
    5BDD     C6 4852   3.086   7.194   6.840 -0.4209 -0.0961  0.6799
    5BDD     O1 4853   3.132   7.078   6.855 -1.0009 -0.2751  1.1574
    5BDD     O2 4854   2.928   7.590   6.788  1.5695  0.5188 -0.9584
    5BDD     C7 4855   3.128   7.308   6.924  0.0508  0.0160  0.2989
    5BDD     C8 4856   3.075   7.442   6.906  0.7235  0.2238 -0.2548
    5BDD     C9 4857   3.127   7.533   6.994  1.0787  0.2993 -0.5399
    5BDD     S2 4858   3.246   7.458   7.104  0.5955  0.1158 -0.1350
    5BDD    C10 4859   3.220   7.299   7.025 -0.0972 -0.0638  0.4280
    5BDD    C11 4860   3.280   7.174   7.103  0.9343 -1.0745 -0.9723
    5BDD    C12 4861   3.232   7.145   7.246  1.1609  1.1755  0.7684
    5BDD    C13 4862   3.297   7.215   7.357  1.1520  0.8359 -1.6011
    5BDD    C14 4863   3.434   7.162   7.383 -0.4217 -0.4952 -0.0043
    5BDD    C15 4864   3.454   7.044   7.480  0.2107  1.0467  0.7387
    5BDD    C16 4865   3.377   7.072   7.608  1.7244  0.0813 -0.0180
    5BDD    C17 4866   3.107   7.045   7.241 -0.2844 -0.6358 -0.7188
    5BDD    C18 4867   3.068   7.003   7.373  0.5623  0.5147 -0.4479
    5BDD    C19 4868   3.105   7.684   6.990  1.0673  0.3884 -1.4431
    5BDD    C20 4869   3.011   7.737   7.109  0.8323 -1.7138  1.0410
    5BDD    C21 4870   2.942   7.879   7.085 -0.2552 -1.0671  0.6018
    5BDD    C22 4871   2.993   8.007   7.147 -0.0362 -1.0963  0.4415
    5BDD    C23 4872   2.891   8.109   7.139 -1.0233 -0.5855 -0.1356
    5BDD    C24 4873   2.961   8.249   7.159  0.6257  1.3348 -0.3416
    5BDD    C25 4874   3.024   7.699   7.265 -0.0714  0.3677 -0.1769
    5BDD    C26 4875   2.908   7.716   7.364 -0.2447 -0.1799  0.1322
    6TPM     C1 4876   2.741   7.471   6.576 -0.0940 -0.5536 -1.0861
    6TPM     C2 4877   2.765   7.601   6.544 -0.0141 -0.5553 -1.0331
    6TPM     C3 4878   2.655   7.666   6.477 -0.2644 -0.2462 -0.3475
    6TPM     C4 4879   2.548   7.585   6.457 -0.5351 -0.0087  0.1224
    6TPM     S1 4880   2.576   7.419   6.523 -0.4946 -0.1581 -0.2679
    7BDTP    C1 4881   1.976   7.786   6.315  0.1289 -0.4667 -0.2731
    7BDTP    C2 4882   1.959   7.647   6.339  0.1642 -0.4859 -0.3608
    7BDTP    C3 4883   2.064   7.563   6.375  0.1790 -0.4759 -0.3810
    7BDTP    C4 4884   2.192   7.620   6.388  0.1583 -0.4452 -0.3110
    7BDTP    C5 4885   2.209   7.760   6.365  0.1229 -0.4259 -0.2229
    7BDTP    C6 4886   2.104   7.843   6.329  0.1081 -0.4360 -0.2032
    7BDTP    C7 4887   2.316   7.554   6.425  0.1678 -0.4297 -0.3155
    7BDTP    C8 4888   2.423   7.636   6.429  0.1419 -0.3998 -0.2363
    7BDTP    S1 4889   2.383   7.809   6.389  0.1014 -0.3875 -0.1446
    7BDTP    C9 4890   1.852   7.852   6.279  0.1192 -0.4823 -0.2685
    7BDTP   C10 4891   1.745   7.770   6.275  0.1452 -0.5121 -0.3479
    7BDTP    S2 4892   1.785   7.598   6.315  0.1856 -0.5244 -0.4394
    8FTM     S1 4893   1.981   7.317   6.274  0.2902 -0.0325  0.3227
    8FTM     C1 4894   2.010   7.168   6.370  1.0370 -0.0227  0.1307
    8FTM     C2 4895   2.065   7.200   6.490  1.0872  0.0758  0.0818
    8FTM     C3 4896   2.088   7.340   6.514  0.5609  0.1478  0.1880
    8FTM     C4 4897   2.049   7.417   6.409  0.0922  0.1032  0.3227
    8FTM     F1 4898   2.098   7.105   6.586  1.6130  0.1066 -0.0622
    8FTM     C5 4899   2.002   7.042   6.285  0.2286 -0.1707 -0.0239
    8FTM     C6 4900   1.951   6.899   6.326  0.3653 -0.2453 -1.4729
    8FTM     C7 4901   1.992   6.808   6.204  0.2631  0.2881 -1.3175
    8FTM     C8 4902   1.980   6.661   6.220  0.2739  2.7574  0.7026
    8FTM     C9 4903   1.839   6.604   6.214 -1.0645 -0.2954 -0.3382
    8FTM    C10 4904   1.834   6.481   6.313 -0.8304 -0.0878  0.4115
    8FTM    C11 4905   1.801   6.884   6.353  0.3535  0.2618  0.9441
    8FTM    C12 4906   1.718   6.993   6.404 -0.2501 -0.6550  0.3263
    9FTM     S1 4907   2.214   8.108   6.399  0.8037 -0.0195 -0.1211
    9FTM     C1 4908   2.165   8.236   6.281  0.7256  0.3515  0.3104
    9FTM     C2 4909   2.089   8.181   6.183 -0.1774  0.8330  0.7138
    9FTM     C3 4910   2.065   8.040   6.192 -0.8476  0.9394  0.7120
    9FTM     C4 4911   2.125   7.985   6.301 -0.4444  0.5268  0.2935
    9FTM     F1 4912   2.037   8.256   6.078 -0.4508  1.2047  1.1086
    9FTM     C5 4913   2.244   8.368   6.286 -1.1609 -0.3771  0.6981
    9FTM     C6 4914   2.396   8.379   6.296 -0.1890 -0.5231 -0.5634
    9FTM     C7 4915   2.479   8.283   6.206 -1.0320 -0.3767 -1.3377
    9FTM     C8 4916   2.623   8.275   6.272 -0.8574 -2.1301  0.4909
    9FTM     C9 4917   2.726   8.189   6.184  0.9504  0.1623 -0.5719
    9FTM    C10 4918   2.670   8.056   6.222 -0.1787  0.1664  0.3988
    9FTM    C11 4919   2.436   8.530   6.265 -1.0907 -0.1913  0.1103
    9FTM    C12 4920   2.392   8.662   6.331  1.2864  0.6702  0.4592
   10TPM     C1 4921   1.600   7.812   6.235  0.0141  0.5927 -0.9194
   10TPM     C2 4922   1.547   7.876   6.127 -0.6540  0.1937 -0.8341
   10TPM     C3 4923   1.403   7.876   6.126 -0.6691 -0.2730 -0.2227
   10TPM     C4 4924   1.347   7.813   6.233 -0.0126 -0.2301  0.1583
   10TPM     S1 4925   1.472   7.747   6.344  0.6810  0.4081 -0.2288
   11BDD     C1 4926   1.016   7.609   6.239 -0.2057 -0.4779 -0.5018
   11BDD     C2 4927   0.978   7.740   6.232 -0.1430 -0.4562 -0.4393
   11BDD     C3 4928   1.090   7.832   6.227 -0.0969 -0.4930 -0.1484
   11BDD     C4 4929   1.211   7.770   6.229 -0.1253 -0.5422  0.0069
   11BDD     S1 4930   1.194   7.592   6.239 -0.2116 -0.5461 -0.2003
   11BDD     C5 4931   0.837   7.785   6.230 -0.1230 -0.4007 -0.6450
   11BDD     C6 4932   1.071   7.979   6.219 -0.0264 -0.4778 -0.0352
   11BDD     O1 4933   1.168   8.059   6.214  0.0133 -0.5095  0.2158
   11BDD     O2 4934   0.741   7.705   6.235 -0.1627 -0.3691 -0.8959
   11BDD     C7 4935   0.931   8.024   6.217 -0.0065 -0.4225 -0.2408
   11BDD     C8 4936   0.819   7.932   6.222 -0.0525 -0.3858 -0.5317
   11BDD     C9 4937   0.697   7.994   6.219 -0.0241 -0.3366 -0.6871
   11BDD     S2 4938   0.714   8.172   6.209  0.0622 -0.3326 -0.4799
   11BDD    C10 4939   0.893   8.155   6.210  0.0563 -0.4005 -0.1786
   11BDD    C11 4940   0.965   8.290   6.228 -0.0170  0.3755  1.5977
   11BDD    C12 4941   0.957   8.374   6.364  0.2799  0.9958  0.5185
   11BDD    C13 4942   0.823   8.450   6.401  0.4428  1.8582 -0.2739
   11BDD    C14 4943   0.731   8.520   6.300  0.6836 -0.1939 -0.8189
   11BDD    C15 4944   0.666   8.643   6.350 -0.0437 -0.5285  0.4242
   11BDD    C16 4945   0.585   8.711   6.240 -1.0429 -0.2540  0.9615
   11BDD    C17 4946   1.078   8.445   6.406  1.0323 -0.2294 -0.1098
   11BDD    C18 4947   1.103   8.582   6.338  0.1721  1.3008  0.3334
   11BDD    C19 4948   0.550   7.961   6.229 -0.8174  2.0444 -0.7188
   11BDD    C20 4949   0.482   7.962   6.375  0.3257  0.2595 -0.3779
   11BDD    C21 4950   0.338   7.889   6.358 -1.5025  0.2999 -0.1069
   11BDD    C22 4951   0.277   7.849   6.490  0.0303 -0.1096  0.7045
   11BDD    C23 4952   0.122   7.830   6.488  1.2422 -0.6600  0.4386
   11BDD    C24 4953   0.054   7.766   6.616 -0.0050 -0.5998 -1.3852
   11BDD    C25 4954   0.499   8.086   6.465  0.5841  0.7636  0.2716
   11BDD    C26 4955   0.423   8.216   6.404 -0.4682 -1.2707 -0.4171
   12TPM     C1 4956   0.947   7.484   6.269 -0.1544 -0.0322  0.0117
   12TPM     C2 4957   1.019   7.373   6.238  0.0911  0.1106  0.0675
   12TPM     C3 4958   0.941   7.252   6.233  0.3055 -0.0213 -0.1458
   12TPM     C4 4959   0.809   7.271   6.260  0.2234 -0.2647 -0.3641
   12TPM     S1 4960   0.773   7.444   6.295 -0.1337 -0.3470 -0.3170
   13BDTP    C1 4961   0.401   6.823   6.461 -0.1333 -0.6291  0.0229
   13BDTP    C2 4962   0.408   6.795   6.321 -0.2231 -0.3418 -0.0409
   13BDTP    C3 4963   0.487   6.869   6.234 -0.2457 -0.1888  0.0672
   13BDTP    C4 4964   0.562   6.976   6.286 -0.1767 -0.3252  0.2468
   13BDTP    C5 4965   0.555   7.004   6.426 -0.0868 -0.6125  0.3107
   13BDTP    C6 4966   0.476   6.930   6.513 -0.0642 -0.7655  0.2026
   13BDTP    C7 4967   0.651   7.066   6.216 -0.1838 -0.2102  0.3838
   13BDTP    C8 4968   0.709   7.159   6.294 -0.1047 -0.3948  0.5453
   13BDTP    S1 4969   0.661   7.146   6.469 -0.0101 -0.7404  0.5467
   13BDTP    C9 4970   0.312   6.733   6.531 -0.1262 -0.7441 -0.1140
   13BDTP   C10 4971   0.253   6.640   6.453 -0.2053 -0.5596 -0.2756
   13BDTP    S2 4972   0.302   6.653   6.278 -0.2999 -0.2139 -0.2770
   14FTM     S1 4973   0.365   6.936   5.976 -0.0191 -0.2603 -0.2417
   14FTM     C1 4974   0.413   6.833   5.836  0.1950  0.0850 -0.4262
   14FTM     C2 4975   0.506   6.742   5.875  0.2999  0.1333 -0.5623
   14FTM     C3 4976   0.545   6.746   6.013  0.2220 -0.0902 -0.5322
   14FTM     C4 4977   0.480   6.844   6.081  0.0519 -0.3170 -0.3678
   14FTM     F1 4978   0.561   6.649   5.788  0.4726  0.3823 -0.7219
   14FTM     C5 4979   0.384   6.887   5.702 -0.7319 -0.4373  0.6344
   14FTM     C6 4980   0.248   6.879   5.620 -0.6995 -0.0327 -0.4924
   14FTM     C7 4981   0.256   6.786   5.485  1.2363 -0.1842 -0.7502
   14FTM     C8 4982   0.330   6.665   5.451 -0.3609  0.0978 -0.5545
   14FTM     C9 4983   0.333   6.544   5.543 -0.0526  0.6121 -1.1222
   14FTM    C10 4984   0.190   6.485   5.585 -0.1471 -0.4932 -0.1544
   14FTM    C11 4985   0.112   6.932   5.669 -1.0774 -1.8360  0.2616
   14FTM    C12 4986  -0.003   6.878   5.597  0.1038 -0.3569 -0.0250
   15FTM     S1 4987   0.636   6.907   6.766 -0.6908 -0.1927  0.0596
   15FTM     C1 4988   0.554   6.982   6.907 -0.0917  0.3848  0.1080
   15FTM     C2 4989   0.431   7.028   6.871  0.1346  1.1114  0.2156
   15FTM     C3 4990   0.394   7.007   6.734 -0.1376  1.2597  0.2658
   15FTM     C4 4991   0.492   6.944   6.663 -0.5869  0.6260  0.1942
   15FTM     F1 4992   0.345   7.091   6.960  0.6015  1.6850  0.2753
   15FTM     C5 4993   0.649   6.994   7.024 -1.4324 -0.4389 -0.0032
   15FTM     C6 4994   0.695   6.864   7.106  1.2147 -0.0915  0.7357
   15FTM     C7 4995   0.632   6.888   7.245  0.3232  0.0966 -0.0053
   15FTM     C8 4996   0.714   6.892   7.380  0.2062  0.2477  0.4168
   15FTM     C9 4997   0.811   7.009   7.400  0.2185  0.5045  0.1624
   15FTM    C10 4998   0.879   7.004   7.539 -1.0369 -0.0270 -0.3073
   15FTM    C11 4999   0.774   6.756   7.037  0.0444 -2.8775  0.3218
   15FTM    C12 5000   0.846   6.650   7.125  1.1281 -0.2569  0.6474
   16TPM     C1 5001   0.146   6.570   6.505 -0.1152 -0.2529  0.0448
   16TPM     C2 5002   0.082   6.467   6.441 -0.7544  0.2235 -0.0960
   16TPM     C3 5003  -0.016   6.401   6.523 -0.8569  0.4354 -0.0440
   16TPM     C4 5004  -0.026   6.452   6.649 -0.2962  0.1202  0.1363
   16TPM     S1 5005   0.088   6.589   6.674  0.4107 -0.4729  0.2557
   17BDD     C1 5006  -0.215   6.233   6.915  0.2085  0.3405 -0.2616
   17BDD     C2 5007  -0.241   6.363   6.948  0.1717  0.3139 -0.1848
   17BDD     C3 5008  -0.187   6.458   6.853  0.2592  0.3909 -0.0579
   17BDD     C4 5009  -0.120   6.400   6.749  0.3619  0.4751 -0.0397
   17BDD     S1 5010  -0.120   6.221   6.763  0.3555  0.4638 -0.1802
   17BDD     C5 5011  -0.317   6.404   7.068  0.0541  0.2165 -0.2253
   17BDD     C6 5012  -0.203   6.604   6.869  0.2379  0.3780  0.0407
   17BDD     O1 5013  -0.156   6.687   6.787  0.3135  0.4445  0.1501
   17BDD     O2 5014  -0.364   6.322   7.149 -0.0215  0.1500 -0.3347
   17BDD     C7 5015  -0.279   6.646   6.988  0.1209  0.2809  0.0002
   17BDD     C8 5016  -0.334   6.550   7.083  0.0331  0.2037 -0.1267
   17BDD     C9 5017  -0.400   6.609   7.187 -0.0696  0.1194 -0.1447
   17BDD     S2 5018  -0.400   6.788   7.173 -0.0633  0.1309 -0.0044
   17BDD    C10 5019  -0.306   6.776   7.021  0.0837  0.2543  0.0771
   17BDD    C11 5020  -0.224   6.906   6.999 -0.4106  0.3542 -0.9734
   17BDD    C12 5021  -0.186   6.995   7.115  0.3882 -0.2076 -1.2784
   17BDD    C13 5022  -0.088   6.917   7.220  1.0797 -0.1552 -0.0246
   17BDD    C14 5023   0.038   6.850   7.160 -1.2456 -0.3212 -0.4687
   17BDD    C15 5024   0.097   6.842   7.015  1.6101 -0.5209 -0.3617
   17BDD    C16 5025   0.204   6.730   7.002  2.4740  1.5735  0.2970
   17BDD    C17 5026  -0.202   7.141   7.109 -0.5418 -0.2839  0.1352
   17BDD    C18 5027  -0.166   7.223   7.231  0.5457  0.7008  0.5115
   17BDD    C19 5028  -0.494   6.557   7.303 -0.3086 -0.7317 -0.1429
   17BDD    C20 5029  -0.459   6.605   7.449  2.7007  0.1212 -0.4791
   17BDD    C21 5030  -0.537   6.742   7.475 -0.2494  0.2349 -1.3334
   17BDD    C22 5031  -0.432   6.845   7.509  1.5886 -0.2132 -1.0462
   17BDD    C23 5032  -0.532   6.936   7.568  0.3440  0.7355  0.7484
   17BDD    C24 5033  -0.476   7.022   7.682  0.0280  1.0198  0.3799
   17BDD    C25 5034  -0.383   6.525   7.565  0.3226 -0.5615  1.5767
   17BDD    C26 5035  -0.316   6.396   7.499 -0.8350 -0.4672 -0.8592
   18TPM     C1 5036  -0.236   6.106   6.988  0.8408 -0.9194  0.3910
   18TPM     C2 5037  -0.142   6.068   7.079  0.5479 -2.1368  0.2086
   18TPM     C3 5038  -0.169   5.940   7.140 -0.4857 -2.2361 -0.4137
   18TPM     C4 5039  -0.284   5.882   7.096 -0.9805 -1.0946 -0.7054
   18TPM     S1 5040  -0.368   5.984   6.973 -0.1733  0.2047 -0.2134
   19BDTP    C1 5041  -0.555   5.331   7.235 -0.1328  0.4246 -0.3250
   19BDTP    C2 5042  -0.499   5.371   7.360 -0.1628  0.3693 -0.2936
   19BDTP    C3 5043  -0.426   5.488   7.375 -0.1149  0.3321 -0.2375
   19BDTP    C4 5044  -0.407   5.569   7.262 -0.0331  0.3499 -0.2112
   19BDTP    C5 5045  -0.463   5.529   7.137 -0.0029  0.4051 -0.2425
   19BDTP    C6 5046  -0.536   5.412   7.122 -0.0509  0.4421 -0.2985
   19BDTP    C7 5047  -0.334   5.694   7.253  0.0283  0.3187 -0.1537
   19BDTP    C8 5048  -0.334   5.750   7.129  0.1023  0.3474 -0.1405
   19BDTP    S1 5049  -0.424   5.651   7.007  0.1044  0.4179 -0.1992
   19BDTP    C9 5050  -0.627   5.205   7.244 -0.1943  0.4557 -0.3824
   19BDTP   C10 5051  -0.628   5.150   7.368 -0.2682  0.4270 -0.3957
   19BDTP    S2 5052  -0.537   5.249   7.491 -0.2702  0.3563 -0.3371
   20FTM     S1 5053  -0.204   5.563   7.552 -0.3579 -0.4044 -0.3056
   20FTM     C1 5054  -0.247   5.634   7.712  0.9780  0.3797 -0.2662
   20FTM     C2 5055  -0.382   5.637   7.727  1.0743  0.8732  0.6653
   20FTM     C3 5056  -0.459   5.585   7.618  0.1378  0.6764  1.3877
   20FTM     C4 5057  -0.380   5.542   7.516 -0.7033  0.0105  0.9967
   20FTM     F1 5058  -0.444   5.686   7.841  2.0165  1.5327  0.9189
   20FTM     C5 5059  -0.149   5.641   7.813 -1.2346 -0.0449  0.2550
   20FTM     C6 5060  -0.156   5.653   7.963  0.0884  0.6695  0.8761
   20FTM     C7 5061  -0.255   5.595   8.069 -0.1357 -0.6300  0.9720
   20FTM     C8 5062  -0.270   5.435   8.066 -1.3189 -0.4726  1.0259
   20FTM     C9 5063  -0.361   5.430   8.185 -0.2653 -0.1748 -0.4184
   20FTM    C10 5064  -0.418   5.297   8.197  0.2582  0.3085 -0.6350
   20FTM    C11 5065  -0.079   5.741   8.044  0.1116  0.1586 -0.1708
   20FTM    C12 5066   0.003   5.847   7.991  0.3531 -1.0095 -0.0040
   21FTM     S1 5067  -0.399   5.317   6.911 -0.0441  0.9839 -0.1817
   21FTM     C1 5068  -0.491   5.257   6.768 -0.3493  0.7939  0.0918
   21FTM     C2 5069  -0.624   5.270   6.790 -0.3099  0.6419  0.4370
   21FTM     C3 5070  -0.662   5.327   6.916 -0.0460  0.6632  0.5081
   21FTM     C4 5071  -0.554   5.357   6.993  0.1222  0.8374  0.2075
   21FTM     F1 5072  -0.720   5.232   6.697 -0.5100  0.4742  0.7089
   21FTM     C5 5073  -0.420   5.201   6.644  0.0490  0.6669  0.5413
   21FTM     C6 5074  -0.395   5.296   6.531 -1.3490  0.2887  0.8064
   21FTM     C7 5075  -0.494   5.315   6.414 -0.5420 -0.3862  0.2636
   21FTM     C8 5076  -0.581   5.205   6.380 -1.1259  0.5212 -0.0038
   21FTM     C9 5077  -0.721   5.265   6.342 -0.3657  2.0480 -0.8094
   21FTM    C10 5078  -0.726   5.343   6.221  0.0182  0.5730 -0.7958
   21FTM    C11 5079  -0.266   5.370   6.507  0.6501 -1.9694 -0.3597
   21FTM    C12 5080  -0.160   5.288   6.455  0.1707 -0.4993  0.6654
   22TPM     C1 5081  -0.672   5.018   7.412  0.3861 -0.3065 -0.5942
   22TPM     C2 5082  -0.730   5.006   7.535 -0.4334  0.9687 -0.8131
   22TPM     C3 5083  -0.767   4.871   7.569 -1.0257  1.3586  0.1807
   22TPM     C4 5084  -0.739   4.780   7.471 -0.6578  0.3811  1.1574
   22TPM     S1 5085  -0.661   4.858   7.328  0.4737 -1.1199  0.8958
   23BDD     C1 5086  -0.770   4.404   7.587  0.1598 -0.3365  0.1318
   23BDD     C2 5087  -0.817   4.407   7.458  0.1690 -0.2712  0.1296
   23BDD     C3 5088  -0.807   4.538   7.396  0.2513 -0.2589  0.1680
   23BDD     C4 5089  -0.753   4.633   7.478  0.3039 -0.3152  0.1987
   23BDD     S1 5090  -0.710   4.565   7.639  0.2544 -0.3873  0.1816
   23BDD     C5 5091  -0.872   4.289   7.388  0.1020 -0.2174  0.0926
   23BDD     C6 5092  -0.851   4.564   7.258  0.2747 -0.1918  0.1730
   23BDD     O1 5093  -0.843   4.676   7.204  0.3459 -0.1814  0.2060
   23BDD     O2 5094  -0.881   4.176   7.441  0.0312 -0.2280  0.0595
   23BDD     C7 5095  -0.907   4.446   7.187  0.2081 -0.1383  0.1358
   23BDD     C8 5096  -0.917   4.315   7.249  0.1256 -0.1504  0.0974
   23BDD     C9 5097  -0.971   4.220   7.167  0.0734 -0.0943  0.0666
   23BDD     S2 5098  -1.013   4.288   7.007  0.1231 -0.0221  0.0840
   23BDD    C10 5099  -0.954   4.449   7.059  0.2174 -0.0730  0.1336
   23BDD    C11 5100  -0.942   4.574   6.960 -0.1967 -0.7483 -0.5260
   23BDD    C12 5101  -1.035   4.681   6.925 -0.7045  0.0249 -0.4680
   23BDD    C13 5102  -0.980   4.807   6.842 -0.5002 -0.2072 -0.5154
   23BDD    C14 5103  -1.068   4.935   6.838 -0.3125  0.2761 -0.0114
   23BDD    C15 5104  -1.053   4.980   6.977  0.0876 -0.1105 -0.3668
   23BDD    C16 5105  -1.024   5.127   6.990 -0.2028 -0.4462  0.4546
   23BDD    C17 5106  -1.184   4.648   6.921 -0.8791  0.2422 -1.3800
   23BDD    C18 5107  -1.233   4.596   7.065 -0.6493 -0.2713  0.6720
   23BDD    C19 5108  -0.992   4.074   7.196 -0.4970  0.1632  0.7004
   23BDD    C20 5109  -1.139   4.015   7.191  0.8822  1.4094  1.4606
   23BDD    C21 5110  -1.212   4.087   7.303 -0.9500  0.2025  0.4186
   23BDD    C22 5111  -1.346   4.026   7.354  0.0512  0.4891  0.1840
   23BDD    C23 5112  -1.341   3.937   7.482 -0.1564  0.1813  0.1555
   23BDD    C24 5113  -1.473   3.864   7.527  0.5224 -1.3805  0.9148
   23BDD    C25 5114  -1.229   4.011   7.054 -0.6422 -0.6601 -0.6240
   23BDD    C26 5115  -1.231   3.872   7.003 -0.1512  0.5489 -0.3526
   24TPM     C1 5116  -0.753   4.299   7.688  1.3307 -0.0490 -0.4504
   24TPM     C2 5117  -0.801   4.323   7.813  1.7028  0.6926 -0.4330
   24TPM     C3 5118  -0.811   4.204   7.895  1.5001  1.0946  0.1390
   24TPM     C4 5119  -0.770   4.091   7.832  0.9738  0.6592  0.5578
   24TPM     S1 5120  -0.715   4.125   7.663  0.6913 -0.2997  0.2598
   25BDTP    C1 5121  -0.793   3.534   8.123  0.1900 -0.1719 -0.1321
   25BDTP    C2 5122  -0.794   3.624   8.232 -0.1526 -0.1620 -0.1409
   25BDTP    C3 5123  -0.793   3.762   8.216 -0.2856 -0.1617 -0.1507
   25BDTP    C4 5124  -0.791   3.813   8.085 -0.0708 -0.1716 -0.1516
   25BDTP    C5 5125  -0.790   3.723   7.975  0.2716 -0.1816 -0.1433
   25BDTP    C6 5126  -0.791   3.585   7.992  0.4046 -0.1819 -0.1335
   25BDTP    C7 5127  -0.789   3.952   8.043 -0.1512 -0.1735 -0.1609
   25BDTP    C8 5128  -0.787   3.970   7.909  0.1111 -0.1840 -0.1596
   25BDTP    S1 5129  -0.787   3.813   7.816  0.4966 -0.1934 -0.1465
   25BDTP    C9 5130  -0.795   3.395   8.164  0.2701 -0.1702 -0.1233
   25BDTP   C10 5131  -0.797   3.377   8.299  0.0081 -0.1595 -0.1245
   25BDTP    S2 5132  -0.797   3.534   8.391 -0.3776 -0.1502 -0.1371
   26FTM     S1 5133  -0.635   3.881   8.419 -0.3327  0.0431  0.0705
   26FTM     C1 5134  -0.723   3.967   8.551 -0.7742 -0.2241 -0.0429
   26FTM     C2 5135  -0.857   3.960   8.530 -0.7212 -0.5019 -0.3049
   26FTM     C3 5136  -0.899   3.889   8.413 -0.3431 -0.5236 -0.4301
   26FTM     C4 5137  -0.793   3.840   8.342 -0.0986 -0.2534 -0.2589
   26FTM     F1 5138  -0.949   4.018   8.616 -1.0116 -0.7533 -0.4461
   26FTM     C5 5139  -0.638   4.001   8.674 -0.4206  1.1134  0.6358
   26FTM     C6 5140  -0.698   4.109   8.755 -0.0752  0.0994  0.0933
   26FTM     C7 5141  -0.649   4.257   8.742 -0.5991  1.2535 -0.4787
   26FTM     C8 5142  -0.515   4.290   8.677 -0.4525 -0.4801 -0.2640
   26FTM     C9 5143  -0.428   4.274   8.796  0.4761 -0.2061 -0.1942
   26FTM    C10 5144  -0.279   4.272   8.796 -1.8821 -0.0765  0.1849
   26FTM    C11 5145  -0.757   4.075   8.893  0.6773 -0.3808 -0.0209
   26FTM    C12 5146  -0.914   4.068   8.910 -0.0748 -1.2754 -0.3848
   27FTM     S1 5147  -0.913   3.531   7.734 -0.0521  0.1370  0.0969
   27FTM     C1 5148  -0.845   3.387   7.649 -0.6351 -0.4147  0.5425
   27FTM     C2 5149  -0.750   3.328   7.726 -0.8829 -0.5707  0.7306
   27FTM     C3 5150  -0.725   3.389   7.853 -0.6402 -0.2778  0.5442
   27FTM     C4 5151  -0.803   3.498   7.874 -0.1922  0.1153  0.2021
   27FTM     F1 5152  -0.681   3.215   7.686 -1.3440 -0.9880  1.0827
   27FTM     C5 5153  -0.935   3.301   7.562  0.0977  0.2240  0.2319
   27FTM     C6 5154  -1.074   3.256   7.600  0.2949  0.0738 -0.1436
   27FTM     C7 5155  -1.071   3.138   7.708  0.1786  0.6317 -0.8102
   27FTM     C8 5156  -1.073   3.000   7.650  0.6072  0.5627 -0.2184
   27FTM     C9 5157  -1.127   2.914   7.768 -0.6578 -2.1202  0.1985
   27FTM    C10 5158  -1.096   2.768   7.750  0.2424 -0.2423 -0.5034
   27FTM    C11 5159  -1.189   3.360   7.604 -0.8712  0.5837  0.8414
   27FTM    C12 5160  -1.335   3.317   7.598  0.2571  0.6253  0.3291
   28TPM     C1 5161  -0.789   3.258   8.371  0.3702 -0.5134  0.2439
   28TPM     C2 5162  -0.843   3.135   8.349  1.3762 -0.8729 -0.3262
   28TPM     C3 5163  -0.814   3.040   8.453  1.8325 -1.0135 -0.5767
   28TPM     C4 5164  -0.738   3.091   8.554  1.1746 -0.7612 -0.1980
   28TPM     S1 5165  -0.697   3.264   8.526 -0.0822 -0.3232  0.5098
   29BDD     C1 5166  -0.768   3.018   8.944  0.3754  0.4559  0.2799
   29BDD     C2 5167  -0.692   2.914   8.897  0.2506  0.3398  0.3335
   29BDD     C3 5168  -0.672   2.917   8.754  0.1087  0.1435  0.3095
   29BDD     C4 5169  -0.734   3.023   8.692  0.1269  0.1128  0.2380
   29BDD     S1 5170  -0.821   3.126   8.810  0.3233  0.3276  0.1962
   29BDD     C5 5171  -0.634   2.809   8.984  0.2580  0.4048  0.4086
   29BDD     C6 5172  -0.593   2.815   8.682 -0.0398 -0.0066  0.3579
   29BDD     O1 5173  -0.576   2.817   8.558 -0.1621 -0.1758  0.3371
   29BDD     O2 5174  -0.651   2.807   9.108  0.3803  0.5741  0.4296
   29BDD     C7 5175  -0.535   2.709   8.768 -0.0327  0.0586  0.4332
   29BDD     C8 5176  -0.555   2.707   8.912  0.1097  0.2549  0.4573
   29BDD     C9 5177  -0.494   2.601   8.974  0.0911  0.2855  0.5288
   29BDD     S2 5178  -0.407   2.498   8.855 -0.1055  0.0707  0.5706
   29BDD    C10 5179  -0.459   2.606   8.722 -0.1571 -0.0576  0.4866
   29BDD    C11 5180  -0.420   2.566   8.585 -0.4686  0.6609 -0.8018
   29BDD    C12 5181  -0.491   2.470   8.481 -0.8371  0.4382  0.9121
   29BDD    C13 5182  -0.597   2.372   8.547  1.3325 -0.1935 -0.1871
   29BDD    C14 5183  -0.585   2.217   8.570  0.1418 -0.7477  0.3903
   29BDD    C15 5184  -0.461   2.158   8.633  1.2389  0.2831 -0.3737
   29BDD    C16 5185  -0.496   2.082   8.768  0.0514 -0.0258 -0.1027
   29BDD    C17 5186  -0.406   2.422   8.358 -0.3989 -0.2583  0.4324
   29BDD    C18 5187  -0.489   2.352   8.245  1.0114  0.5738 -0.4332
   29BDD    C19 5188  -0.476   2.553   9.118 -1.0634 -0.3945 -0.3947
   29BDD    C20 5189  -0.356   2.623   9.193 -1.4676  0.4681  1.9079
   29BDD    C21 5190  -0.213   2.573   9.137 -0.9838  0.8448  0.6126
   29BDD    C22 5191  -0.089   2.651   9.174 -0.3297 -0.2850  0.4786
   29BDD    C23 5192   0.023   2.620   9.068 -0.3515 -0.6481 -0.5183
   29BDD    C24 5193   0.134   2.705   9.114 -0.1677 -0.1772  0.6670
   29BDD    C25 5194  -0.357   2.633   9.342 -0.0837 -0.4666 -0.8919
   29BDD    C26 5195  -0.357   2.524   9.444  0.7407  1.0880 -1.2323
   30TPM     C1 5196  -0.842   3.051   9.068 -0.4999 -0.6307  0.1900
   30TPM     C2 5197  -0.779   3.094   9.181 -0.0069  0.4861 -0.4730
   30TPM     C3 5198  -0.866   3.166   9.271  0.2880  1.0369 -0.6211
   30TPM     C4 5199  -0.994   3.178   9.227  0.0199  0.3401 -0.0715
   30TPM     S1 5200  -1.016   3.099   9.066 -0.6310 -1.0767  0.6823
   31BDTP    C1 5201  -1.398   3.571   9.501 -0.0970  0.0560 -0.0198
   31BDTP    C2 5202  -1.479   3.505   9.404 -0.1011 -0.1779  0.1416
   31BDTP    C3 5203  -1.431   3.402   9.324 -0.0906 -0.3390  0.3526
   31BDTP    C4 5204  -1.297   3.363   9.340 -0.0761 -0.2664  0.4072
   31BDTP    C5 5205  -1.216   3.429   9.437 -0.0722 -0.0325  0.2463
   31BDTP    C6 5206  -1.264   3.532   9.517 -0.0826  0.1286  0.0354
   31BDTP    C7 5207  -1.225   3.259   9.269 -0.0634 -0.4018  0.6150
   31BDTP    C8 5208  -1.096   3.245   9.307 -0.0505 -0.2825  0.6175
   31BDTP    S1 5209  -1.047   3.360   9.439 -0.0525  0.0184  0.3579
   31BDTP    C9 5210  -1.470   3.675   9.572 -0.1097  0.1915 -0.2267
   31BDTP   C10 5211  -1.600   3.689   9.534 -0.1225  0.0721 -0.2301
   31BDTP    S2 5212  -1.648   3.574   9.402 -0.1208 -0.2287  0.0303
   32FTM     S1 5213  -1.531   3.169   9.186  0.5183  0.0930 -0.0162
   32FTM     C1 5214  -1.656   3.205   9.062  0.4210  0.2481  0.1263
   32FTM     C2 5215  -1.671   3.339   9.049  0.4249  0.2650  0.2916
   32FTM     C3 5216  -1.588   3.420   9.132  0.5019  0.1609  0.3166
   32FTM     C4 5217  -1.507   3.346   9.212  0.5585  0.0611  0.1657
   32FTM     F1 5218  -1.761   3.397   8.960  0.3588  0.3757  0.4303
   32FTM     C5 5219  -1.719   3.113   8.965 -0.6252  1.0309 -0.8167
   32FTM     C6 5220  -1.706   2.951   8.971  0.1717  0.7059 -1.1010
   32FTM     C7 5221  -1.597   2.860   8.901 -0.2814  0.2936  0.9751
   32FTM     C8 5222  -1.597   2.850   8.745 -1.1075  0.4614  0.5734
   32FTM     C9 5223  -1.611   2.990   8.679 -0.4340  1.3975  0.3446
   32FTM    C10 5224  -1.585   2.966   8.533  0.0076 -0.4150  0.2045
   32FTM    C11 5225  -1.741   2.901   9.114  0.0444  0.0634 -0.3653
   32FTM    C12 5226  -1.645   2.821   9.207 -0.7722  0.0556  0.6008
   33FTM     S1 5227  -1.024   3.541   9.684  0.0452 -0.2986  0.2114
   33FTM     C1 5228  -0.948   3.705   9.684  0.3595 -0.4300 -0.7726
   33FTM     C2 5229  -1.032   3.795   9.626  0.6731 -0.6649 -1.6241
   33FTM     C3 5230  -1.158   3.743   9.579  0.6878 -0.7550 -1.5647
   33FTM     C4 5231  -1.170   3.609   9.602  0.3753 -0.5834 -0.6375
   33FTM     F1 5232  -1.001   3.929   9.612  0.9656 -0.8125 -2.5082
   33FTM     C5 5233  -0.800   3.731   9.689  0.7682 -1.5496 -0.0713
   33FTM     C6 5234  -0.690   3.715   9.808  0.2148 -0.2910  1.1018
   33FTM     C7 5235  -0.728   3.752   9.942  0.0006 -0.0817  0.3611
   33FTM     C8 5236  -0.654   3.857  10.045  0.1897 -0.1831  0.1096
   33FTM     C9 5237  -0.692   3.840  10.195  1.1809  0.5760  0.9203
   33FTM    C10 5238  -0.611   3.928  10.275  1.4096 -1.4031 -0.0310
   33FTM    C11 5239  -0.607   3.582   9.808 -0.4368  1.5444  0.4779
   33FTM    C12 5240  -0.460   3.577   9.752  0.1609 -0.6538 -0.8013
   34TPM     C1 5241  -1.704   3.774   9.599 -1.2984  0.1119 -0.2738
   34TPM     C2 5242  -1.835   3.748   9.630 -1.4157  0.7489 -0.1984
   34TPM     C3 5243  -1.902   3.857   9.695 -0.7248  0.9429  0.2136
   34TPM     C4 5244  -1.823   3.967   9.714 -0.0804  0.4540  0.4525
   34TPM     S1 5245  -1.657   3.940   9.650 -0.2983 -0.2953  0.1735
   35BDD     C1 5246  -1.882   4.348   9.802  0.2056  0.3825  0.4329
   35BDD     C2 5247  -1.958   4.278   9.892  0.0703  0.2425  0.2146
   35BDD     C3 5248  -1.953   4.135   9.873  0.1743  0.2662  0.0591
   35BDD     C4 5249  -1.874   4.096   9.768  0.3874  0.4237  0.1613
   35BDD     S1 5250  -1.800   4.238   9.686  0.4723  0.5534  0.4592
   35BDD     C5 5251  -2.037   4.342   9.999 -0.1595  0.0821  0.1407
   35BDD     C6 5252  -2.027   4.040   9.959  0.0587  0.1316 -0.1848
   35BDD     O1 5253  -2.023   3.916   9.943  0.1483  0.1520 -0.3188
   35BDD     O2 5254  -2.041   4.466  10.016 -0.2494  0.0616  0.2744
   35BDD     C7 5255  -2.106   4.104  10.067 -0.1712 -0.0288 -0.2587
   35BDD     C8 5256  -2.111   4.247  10.086 -0.2754 -0.0526 -0.1035
   35BDD     C9 5257  -2.191   4.286  10.190 -0.4885 -0.2100 -0.2058
   35BDD     S2 5258  -2.264   4.144  10.272 -0.5735 -0.3397 -0.5034
   35BDD    C10 5259  -2.182   4.034  10.157 -0.3066 -0.1687 -0.4771
   35BDD    C11 5260  -2.226   3.889  10.158  0.0351  0.6657  0.8131
   35BDD    C12 5261  -2.334   3.833  10.049 -0.3281 -0.3837 -0.6358
   35BDD    C13 5262  -2.466   3.905  10.080 -0.7710 -0.6596 -0.0596
   35BDD    C14 5263  -2.591   3.852  10.011  1.4351  0.1805  0.0318
   35BDD    C15 5264  -2.573   3.784   9.872 -1.1001 -0.6139 -0.7014
   35BDD    C16 5265  -2.702   3.704   9.824 -1.2666  0.4256  0.3722
   35BDD    C17 5266  -2.320   3.674  10.016 -0.1466 -0.8670 -0.2908
   35BDD    C18 5267  -2.353   3.581  10.137 -1.8382 -0.0086 -0.8014
   35BDD    C19 5268  -2.204   4.429  10.255 -0.4062  0.5550  0.7184
   35BDD    C20 5269  -2.236   4.448  10.399  0.4468 -1.7926 -0.0796
   35BDD    C21 5270  -2.375   4.426  10.453 -0.5382 -0.5599 -0.4057
   35BDD    C22 5271  -2.494   4.476  10.377  0.1769 -0.7726  0.3885
   35BDD    C23 5272  -2.621   4.430  10.439 -0.5521  0.6993  0.0777
   35BDD    C24 5273  -2.682   4.294  10.383  0.0388  0.6141 -0.0541
   35BDD    C25 5274  -2.192   4.593  10.421  0.4516  0.8834  0.3920
   35BDD    C26 5275  -2.152   4.653  10.551 -0.0995  0.6320  1.0858
   36TPM     C1 5276  -1.858   4.489   9.761 -0.3835  0.1218  0.2786
   36TPM     C2 5277  -1.795   4.564   9.856 -0.2630 -0.0846  0.3633
   36TPM     C3 5278  -1.712   4.668   9.802  0.0846 -0.2987  0.4764
   36TPM     C4 5279  -1.712   4.673   9.665  0.2298 -0.2555  0.4771
   36TPM     S1 5280  -1.817   4.545   9.594 -0.0646  0.0615  0.3353
   37BDTP    C1 5281  -1.398   5.126   9.350 -0.4544  0.0180 -0.1521
   37BDTP    C2 5282  -1.363   5.009   9.277 -0.2866 -0.0492  0.0353
   37BDTP    C3 5283  -1.410   4.883   9.311 -0.1540 -0.0542  0.2007
   37BDTP    C4 5284  -1.495   4.871   9.422 -0.1886  0.0106  0.1812
   37BDTP    C5 5285  -1.530   4.989   9.495 -0.3562  0.0780 -0.0057
   37BDTP    C6 5286  -1.483   5.115   9.461 -0.4885  0.0828 -0.1718
   37BDTP    C7 5287  -1.555   4.752   9.476 -0.0722  0.0191  0.3316
   37BDTP    C8 5288  -1.633   4.773   9.585 -0.1433  0.0887  0.2673
   37BDTP    S1 5289  -1.641   4.948   9.634 -0.3679  0.1533  0.0069
   37BDTP    C9 5290  -1.338   5.246   9.295 -0.5708  0.0094 -0.3026
   37BDTP   C10 5291  -1.260   5.225   9.187 -0.4997 -0.0601 -0.2382
   37BDTP    S2 5292  -1.252   5.050   9.137 -0.2747 -0.1248  0.0224
   38FTM     S1 5293  -1.487   4.637   9.197 -0.0101  0.4570 -0.0341
   38FTM     C1 5294  -1.375   4.545   9.091  0.1804  0.0451  0.5165
   38FTM     C2 5295  -1.260   4.616   9.072  0.0904  0.1115  0.2038
   38FTM     C3 5296  -1.253   4.743   9.137 -0.1276  0.4779 -0.4666
   38FTM     C4 5297  -1.366   4.771   9.209 -0.2067  0.6993 -0.6740
   38FTM     F1 5298  -1.155   4.569   8.994  0.1996 -0.1556  0.5064
   38FTM     C5 5299  -1.430   4.420   9.040  0.0759  0.3880  1.3680
   38FTM     C6 5300  -1.392   4.298   9.105  0.6298  1.0915 -0.2972
   38FTM     C7 5301  -1.332   4.173   9.017 -0.0667 -0.2736 -1.8856
   38FTM     C8 5302  -1.278   4.190   8.870 -0.2789 -0.0827 -1.6079
   38FTM     C9 5303  -1.313   4.088   8.760 -0.0786 -0.3808 -0.2151
   38FTM    C10 5304  -1.461   4.076   8.725  0.0161 -0.7255  0.3311
   38FTM    C11 5305  -1.439   4.273   9.245  0.7830  0.1930 -1.1522
   38FTM    C12 5306  -1.369   4.176   9.359  0.0937  0.1653  0.0488
   39FTM     S1 5307  -1.363   5.346   9.607 -0.0159 -0.0201 -0.4226
   39FTM     C1 5308  -1.471   5.428   9.726  0.0357  0.2166 -0.5374
   39FTM     C2 5309  -1.594   5.371   9.722  0.1814 -0.1509  0.0062
   39FTM     C3 5310  -1.612   5.264   9.629  0.2592 -0.6279  0.5324
   39FTM     C4 5311  -1.499   5.237   9.559  0.1707 -0.6251  0.3872
   39FTM     F1 5312  -1.699   5.414   9.803  0.2520 -0.0776  0.0596
   39FTM     C5 5313  -1.418   5.537   9.823  0.5480 -0.4812 -0.7755
   39FTM     C6 5314  -1.292   5.616   9.821 -0.1069 -1.1612  0.5750
   39FTM     C7 5315  -1.153   5.552   9.832 -0.2776 -0.1505 -0.3340
   39FTM     C8 5316  -1.116   5.444   9.930 -0.6284  0.9457 -0.0048
   39FTM     C9 5317  -1.017   5.364   9.844 -0.4046  0.5749 -0.0290
   39FTM    C10 5318  -0.926   5.250   9.883  0.2017 -0.3861 -0.2656
   39FTM    C11 5319  -1.329   5.770   9.818 -0.2843 -0.2684 -0.8507
   39FTM    C12 5320  -1.263   5.854   9.939  0.3357  0.3026 -0.2068
   40TPM     C1 5321  -1.185   5.321   9.103  0.1354 -0.6632 -1.0134
   40TPM     C2 5322  -1.234   5.407   9.009  0.1185 -0.7347 -1.0700
   40TPM     C3 5323  -1.133   5.464   8.924  0.2291 -0.0379 -0.4933
   40TPM     C4 5324  -1.007   5.421   8.952  0.3302  0.5644  0.0034
   40TPM     S1 5325  -1.005   5.305   9.090  0.2933  0.2967 -0.2207
   41BDD     C1 5326  -0.736   5.674   8.814  0.2527  0.1394  0.2501
   41BDD     C2 5327  -0.679   5.550   8.807  0.2439  0.1402  0.1709
   41BDD     C3 5328  -0.766   5.444   8.856  0.2642  0.1235  0.1705
   41BDD     C4 5329  -0.887   5.490   8.900  0.2879  0.1101  0.2492
   41BDD     S1 5330  -0.901   5.668   8.883  0.2866  0.1178  0.3295
   41BDD     C5 5331  -0.544   5.524   8.754  0.2167  0.1562  0.0927
   41BDD     C6 5332  -0.725   5.302   8.858  0.2592  0.1209  0.0920
   41BDD     O1 5333  -0.800   5.211   8.900  0.2766  0.1065  0.0916
   41BDD     O2 5334  -0.469   5.614   8.711  0.1991  0.1706  0.0932
   41BDD     C7 5335  -0.590   5.276   8.805  0.2322  0.1370  0.0141
   41BDD     C8 5336  -0.503   5.381   8.755  0.2117  0.1538  0.0143
   41BDD     C9 5337  -0.382   5.336   8.711  0.1881  0.1669 -0.0646
   41BDD     S2 5338  -0.368   5.158   8.728  0.1895  0.1592 -0.1448
   41BDD    C10 5339  -0.534   5.152   8.797  0.2236  0.1376 -0.0653
   41BDD    C11 5340  -0.563   5.005   8.847  2.3629 -1.0073 -0.8498
   41BDD    C12 5341  -0.642   4.913   8.754  1.5314 -1.9747  0.2800
   41BDD    C13 5342  -0.581   4.896   8.622  1.0714  0.5162  0.3191
   41BDD    C14 5343  -0.476   4.801   8.610 -0.7225 -0.9528  0.0791
   41BDD    C15 5344  -0.397   4.771   8.484  0.6585 -0.5250 -0.1704
   41BDD    C16 5345  -0.291   4.862   8.458 -0.3068  0.4556  0.3294
   41BDD    C17 5346  -0.708   4.791   8.831 -0.4524  0.1974 -0.5470
   41BDD    C18 5347  -0.800   4.816   8.950  0.2753  1.1726 -0.2294
   41BDD    C19 5348  -0.270   5.378   8.632 -0.4586 -1.4743  1.0191
   41BDD    C20 5349  -0.147   5.418   8.704 -0.8766 -1.1088  0.3927
   41BDD    C21 5350  -0.112   5.567   8.738  0.7626 -0.6434  0.0851
   41BDD    C22 5351   0.026   5.614   8.690 -0.3579  0.3869 -0.2713
   41BDD    C23 5352   0.039   5.761   8.708  0.4668 -2.0938  0.7176
   41BDD    C24 5353   0.191   5.793   8.677 -0.3077 -0.3667 -0.0204
   41BDD    C25 5354  -0.076   5.314   8.772 -0.3637  0.9578 -0.1804
   41BDD    C26 5355   0.063   5.264   8.727  0.1247 -0.2285  0.3002
   42TPM     C1 5356  -0.704   5.814   8.786  0.2577  0.6120 -1.1233
   42TPM     C2 5357  -0.633   5.834   8.671 -0.3562  1.2306 -1.4062
   42TPM     C3 5358  -0.627   5.972   8.631 -0.7498  1.4316 -0.8123
   42TPM     C4 5359  -0.692   6.057   8.715 -0.4354  0.9665 -0.0770
   42TPM     S1 5360  -0.768   5.969   8.853  0.3877  0.2327 -0.0775
   43BDTP    C1 5361  -0.550   6.656   8.810  0.4008 -0.1532 -0.5050
   43BDTP    C2 5362  -0.593   6.658   8.674  0.4277 -0.2416 -0.5152
   43BDTP    C3 5363  -0.639   6.545   8.608  0.5472 -0.3072 -0.4852
   43BDTP    C4 5364  -0.641   6.424   8.679  0.6447 -0.2848 -0.4430
   43BDTP    C5 5365  -0.598   6.421   8.814  0.6177 -0.1963 -0.4327
   43BDTP    C6 5366  -0.553   6.534   8.881  0.4980 -0.1307 -0.4627
   43BDTP    C7 5367  -0.684   6.294   8.631  0.7758 -0.3414 -0.4065
   43BDTP    C8 5368  -0.674   6.195   8.724  0.8476 -0.3002 -0.3695
   43BDTP    S1 5369  -0.610   6.253   8.884  0.7589 -0.1841 -0.3755
   43BDTP    C9 5370  -0.507   6.786   8.858  0.2694 -0.0966 -0.5412
   43BDTP   C10 5371  -0.517   6.885   8.765  0.1979 -0.1376 -0.5786
   43BDTP    S2 5372  -0.581   6.827   8.605  0.2863 -0.2537 -0.5720
   44FTM     S1 5373  -0.562   6.469   8.348  0.7264  0.3130  0.0992
   44FTM     C1 5374  -0.667   6.531   8.215  0.1440  0.0990  0.4490
   44FTM     C2 5375  -0.769   6.604   8.266 -0.3898 -0.8869  0.8569
   44FTM     C3 5376  -0.772   6.617   8.408 -0.3793 -1.5204  0.9208
   44FTM     C4 5377  -0.669   6.552   8.468  0.1811 -1.0028  0.5499
   44FTM     F1 5378  -0.865   6.664   8.186 -0.9198 -1.2739  1.1966
   44FTM     C5 5379  -0.625   6.499   8.072  1.5233  0.6198  0.1926
   44FTM     C6 5380  -0.683   6.355   8.023 -0.1629  0.8526 -0.0806
   44FTM     C7 5381  -0.661   6.310   7.879 -0.5397  1.5052  0.5030
   44FTM     C8 5382  -0.726   6.385   7.770  0.4858  0.4681 -0.4120
   44FTM     C9 5383  -0.851   6.312   7.708  0.1579 -0.0700 -0.1382
   44FTM    C10 5384  -0.786   6.207   7.615  1.4442  0.5074  0.0588
   44FTM    C11 5385  -0.690   6.235   8.130 -0.9559 -0.4763 -0.2725
   44FTM    C12 5386  -0.844   6.228   8.163 -1.4975  0.3103 -0.3688
   45FTM     S1 5387  -0.559   6.430   9.151 -0.8249  0.6513  0.2277
   45FTM     C1 5388  -0.418   6.466   9.257 -0.5165 -0.4525  0.2242
   45FTM     C2 5389  -0.324   6.536   9.188  0.0527 -1.2014  0.2160
   45FTM     C3 5390  -0.355   6.565   9.051  0.2780 -0.9683  0.2127
   45FTM     C4 5391  -0.477   6.515   9.014 -0.1319 -0.0096  0.2177
   45FTM     F1 5392  -0.205   6.578   9.244  0.4036 -2.1427  0.2115
   45FTM     C5 5393  -0.424   6.436   9.394  1.4143 -0.9633 -0.3865
   45FTM     C6 5394  -0.393   6.298   9.459  0.7771  0.1600 -0.1436
   45FTM     C7 5395  -0.484   6.173   9.446  0.1152 -0.5137  1.1238
   45FTM     C8 5396  -0.465   6.021   9.428 -1.7189  0.7540 -0.8574
   45FTM     C9 5397  -0.418   5.966   9.574  0.2632  0.5147  0.1454
   45FTM    C10 5398  -0.474   5.825   9.613  0.1049  0.1166 -0.3927
   45FTM    C11 5399  -0.251   6.266   9.503 -0.7959  0.3892  0.8120
   45FTM    C12 5400  -0.147   6.329   9.421 -0.6045 -0.6728  0.4728
   46TPM     C1 5401  -0.425   6.986   8.783  1.0192 -0.5446  0.2722
   46TPM     C2 5402  -0.406   7.093   8.700  0.7322 -0.5580  0.1857
   46TPM     C3 5403  -0.308   7.187   8.748  0.1116  0.0117  0.3593
   46TPM     C4 5404  -0.253   7.152   8.868 -0.0754  0.4594  0.5783
   46TPM     S1 5405  -0.321   6.997   8.929  0.5233  0.1942  0.5821
   47BDD     C1 5406   0.080   7.303   8.998  0.0725 -0.6083  0.2255
   47BDD     C2 5407  -0.021   7.353   9.075  0.1004 -0.3278  0.0830
   47BDD     C3 5408  -0.153   7.311   9.032  0.0327  0.1193 -0.1640
   47BDD     C4 5409  -0.150   7.229   8.922 -0.0458  0.1735 -0.2068
   47BDD     S1 5410   0.017   7.199   8.866 -0.0403 -0.3318  0.0601
   47BDD     C5 5411  -0.001   7.442   9.191  0.1898 -0.4606  0.1690
   47BDD     C6 5412  -0.277   7.353   9.101  0.0484  0.4767 -0.3495
   47BDD     O1 5413  -0.391   7.316   9.063 -0.0100  0.8622 -0.5629
   47BDD     O2 5414   0.113   7.479   9.229  0.2481 -0.8461  0.3822
   47BDD     C7 5415  -0.256   7.441   9.217  0.1380  0.3439 -0.2637
   47BDD     C8 5416  -0.124   7.484   9.260  0.2055 -0.1032 -0.0165
   47BDD     C9 5417  -0.127   7.566   9.370  0.2837 -0.1570  0.0265
   47BDD     S2 5418  -0.295   7.595   9.426  0.2783  0.3481 -0.2404
   47BDD    C10 5419  -0.358   7.491   9.294  0.1659  0.6244 -0.4058
   47BDD    C11 5420  -0.508   7.465   9.328 -0.8711 -0.8583  0.5091
   47BDD    C12 5421  -0.591   7.589   9.376 -0.6376  0.4369 -0.2755
   47BDD    C13 5422  -0.627   7.715   9.293 -1.2990 -0.5134  1.0192
   47BDD    C14 5423  -0.521   7.794   9.209  0.5242 -0.8074  0.7685
   47BDD    C15 5424  -0.564   7.936   9.161  0.6998  0.7701 -0.7154
   47BDD    C16 5425  -0.473   8.009   9.069 -0.4633 -0.4851 -0.5700
   47BDD    C17 5426  -0.619   7.629   9.522  0.2728  0.6259  0.3021
   47BDD    C18 5427  -0.733   7.568   9.603  0.6730  0.3214 -0.7913
   47BDD    C19 5428  -0.038   7.659   9.453  0.4816  0.9687 -0.0317
   47BDD    C20 5429  -0.027   7.640   9.603 -0.7142 -0.3773 -0.2471
   47BDD    C21 5430   0.017   7.495   9.655  0.0142 -0.2795  0.0175
   47BDD    C22 5431  -0.028   7.421   9.777 -0.8731  0.3808  1.0252
   47BDD    C23 5432   0.107   7.367   9.827  1.0259 -0.0563  0.7726
   47BDD    C24 5433   0.097   7.267   9.945 -0.0917  0.3660  1.2103
   47BDD    C25 5434  -0.013   7.771   9.700  0.4643  1.5060  0.1809
   47BDD    C26 5435   0.007   7.927   9.640  0.4363  1.2448  0.2637
   48TPM     C1 5436   0.235   7.313   9.002  0.6561  0.0737 -0.5726
   48TPM     C2 5437   0.299   7.209   8.940  0.6000 -0.4575  0.2289
   48TPM     C3 5438   0.440   7.204   8.967  0.4943 -0.7015  0.7601
   48TPM     C4 5439   0.485   7.303   9.049  0.4698 -0.3561  0.3636
   48TPM     S1 5440   0.350   7.412   9.100  0.5792  0.3091 -0.7193
   49BDTP    C1 5441   1.066   7.511   9.188 -0.0390  0.0063  0.1678
   49BDTP    C2 5442   0.979   7.595   9.264  0.0290  0.0535  0.1938
   49BDTP    C3 5443   0.841   7.579   9.264  0.0200  0.1329  0.2294
   49BDTP    C4 5444   0.786   7.476   9.186 -0.0599  0.1676  0.2396
   49BDTP    C5 5445   0.873   7.392   9.110 -0.1280  0.1204  0.2134
   49BDTP    C6 5446   1.011   7.408   9.110 -0.1189  0.0410  0.1780
   49BDTP    C7 5447   0.647   7.440   9.171 -0.0845  0.2485  0.2744
   49BDTP    C8 5448   0.625   7.335   9.088 -0.1667  0.2645  0.2756
   49BDTP    S1 5449   0.778   7.267   9.018 -0.2244  0.1788  0.2334
   49BDTP    C9 5450   1.206   7.547   9.203 -0.0144 -0.0749  0.1330
   49BDTP   C10 5451   1.228   7.652   9.286  0.0677 -0.0904  0.1314
   49BDTP    S2 5452   1.075   7.721   9.356  0.1255 -0.0049  0.1740
   50FTM     S1 5453   0.711   7.823   9.301  0.1570 -0.1268  0.5673
   50FTM     C1 5454   0.619   7.845   9.455  0.1986 -0.8989  0.7104
   50FTM     C2 5455   0.625   7.732   9.529  0.2455 -1.2704  0.1531
   50FTM     C3 5456   0.701   7.623   9.473  0.2519 -0.9840 -0.4060
   50FTM     C4 5457   0.754   7.655   9.352  0.2084 -0.3734 -0.2722
   50FTM     F1 5458   0.563   7.719   9.653  0.2855 -1.8917  0.1156
   50FTM     C5 5459   0.519   7.949   9.463 -0.5635 -0.3897 -1.3448
   50FTM     C6 5460   0.504   8.050   9.355 -0.3004 -0.4910  0.7606
   50FTM     C7 5461   0.456   8.021   9.216 -0.1076 -0.6941  0.3009
   50FTM     C8 5462   0.354   7.908   9.218  1.2571 -1.1547 -0.5972
   50FTM     C9 5463   0.227   7.914   9.139  1.7349  0.1811  0.0275
   50FTM    C10 5464   0.254   7.938   8.993  0.3858 -0.6392  0.8089
   50FTM    C11 5465   0.609   8.142   9.367 -0.4758 -1.0241 -0.0110
   50FTM    C12 5466   0.595   8.288   9.306 -0.3255 -0.7650 -0.0175
   51FTM     S1 5467   1.087   7.139   9.035  0.6956  0.1116  0.3020
   51FTM     C1 5468   1.207   7.127   8.901  0.6040  0.0566  0.2246
   51FTM     C2 5469   1.247   7.252   8.864  0.5563  0.0432  0.1259
   51FTM     C3 5470   1.189   7.361   8.936  0.5873  0.0737  0.1049
   51FTM     C4 5471   1.101   7.319   9.031  0.6612  0.1120  0.1904
   51FTM     F1 5472   1.339   7.274   8.763  0.4818  0.0021  0.0489
   51FTM     C5 5473   1.279   7.002   8.845 -0.1172 -0.3455  0.8283
   51FTM     C6 5474   1.245   6.873   8.910  1.1993 -0.8216  0.6704
   51FTM     C7 5475   1.332   6.818   9.024 -0.2549  0.0700  0.0658
   51FTM     C8 5476   1.477   6.811   9.002  1.6343  0.5650  0.4694
   51FTM     C9 5477   1.570   6.689   9.037 -1.0942  0.2379  0.7405
   51FTM    C10 5478   1.526   6.564   8.969  0.3565  0.7706 -0.5525
   51FTM    C11 5479   1.086   6.833   8.906 -0.0958  0.4528  0.3873
   51FTM    C12 5480   0.984   6.812   8.776  1.3107  1.1008 -1.8305
   52TPM     C1 5481   1.363   7.700   9.321  0.1239 -0.8261  0.5707
   52TPM     C2 5482   1.404   7.718   9.449  0.5358 -0.4358  0.3898
   52TPM     C3 5483   1.532   7.782   9.461  0.2947  0.1738 -0.1996
   52TPM     C4 5484   1.589   7.813   9.340 -0.3012  0.2486 -0.4680
   52TPM     S1 5485   1.484   7.763   9.203 -0.6062 -0.4509  0.0067
   53BDD     C1 5486   1.978   7.811   9.387 -0.7638 -0.1360  0.4622
   53BDD     C2 5487   1.947   7.941   9.356 -0.5778 -0.1377  0.2642
   53BDD     C3 5488   1.805   7.962   9.333 -0.4709 -0.0956 -0.3884
   53BDD     C4 5489   1.730   7.848   9.346 -0.5768 -0.0624 -0.6781
   53BDD     S1 5490   1.832   7.707   9.389 -0.8178 -0.0814 -0.1543
   53BDD     C5 5491   2.046   8.050   9.346 -0.4916 -0.1781  0.6673
   53BDD     C6 5492   1.749   8.094   9.298 -0.2674 -0.0896 -0.7005
   53BDD     O1 5493   1.627   8.113   9.278 -0.1752 -0.0532 -1.2629
   53BDD     O2 5494   2.169   8.031   9.366 -0.5838 -0.2143  1.2298
   53BDD     C7 5495   1.849   8.203   9.288 -0.1813 -0.1302 -0.2973
   53BDD     C8 5496   1.990   8.182   9.311 -0.2882 -0.1724  0.3550
   53BDD     C9 5497   2.065   8.295   9.298 -0.1822 -0.2055  0.6449
   53BDD     S2 5498   1.964   8.437   9.255  0.0588 -0.1867  0.1212
   53BDD    C10 5499   1.818   8.333   9.257  0.0048 -0.1318 -0.4954
   53BDD    C11 5500   1.692   8.424   9.236 -1.3825 -0.5857 -0.8311
   53BDD    C12 5501   1.656   8.481   9.097  0.9764  0.6156  0.1237
   53BDD    C13 5502   1.647   8.643   9.100 -0.5085  0.8268  0.2678
   53BDD    C14 5503   1.764   8.745   9.104 -0.3674  0.6432  0.2721
   53BDD    C15 5504   1.833   8.740   8.958 -0.8969  0.7377  1.0326
   53BDD    C16 5505   1.835   8.868   8.872 -0.6321  0.8481 -1.1100
   53BDD    C17 5506   1.694   8.387   8.973  1.5492 -0.2120  0.5865
   53BDD    C18 5507   1.574   8.289   8.936 -0.5636  0.1223  0.5232
   53BDD    C19 5508   2.207   8.340   9.296  0.1438  0.8651 -0.2978
   53BDD    C20 5509   2.288   8.280   9.179  0.4143 -1.1217  0.4326
   53BDD    C21 5510   2.445   8.290   9.202  0.1456 -0.5505  0.2734
   53BDD    C22 5511   2.508   8.397   9.304  1.7552 -0.5525  2.0454
   53BDD    C23 5512   2.657   8.357   9.302  1.7547 -0.3749  0.7000
   53BDD    C24 5513   2.739   8.404   9.416 -0.1214 -1.3066 -0.3935
   53BDD    C25 5514   2.244   8.326   9.039 -0.6436  0.2672 -0.4951
   53BDD    C26 5515   2.231   8.469   8.997 -0.7055 -0.7130  0.3715
   54TPM     C1 5516   2.111   7.740   9.406  0.0705 -0.0450  0.2172
   54TPM     C2 5517   2.175   7.744   9.526 -0.0814  0.1222  0.2923
   54TPM     C3 5518   2.302   7.675   9.527  0.0550  0.3723  0.4663
   54TPM     C4 5519   2.334   7.618   9.407  0.3108  0.3959  0.5234
   54TPM     S1 5520   2.206   7.647   9.283  0.4001  0.1017  0.3609
   55BDTP    C1 5521   2.851   7.289   9.272  0.5093  0.1073  0.5784
   55BDTP    C2 5522   2.747   7.216   9.207  0.5636  0.2249  0.3588
   55BDTP    C3 5523   2.614   7.257   9.209  0.6127  0.4120  0.0205
   55BDTP    C4 5524   2.583   7.375   9.279  0.6083  0.4869 -0.1070
   55BDTP    C5 5525   2.687   7.448   9.344  0.5540  0.3691  0.1125
   55BDTP    C6 5526   2.819   7.407   9.342  0.5048  0.1821  0.4506
   55BDTP    C7 5527   2.453   7.437   9.296  0.6532  0.6762 -0.4480
   55BDTP    C8 5528   2.454   7.551   9.369  0.6356  0.7060 -0.4940
   55BDTP    S1 5529   2.620   7.596   9.427  0.5594  0.4984 -0.1123
   55BDTP    C9 5530   2.981   7.227   9.255  0.4643 -0.0821  0.9189
   55BDTP   C10 5531   2.979   7.113   9.182  0.4820 -0.1118  0.9651
   55BDTP    S2 5532   2.813   7.068   9.124  0.5582  0.0957  0.5836
   56FTM     S1 5533   2.481   7.007   9.273 -0.0145  0.2877  0.1858
   56FTM     C1 5534   2.326   6.976   9.186  0.6315  0.0754 -0.9346
   56FTM     C2 5535   2.298   7.080   9.103  0.8992  0.2142 -0.8543
   56FTM     C3 5536   2.393   7.187   9.102  0.6252  0.4874  0.0613
   56FTM     C4 5537   2.497   7.165   9.186  0.1313  0.5603  0.7028
   56FTM     F1 5538   2.184   7.084   9.023  1.4085  0.1019 -1.6048
   56FTM     C5 5539   2.247   6.853   9.223  0.9678  0.4772 -0.3681
   56FTM     C6 5540   2.178   6.766   9.114 -0.4515  1.2380 -0.1416
   56FTM     C7 5541   2.244   6.680   9.004 -0.5226 -0.5899  0.4822
   56FTM     C8 5542   2.398   6.662   9.022 -0.3582  0.3197 -0.6390
   56FTM     C9 5543   2.461   6.561   8.926  0.2215  0.7890  1.0290
   56FTM    C10 5544   2.520   6.594   8.781  0.4673 -0.1588  0.0703
   56FTM    C11 5545   2.050   6.816   9.072  0.9192  0.4402  1.0990
   56FTM    C12 5546   1.922   6.726   9.071 -0.2602 -0.3638 -0.0421
   57FTM     S1 5547   2.974   7.642   9.298  0.3949 -0.0525 -0.4196
   57FTM     C1 5548   3.073   7.689   9.441  0.6811  0.0503 -0.6491
   57FTM     C2 5549   3.061   7.595   9.539  0.6059  0.2846 -0.4301
   57FTM     C3 5550   2.977   7.483   9.509  0.3281  0.3955 -0.0789
   57FTM     C4 5551   2.922   7.492   9.384  0.1857  0.2413 -0.0275
   57FTM     F1 5552   3.126   7.605   9.661  0.7843  0.4122 -0.5348
   57FTM     C5 5553   3.144   7.825   9.448  1.8231  0.9846 -0.3929
   57FTM     C6 5554   3.029   7.942   9.485 -0.8188 -0.3866  0.4773
   57FTM     C7 5555   3.014   8.047   9.366 -0.3311 -0.0275  0.3640
   57FTM     C8 5556   2.886   8.016   9.277  0.7967 -0.2696  0.1990
   57FTM     C9 5557   2.746   8.005   9.343  1.5247  0.1078 -0.2509
   57FTM    C10 5558   2.639   7.984   9.235 -0.9849  0.5303  0.2437
   57FTM    C11 5559   2.980   7.961   9.627 -0.1451 -1.4529 -1.0495
   57FTM    C12 5560   2.938   8.109   9.660  0.3094  0.8436  0.9461
   58TPM     C1 5561   3.095   7.037   9.139  0.2124  0.2470 -0.1859
   58TPM     C2 5562   3.078   6.903   9.122  0.1463  0.1864  0.3209
   58TPM     C3 5563   3.200   6.831   9.097  0.0882  0.0588  0.4001
   58TPM     C4 5564   3.311   6.910   9.095  0.1100  0.0217 -0.0471
   58TPM     S1 5565   3.269   7.083   9.125  0.2065  0.1467 -0.6065
   59BDD     C1 5566   3.612   6.716   8.936 -0.2226 -0.2162 -0.1450
   59BDD     C2 5567   3.652   6.760   9.059 -0.1985 -0.1115 -0.1898
   59BDD     C3 5568   3.553   6.842   9.126 -0.0929  0.1411 -0.3395
   59BDD     C4 5569   3.439   6.859   9.054 -0.0378  0.2252 -0.4062
   59BDD     S1 5570   3.447   6.774   8.896 -0.1144 -0.0058 -0.2866
   59BDD     C5 5571   3.784   6.728   9.119 -0.2719 -0.2397 -0.0973
   59BDD     C6 5572   3.576   6.900   9.260 -0.0504  0.2899 -0.4106
   59BDD     O1 5573   3.491   6.971   9.318  0.0408  0.5076 -0.5395
   59BDD     O2 5574   3.869   6.657   9.061 -0.3629 -0.4576  0.0319
   59BDD     C7 5575   3.707   6.868   9.320 -0.1237  0.1616 -0.3176
   59BDD     C8 5576   3.806   6.786   9.253 -0.2293 -0.0910 -0.1681
   59BDD     C9 5577   3.921   6.768   9.326 -0.2843 -0.1751 -0.1013
   59BDD     S2 5578   3.912   6.853   9.483 -0.2076  0.0562 -0.2211
   59BDD    C10 5579   3.748   6.912   9.443 -0.0996  0.2664 -0.3626
   59BDD    C11 5580   3.675   7.000   9.544  0.5415  0.5388 -1.1164
   59BDD    C12 5581   3.641   6.937   9.694 -0.5054  1.0103  0.0748
   59BDD    C13 5582   3.592   7.041   9.796  0.9506 -0.3505 -0.1399
   59BDD    C14 5583   3.570   7.001   9.942  0.2333  0.1774 -0.7345
   59BDD    C15 5584   3.497   7.102  10.018 -1.0189  0.6243  0.6147
   59BDD    C16 5585   3.461   7.061  10.159  0.1870 -0.5645  0.7206
   59BDD    C17 5586   3.581   6.792   9.708  0.1491 -0.0757  1.1716
   59BDD    C18 5587   3.678   6.686   9.768  0.8982 -0.4582  1.0171
   59BDD    C19 5588   4.047   6.685   9.316 -0.5315  1.0126  0.0929
   59BDD    C20 5589   4.187   6.769   9.303 -0.6811  0.8937 -0.2435
   59BDD    C21 5590   4.319   6.702   9.354 -0.6686 -0.2884  0.3162
   59BDD    C22 5591   4.329   6.557   9.300  0.5487 -1.2724 -0.4799
   59BDD    C23 5592   4.411   6.436   9.365  0.6910 -1.4318  0.5111
   59BDD    C24 5593   4.556   6.460   9.416 -1.1158  0.1905  0.5063
   59BDD    C25 5594   4.206   6.925   9.321  1.7947  0.1117  0.5907
   59BDD    C26 5595   4.113   7.033   9.267  0.8260  0.2503 -0.4465
   60TPM     C1 5596   3.664   6.645   8.817  0.1878  0.6313 -0.0666
   60TPM     C2 5597   3.585   6.568   8.737 -0.2335  1.1400 -0.1514
   60TPM     C3 5598   3.659   6.487   8.642 -0.6748  0.9789 -0.3636
   60TPM     C4 5599   3.794   6.503   8.650 -0.5901  0.3472 -0.4409
   60TPM     S1 5600   3.839   6.622   8.779  0.0588 -0.0965 -0.2499
    1BDTP    C1 5601   7.711   8.148   9.240 -0.4568  0.2179 -0.3006
    1BDTP    C2 5602   7.679   8.233   9.350 -0.1109  0.1743 -0.1655
    1BDTP    C3 5603   7.657   8.185   9.478  0.1959  0.1140 -0.1328
    1BDTP    C4 5604   7.666   8.046   9.499  0.1608  0.0954 -0.2384
    1BDTP    C5 5605   7.697   7.961   9.389 -0.1850  0.1391 -0.3736
    1BDTP    C6 5606   7.720   8.009   9.261 -0.4920  0.1998 -0.4060
    1BDTP    C7 5607   7.646   7.973   9.623  0.4396  0.0351 -0.2296
    1BDTP    C8 5608   7.662   7.839   9.611  0.3213  0.0317 -0.3500
    1BDTP    S1 5609   7.703   7.786   9.442 -0.1601  0.1042 -0.4914
    1BDTP    C9 5610   7.730   8.221   9.117 -0.7358  0.2785 -0.3092
    1BDTP   C10 5611   7.715   8.355   9.128 -0.6173  0.2818 -0.1893
    1BDTP    S2 5612   7.674   8.408   9.298 -0.1360  0.2094 -0.0477
    2FTM     S1 5613   7.466   8.333   9.634 -0.0177  0.4784  0.4293
    2FTM     C1 5614   7.532   8.433   9.768  0.2041  0.8358  0.0620
    2FTM     C2 5615   7.667   8.423   9.772  0.2248  0.9930 -0.2472
    2FTM     C3 5616   7.727   8.339   9.672  0.0732  0.8488 -0.2179
    2FTM     C4 5617   7.634   8.283   9.590 -0.0680  0.5722  0.1247
    2FTM     F1 5618   7.745   8.489   9.865  0.3824  1.2767 -0.5748
    2FTM     C5 5619   7.450   8.535   9.847 -0.4656 -1.3200 -0.4777
    2FTM     C6 5620   7.369   8.496   9.961 -0.6504  2.1178  0.1259
    2FTM     C7 5621   7.231   8.564   9.965 -0.0228 -0.1447 -0.9004
    2FTM     C8 5622   7.131   8.561   9.854  0.2562  0.2241  0.5961
    2FTM     C9 5623   7.001   8.646   9.865 -0.8514  1.4115  0.3493
    2FTM    C10 5624   6.903   8.579   9.959 -0.6755  0.6128 -1.5816
    2FTM    C11 5625   7.418   8.454  10.100 -1.3691  0.4582  0.3686
    2FTM    C12 5626   7.557   8.396  10.114 -0.0924  0.3982  0.6299
    3FTM     S1 5627   7.897   7.962   9.031  0.4381 -0.2506  0.2685
    3FTM     C1 5628   7.845   7.839   8.911  1.3296  0.1205 -0.5256
    3FTM     C2 5629   7.731   7.778   8.953  0.9712  0.0104 -1.5843
    3FTM     C3 5630   7.678   7.822   9.079  0.0045 -0.3601 -1.8373
    3FTM     C4 5631   7.755   7.921   9.134 -0.3898 -0.5397 -0.9423
    3FTM     F1 5632   7.667   7.678   8.881  1.4968  0.2388 -2.3880
    3FTM     C5 5633   7.915   7.809   8.785  0.1455 -0.3043  0.0880
    3FTM     C6 5634   8.041   7.725   8.778 -0.4096  0.5921  0.1762
    3FTM     C7 5635   8.098   7.713   8.625 -0.2307 -0.2647 -0.2066
    3FTM     C8 5636   8.232   7.649   8.604 -0.6737 -0.2665 -0.8906
    3FTM     C9 5637   8.349   7.705   8.684 -0.9053  0.0050 -2.4534
    3FTM    C10 5638   8.457   7.812   8.647  0.0330  1.0022  0.1581
    3FTM    C11 5639   8.029   7.586   8.840  0.7417  0.2969 -0.2586
    3FTM    C12 5640   8.143   7.561   8.946 -0.1050 -0.0222 -0.3715
    4TPM     C1 5641   7.724   8.460   9.025 -0.1977  0.8795 -0.9259
    4TPM     C2 5642   7.649   8.485   8.914 -0.0381  1.6093 -0.8831
    4TPM     C3 5643   7.670   8.615   8.858  0.4821  1.7693 -0.3400
    4TPM     C4 5644   7.761   8.691   8.926  0.7190  1.1620  0.0312
    4TPM     S1 5645   7.828   8.601   9.067  0.3003  0.3337 -0.2788
    5BDD     C1 5646   7.869   9.051   8.969  0.1758  0.1169  0.0687
    5BDD     C2 5647   7.889   9.019   8.837  0.1392  0.0429  0.0808
    5BDD     C3 5648   7.835   8.890   8.800  0.2114 -0.0193  0.1910
    5BDD     C4 5649   7.775   8.824   8.904  0.3021  0.0088  0.2608
    5BDD     S1 5650   7.781   8.920   9.055  0.3031  0.1140  0.1943
    5BDD     C5 5651   7.958   9.107   8.741  0.0365  0.0265 -0.0086
    5BDD     C6 5652   7.845   8.836   8.663  0.1878 -0.1032  0.2224
    5BDD     O1 5653   7.798   8.724   8.631  0.2500 -0.1569  0.3171
    5BDD     O2 5654   8.004   9.219   8.773 -0.0257  0.0799 -0.1032
    5BDD     C7 5655   7.914   8.924   8.566  0.0851 -0.1194  0.1333
    5BDD     C8 5656   7.968   9.053   8.604  0.0129 -0.0577  0.0229
    5BDD     C9 5657   8.028   9.119   8.500 -0.0777 -0.0854 -0.0477
    5BDD     S2 5658   8.022   9.023   8.348 -0.0790 -0.1907  0.0193
    5BDD    C10 5659   7.934   8.892   8.435  0.0484 -0.1936  0.1447
    5BDD    C11 5660   7.883   8.785   8.332  0.9426  0.0855 -0.4496
    5BDD    C12 5661   7.950   8.726   8.206 -0.1895 -0.0970 -0.3397
    5BDD    C13 5662   8.095   8.714   8.195 -0.3452  0.5820 -0.0161
    5BDD    C14 5663   8.173   8.587   8.195 -1.3948  0.5745 -0.0209
    5BDD    C15 5664   8.231   8.533   8.324 -0.7079  1.6676  0.9225
    5BDD    C16 5665   8.110   8.491   8.411 -0.9975  0.1431 -0.1821
    5BDD    C17 5666   7.856   8.643   8.113  0.3673  0.7496 -0.1743
    5BDD    C18 5667   7.839   8.697   7.975  0.7224  0.0228  0.0213
    5BDD    C19 5668   8.105   9.255   8.472 -0.3101  0.2394  0.2023
    5BDD    C20 5669   8.021   9.391   8.492  0.6856  0.1366 -0.9843
    5BDD    C21 5670   8.118   9.506   8.542 -0.0745 -0.0367 -0.5797
    5BDD    C22 5671   8.078   9.659   8.538  0.6390  1.3345 -0.6086
    5BDD    C23 5672   8.205   9.722   8.517 -0.9241 -0.6391 -0.1168
    5BDD    C24 5673   8.195   9.873   8.495 -1.0572  1.0201  0.1739
    5BDD    C25 5674   7.906   9.433   8.380 -0.5381  1.0020  0.7093
    5BDD    C26 5675   7.962   9.424   8.230 -0.3983 -0.9050 -0.9980
    6TPM     C1 5676   7.897   9.158   9.055 -0.0395 -0.0604  0.7139
    6TPM     C2 5677   7.801   9.205   9.139  0.5033 -0.0548  1.3499
    6TPM     C3 5678   7.838   9.326   9.209  0.8056  0.1867  0.7782
    6TPM     C4 5679   7.963   9.371   9.177  0.4933  0.3649 -0.2936
    6TPM     S1 5680   8.044   9.263   9.057 -0.2119  0.2411 -0.6668
    7BDTP    C1 5681   8.276   9.803   9.508  0.1090  0.2606 -0.1550
    7BDTP    C2 5682   8.375   9.704   9.481 -0.0401  0.1304 -0.2248
    7BDTP    C3 5683   8.348   9.590   9.407 -0.2787  0.0980 -0.0911
    7BDTP    C4 5684   8.218   9.573   9.356 -0.3757  0.1979  0.1218
    7BDTP    C5 5685   8.119   9.672   9.383 -0.2265  0.3285  0.1919
    7BDTP    C6 5686   8.146   9.786   9.457  0.0123  0.3611  0.0581
    7BDTP    C7 5687   8.167   9.463   9.277 -0.6177  0.1880  0.2896
    7BDTP    C8 5688   8.036   9.475   9.243 -0.6573  0.3026  0.4797
    7BDTP    S1 5689   7.960   9.627   9.307 -0.3929  0.4399  0.4733
    7BDTP    C9 5690   8.327   9.913   9.587  0.3514  0.2711 -0.3226
    7BDTP   C10 5691   8.458   9.901   9.621  0.3905  0.1562 -0.5126
    7BDTP    S2 5692   8.535   9.749   9.557  0.1265  0.0190 -0.5061
    8FTM     S1 5693   8.455   9.318   9.348  0.2225 -0.1320  0.3773
    8FTM     C1 5694   8.626   9.322   9.292 -0.3194  0.1497 -1.3898
    8FTM     C2 5695   8.673   9.449   9.294 -0.4599  0.2062 -1.7128
    8FTM     C3 5696   8.580   9.550   9.337 -0.1624  0.0377 -0.6318
    8FTM     C4 5697   8.459   9.497   9.370  0.2188 -0.1538  0.5576
    8FTM     F1 5698   8.802   9.483   9.256 -0.8667  0.4139 -3.0062
    8FTM     C5 5699   8.687   9.184   9.308  0.2291  1.3808  0.1854
    8FTM     C6 5700   8.807   9.145   9.222 -0.5934 -0.2642 -1.5835
    8FTM     C7 5701   8.899   9.037   9.274 -1.8691  0.0258 -1.3994
    8FTM     C8 5702   8.851   8.902   9.339 -1.6008 -1.3687  0.1909
    8FTM     C9 5703   8.778   8.798   9.265  0.5533 -0.9909  0.1396
    8FTM    C10 5704   8.642   8.821   9.198 -0.7381  0.5032 -0.2801
    8FTM    C11 5705   8.791   9.157   9.075  0.2749 -0.2223  0.8553
    8FTM    C12 5706   8.928   9.212   9.015  1.1707 -0.1497 -0.3770
    9FTM     S1 5707   8.054  10.019   9.610  0.2515  0.3154 -0.0138
    9FTM     C1 5708   7.934  10.123   9.526  0.2006  0.4071  0.1713
    9FTM     C2 5709   7.905  10.071   9.404 -0.1551  0.3357  0.2828
    9FTM     C3 5710   7.974   9.950   9.369 -0.4039  0.2081  0.2320
    9FTM     C4 5711   8.057   9.908   9.468 -0.2330  0.1809  0.0768
    9FTM     F1 5712   7.815  10.129   9.316 -0.2767  0.3817  0.4370
    9FTM     C5 5713   7.847  10.220   9.598  1.6226 -0.2052 -0.0500
    9FTM     C6 5714   7.892  10.338   9.658 -0.1948 -1.2113  0.9177
    9FTM     C7 5715   7.831  10.468   9.608  1.0601 -0.8456  1.7614
    9FTM     C8 5716   7.683  10.498   9.624  0.4046  0.0343 -1.2004
    9FTM     C9 5717   7.656  10.631   9.571 -2.4936 -0.1606  0.3772
    9FTM    C10 5718   7.515  10.676   9.607  0.0378  0.5578 -0.3663
    9FTM    C11 5719   7.919  10.326   9.809 -0.4753 -1.1049 -0.0522
    9FTM    C12 5720   7.999  10.425   9.877 -1.2977 -0.9794 -0.7854
   10TPM     C1 5721   8.540   9.993   9.688  0.8402  1.2704 -0.8765
   10TPM     C2 5722   8.646   9.941   9.756  0.8531  0.8609 -1.1995
   10TPM     C3 5723   8.684  10.019   9.871  0.6011 -0.0558 -0.4764
   10TPM     C4 5724   8.607  10.129   9.892  0.3954 -0.3453  0.3973
   10TPM     S1 5725   8.478  10.144   9.766  0.5055  0.5239  0.3747
   11BDD     C1 5726   8.814  10.397  10.093 -0.0109  0.0831 -0.7689
   11BDD     C2 5727   8.701  10.375  10.166  0.1266  0.0587 -0.5612
   11BDD     C3 5728   8.609  10.281  10.103  0.2058 -0.2615 -0.2098
   11BDD     C4 5729   8.653  10.234   9.983  0.1271 -0.4766 -0.1546
   11BDD     S1 5730   8.814  10.302   9.941 -0.0508 -0.2933 -0.5388
   11BDD     C5 5731   8.673  10.438  10.297  0.1903  0.3285 -0.6783
   11BDD     C6 5732   8.480  10.243  10.165  0.3557 -0.3426  0.0584
   11BDD     O1 5733   8.401  10.163  10.110  0.4239 -0.6185  0.3614
   11BDD     O2 5734   8.752  10.519  10.351  0.1221  0.6046 -0.9811
   11BDD     C7 5735   8.452  10.307  10.295  0.4196 -0.0722 -0.0584
   11BDD     C8 5736   8.544  10.400  10.358  0.3407  0.2477 -0.4098
   11BDD     C9 5737   8.499  10.448  10.478  0.4189  0.4625 -0.4649
   11BDD     S2 5738   8.339  10.379  10.521  0.5968  0.2794 -0.0810
   11BDD    C10 5739   8.338  10.285  10.368  0.5569 -0.0970  0.1493
   11BDD    C11 5740   8.235  10.174  10.389 -0.5230 -1.4890  0.4667
   11BDD    C12 5741   8.257  10.062  10.492  0.6472 -0.5287 -0.7333
   11BDD    C13 5742   8.136  10.014  10.562 -1.0807  0.2263  0.2864
   11BDD    C14 5743   8.046   9.922  10.482 -0.6771 -0.6988 -0.1979
   11BDD    C15 5744   7.893   9.940  10.486  0.0718 -1.1401  1.1228
   11BDD    C16 5745   7.815  10.073  10.481  0.9830  0.9984 -0.0346
   11BDD    C17 5746   8.359   9.955  10.468 -0.1114 -0.1439 -0.0829
   11BDD    C18 5747   8.358   9.879  10.336  0.0802 -0.8303  0.5284
   11BDD    C19 5748   8.522  10.540  10.604  0.0983  0.5245 -0.1582
   11BDD    C20 5749   8.658  10.529  10.678 -0.4633 -0.2716  1.9419
   11BDD    C21 5750   8.669  10.402  10.762 -1.9351  1.1954  0.0281
   11BDD    C22 5751   8.596  10.382  10.897 -0.0627 -0.8125 -1.2294
   11BDD    C23 5752   8.589  10.227  10.912  0.9286 -0.0508 -0.0141
   11BDD    C24 5753   8.513  10.168  11.021 -0.6847 -1.9864 -0.0903
   11BDD    C25 5754   8.698  10.661  10.745  0.0977 -1.5173  0.5979
   11BDD    C26 5755   8.851  10.651  10.760  1.1758 -0.0418 -0.4490
   12TPM     C1 5756   8.928  10.462  10.111  0.9169  0.3808 -0.0446
   12TPM     C2 5757   8.943  10.596  10.125  0.8013  0.5522 -1.3263
   12TPM     C3 5758   9.078  10.642  10.102  0.7439  0.4766 -1.8492
   12TPM     C4 5759   9.165  10.542  10.071  0.8162  0.2478 -0.9662
   12TPM     S1 5760   9.084  10.381  10.068  0.9631  0.1089  0.6066
   13BDTP    C1 5761   9.781  10.642   9.942 -0.1078  0.1407 -0.2806
   13BDTP    C2 5762   9.742  10.766  10.000 -0.2806  0.1132 -0.3371
   13BDTP    C3 5763   9.614  10.790  10.047 -0.3419 -0.0093 -0.4396
   13BDTP    C4 5764   9.520  10.686  10.038 -0.2275 -0.1094 -0.4890
   13BDTP    C5 5765   9.559  10.561   9.981 -0.0544 -0.0815 -0.4323
   13BDTP    C6 5766   9.687  10.538   9.933  0.0067  0.0409 -0.3294
   13BDTP    C7 5767   9.381  10.687  10.081 -0.2612 -0.2438 -0.5945
   13BDTP    C8 5768   9.315  10.570  10.059 -0.1240 -0.3173 -0.6192
   13BDTP    S1 5769   9.420  10.443   9.981  0.0677 -0.2265 -0.5126
   13BDTP    C9 5770   9.920  10.641   9.899 -0.0739  0.2751 -0.1750
   13BDTP   C10 5771   9.986  10.757   9.922 -0.2115  0.3486 -0.1502
   13BDTP    S2 5772   9.882  10.884  10.000 -0.4032  0.2579 -0.2565
   14FTM     S1 5773   9.663  11.008  10.226  0.3525 -0.0153 -0.1348
   14FTM     C1 5774   9.529  11.128  10.237  0.3012 -0.1242  0.4629
   14FTM     C2 5775   9.433  11.100  10.145 -0.1283 -0.2451  0.9358
   14FTM     C3 5776   9.457  10.986  10.061 -0.4370 -0.2599  0.8643
   14FTM     C4 5777   9.575  10.925  10.091 -0.2363 -0.1470  0.3184
   14FTM     F1 5778   9.318  11.175  10.130 -0.2680 -0.3490  1.4617
   14FTM     C5 5779   9.558  11.262  10.306  0.3891  0.0480  0.8155
   14FTM     C6 5780   9.445  11.341  10.380 -0.2098 -0.4865  0.3264
   14FTM     C7 5781   9.346  11.418  10.288 -0.3283 -0.1440 -0.9320
   14FTM     C8 5782   9.402  11.518  10.211  0.5240  0.2239  0.7337
   14FTM     C9 5783   9.439  11.626  10.305  0.5260  0.3765 -0.4033
   14FTM    C10 5784   9.561  11.705  10.242  1.0912  1.5897 -1.6864
   14FTM    C11 5785   9.378  11.272  10.492 -0.0375 -0.9778 -0.1179
   14FTM    C12 5786   9.363  11.317  10.629 -0.7243  0.0635  0.2055
   15FTM     S1 5787   9.845  10.296   9.925 -0.6735 -0.7494  0.3713
   15FTM     C1 5788   9.827  10.197   9.776  0.5046 -0.4525  0.0095
   15FTM     C2 5789   9.731  10.250   9.696  1.0436 -0.3655 -0.5968
   15FTM     C3 5790   9.667  10.369   9.744  0.5836 -0.5205 -0.8121
   15FTM     C4 5791   9.715  10.407   9.866 -0.3371 -0.7333 -0.3555
   15FTM     F1 5792   9.695  10.195   9.574  1.9846 -0.1400 -0.9928
   15FTM     C5 5793   9.889  10.056   9.775  0.1931 -1.1298  0.3504
   15FTM     C6 5794   9.838   9.937   9.860 -0.0791 -0.8838 -0.7324
   15FTM     C7 5795   9.940   9.833   9.840  0.8133  0.8360 -1.4314
   15FTM     C8 5796   9.952   9.692   9.910 -0.3586  0.2179 -0.8217
   15FTM     C9 5797   9.922   9.554   9.847  0.7155 -0.0148 -1.1966
   15FTM    C10 5798   9.790   9.506   9.889  1.8695  1.2131  0.4516
   15FTM    C11 5799   9.781   9.977   9.997 -0.5554 -0.2986  0.7017
   15FTM    C12 5800   9.682   9.892  10.050 -0.9618  0.8370 -0.3538
   16TPM     C1 5801  10.133  10.789   9.889  0.5101  0.9089  0.7830
   16TPM     C2 5802  10.174  10.919   9.879  0.8652  0.7250 -0.5128
   16TPM     C3 5803  10.297  10.935   9.806  0.6239 -0.2608 -1.1854
   16TPM     C4 5804  10.350  10.818   9.761  0.0841 -0.8283 -0.4025
   16TPM     S1 5805  10.248  10.677   9.807 -0.1626 -0.1567  1.2579
   17BDD     C1 5806  10.626  10.697   9.503  0.4266  0.0454 -0.0596
   17BDD     C2 5807  10.638  10.833   9.504  0.3176  0.0558 -0.0904
   17BDD     C3 5808  10.551  10.898   9.600  0.1214  0.0224 -0.2460
   17BDD     C4 5809  10.473  10.811   9.670  0.0833 -0.0133 -0.3305
   17BDD     S1 5810  10.504  10.641   9.622  0.2911 -0.0069 -0.2224
   17BDD     C5 5811  10.731  10.908   9.417  0.3896  0.0966  0.0215
   17BDD     C6 5812  10.548  11.045   9.617 -0.0219  0.0265 -0.3042
   17BDD     O1 5813  10.472  11.101   9.700 -0.1912 -0.0021 -0.4382
   17BDD     O2 5814  10.807  10.852   9.334  0.5591  0.1254  0.1554
   17BDD     C7 5815  10.640  11.120   9.530  0.0505  0.0677 -0.1926
   17BDD     C8 5816  10.728  11.055   9.434  0.2468  0.1011 -0.0372
   17BDD     C9 5817  10.806  11.142   9.364  0.2847  0.1364  0.0477
   17BDD     S2 5818  10.775  11.312   9.412  0.0768  0.1301 -0.0607
   17BDD    C10 5819  10.653  11.256   9.531 -0.0584  0.0780 -0.2239
   17BDD    C11 5820  10.613  11.378   9.619  0.7383  0.4837 -0.5394
   17BDD    C12 5821  10.615  11.361   9.770 -0.1475 -0.1503  0.2623
   17BDD    C13 5822  10.506  11.433   9.847 -0.0948 -0.0960  0.5923
   17BDD    C14 5823  10.355  11.415   9.783 -0.5309 -0.3394  0.2425
   17BDD    C15 5824  10.244  11.480   9.861  0.7228 -0.9403 -0.4715
   17BDD    C16 5825  10.178  11.364   9.949  0.6842  0.4146  0.3808
   17BDD    C17 5826  10.748  11.346   9.835 -0.3211  0.3536  0.4889
   17BDD    C18 5827  10.722  11.262   9.962 -0.7145 -0.4315 -0.6152
   17BDD    C19 5828  10.903  11.127   9.255 -0.7516 -0.5433  0.8438
   17BDD    C20 5829  11.047  11.060   9.292  0.9045  0.0227 -0.3771
   17BDD    C21 5830  11.095  11.036   9.442  1.0213  1.3592 -0.3152
   17BDD    C22 5831  11.178  10.902   9.463  0.8533 -0.5806 -1.5731
   17BDD    C23 5832  11.213  10.889   9.613  0.1032 -0.3478  1.6881
   17BDD    C24 5833  11.306  10.781   9.619 -0.1769  1.8139  2.1060
   17BDD    C25 5834  11.167  11.079   9.199  0.2890 -0.0618  0.4529
   17BDD    C26 5835  11.142  11.093   9.049  0.8618  0.7017  0.1971
   18TPM     C1 5836  10.683  10.576   9.432  0.2075 -0.9116  0.4886
   18TPM     C2 5837  10.710  10.463   9.505  1.2443 -1.0357 -0.0546
   18TPM     C3 5838  10.770  10.358   9.427  1.2279 -0.4990 -0.8218
   18TPM     C4 5839  10.789  10.390   9.296  0.1787  0.0340 -0.8638
   18TPM     S1 5840  10.732  10.557   9.260 -0.8781 -0.1013  0.0698
   19BDTP    C1 5841  11.025   9.952   8.917  0.3738  0.0577 -0.3371
   19BDTP    C2 5842  11.130   9.973   9.011  0.2093 -0.2332 -0.0837
   19BDTP    C3 5843  11.122  10.066   9.114  0.1016 -0.4232  0.0813
   19BDTP    C4 5844  11.004  10.143   9.125  0.1585 -0.3221 -0.0072
   19BDTP    C5 5845  10.899  10.122   9.031  0.3231 -0.0312 -0.2606
   19BDTP    C6 5846  10.907  10.029   8.928  0.4308  0.1592 -0.4256
   19BDTP    C7 5847  10.972  10.245   9.223  0.0697 -0.4792  0.1291
   19BDTP    C8 5848  10.850  10.301   9.207  0.1585 -0.3216 -0.0081
   19BDTP    S1 5849  10.758  10.232   9.066  0.3669  0.0474 -0.3293
   19BDTP    C9 5850  11.056   9.850   8.820  0.4628  0.2148 -0.4733
   19BDTP   C10 5851  11.178   9.794   8.835  0.3741  0.0572 -0.3359
   19BDTP    S2 5852  11.271   9.863   8.976  0.1656 -0.3118 -0.0148
   20FTM     S1 5853  11.308  10.247   9.221 -0.1625 -0.0483  0.3580
   20FTM     C1 5854  11.398  10.192   9.367 -0.1767 -0.4030  0.2347
   20FTM     C2 5855  11.363  10.064   9.398 -0.4942 -0.3335  0.1686
   20FTM     C3 5856  11.266  10.003   9.312 -0.7401 -0.0086  0.2089
   20FTM     C4 5857  11.226  10.086   9.212 -0.6062  0.1774  0.3092
   20FTM     F1 5858  11.417   9.995   9.506 -0.5815 -0.5605  0.0677
   20FTM     C5 5859  11.507  10.280   9.411  0.4177  0.0394  0.5963
   20FTM     C6 5860  11.446  10.415   9.448  1.6309  0.4160 -1.0282
   20FTM     C7 5861  11.374  10.411   9.589 -0.4956 -0.8829 -1.4763
   20FTM     C8 5862  11.221  10.449   9.577  1.0216  0.1724 -0.2618
   20FTM     C9 5863  11.120  10.451   9.690  1.0942  0.4791 -0.7635
   20FTM    C10 5864  11.061  10.560   9.772  0.1095  0.6505  0.6757
   20FTM    C11 5865  11.562  10.509   9.444  0.1957 -1.0386  0.4580
   20FTM    C12 5866  11.679  10.499   9.526 -1.1891  0.8055 -1.2731
   21FTM     S1 5867  10.743  10.125   8.721 -0.1759  0.5535  0.7323
   21FTM     C1 5868  10.605  10.021   8.668 -0.0058  0.5843  0.2149
   21FTM     C2 5869  10.602   9.908   8.744  0.3290  0.0746 -0.5043
   21FTM     C3 5870  10.703   9.896   8.845  0.4699 -0.3605 -0.6924
   21FTM     C4 5871  10.787  10.003   8.847  0.2358 -0.1780 -0.0975
   21FTM     F1 5872  10.506   9.809   8.726  0.5274 -0.0281 -1.0350
   21FTM     C5 5873  10.539  10.062   8.536  1.9083 -0.4872  0.1116
   21FTM     C6 5874  10.593  10.136   8.408  0.0538 -0.2060 -0.6489
   21FTM     C7 5875  10.476  10.132   8.295 -0.0004 -0.2683 -1.6522
   21FTM     C8 5876  10.519  10.162   8.151  0.7105 -0.6719  1.0282
   21FTM     C9 5877  10.591  10.046   8.086 -1.1697 -0.2624  0.0077
   21FTM    C10 5878  10.519  10.009   7.968  0.2636  0.1185  0.7776
   21FTM    C11 5879  10.666  10.270   8.426 -0.6963  0.4123 -0.5922
   21FTM    C12 5880  10.738  10.335   8.309 -1.8089 -0.6069  0.5041
   22TPM     C1 5881  11.216   9.678   8.771 -0.3876 -0.5221  0.1389
   22TPM     C2 5882  11.323   9.598   8.798 -0.8407 -1.1404  0.1433
   22TPM     C3 5883  11.354   9.505   8.693 -1.0817 -0.9961 -0.0577
   22TPM     C4 5884  11.271   9.514   8.585 -0.8118 -0.2677 -0.2156
   22TPM     S1 5885  11.146   9.642   8.608 -0.2284  0.2968 -0.1211
   23BDD     C1 5886  11.431   9.253   8.329 -0.4934 -0.1675  0.1468
   23BDD     C2 5887  11.308   9.283   8.276 -0.4549 -0.0679  0.1125
   23BDD     C3 5888  11.233   9.378   8.356 -0.3927  0.0064  0.0823
   23BDD     C4 5889  11.300   9.420   8.468 -0.3847 -0.0377  0.0942
   23BDD     S1 5890  11.461   9.342   8.481 -0.4544 -0.1752  0.1435
   23BDD     C5 5891  11.256   9.224   8.151 -0.4740 -0.0374  0.1061
   23BDD     C6 5892  11.098   9.424   8.318 -0.3438  0.1183  0.0427
   23BDD     O1 5893  11.034   9.507   8.387 -0.2902  0.1824  0.0167
   23BDD     O2 5894  11.320   9.142   8.083 -0.5276 -0.1013  0.1323
   23BDD     C7 5895  11.045   9.366   8.193 -0.3624  0.1490  0.0367
   23BDD     C8 5896  11.120   9.271   8.114 -0.4246  0.0749  0.0668
   23BDD     C9 5897  11.054   9.229   8.002 -0.4325  0.1190  0.0551
   23BDD     S2 5898  10.892   9.306   7.988 -0.3630  0.2567  0.0054
   23BDD    C10 5899  10.923   9.396   8.141 -0.3238  0.2489  0.0021
   23BDD    C11 5900  10.811   9.496   8.186 -0.3926 -0.4921  0.2569
   23BDD    C12 5901  10.666   9.437   8.205  0.3886  0.4069  0.4878
   23BDD    C13 5902  10.668   9.301   8.284  0.4754 -0.9959 -0.1761
   23BDD    C14 5903  10.539   9.215   8.313 -0.7716  0.0931  1.1603
   23BDD    C15 5904  10.495   9.124   8.188  0.0347 -0.7005 -0.7718
   23BDD    C16 5905  10.423   9.206   8.075 -0.2964 -0.6747 -0.8227
   23BDD    C17 5906  10.542   9.542   8.216 -1.3290  0.9511  0.2127
   23BDD    C18 5907  10.540   9.660   8.312 -0.1155 -0.8628  0.1201
   23BDD    C19 5908  11.104   9.136   7.902 -0.9550 -0.4280 -0.1506
   23BDD    C20 5909  11.037   8.996   7.873  1.1994 -0.2997 -0.9504
   23BDD    C21 5910  10.887   9.005   7.820  0.4280  0.0188 -1.1926
   23BDD    C22 5911  10.796   8.891   7.774  0.3677 -1.0938 -0.3430
   23BDD    C23 5912  10.849   8.786   7.673  1.0520 -0.6285  0.2344
   23BDD    C24 5913  10.727   8.766   7.581  0.2995  1.1493  0.1624
   23BDD    C25 5914  11.046   8.890   7.988  0.4510  0.0389  0.6498
   23BDD    C26 5915  11.184   8.823   7.997 -0.2184 -0.5646  0.0380
   24TPM     C1 5916  11.535   9.159   8.298  0.2364 -0.0711  0.3839
   24TPM     C2 5917  11.602   9.147   8.180 -0.3288 -0.4904  0.0980
   24TPM     C3 5918  11.683   9.028   8.171 -0.6264 -0.6886 -0.0057
   24TPM     C4 5919  11.678   8.950   8.283 -0.2882 -0.4210  0.2009
   24TPM     S1 5920  11.570   9.020   8.408  0.4381  0.1065  0.5456
   25BDTP    C1 5921  11.910   8.370   8.302  0.8061  0.1304  0.4230
   25BDTP    C2 5922  11.851   8.382   8.432  0.2171 -0.0944  0.1826
   25BDTP    C3 5923  11.788   8.498   8.475 -0.0130 -0.1824  0.0851
   25BDTP    C4 5924  11.782   8.607   8.387  0.3541 -0.0424  0.2306
   25BDTP    C5 5925  11.841   8.595   8.257  0.9431  0.1822  0.4711
   25BDTP    C6 5926  11.904   8.480   8.214  1.1732  0.2702  0.5684
   25BDTP    C7 5927  11.722   8.737   8.409  0.2137 -0.0967  0.1695
   25BDTP    C8 5928  11.733   8.822   8.304  0.6630  0.0749  0.3495
   25BDTP    S1 5929  11.820   8.750   8.162  1.3272  0.3285  0.6223
   25BDTP    C9 5930  11.970   8.240   8.280  0.9465  0.1845  0.4845
   25BDTP   C10 5931  11.959   8.155   8.384  0.4971  0.0131  0.3042
   25BDTP    S2 5932  11.871   8.228   8.526 -0.1670 -0.2405  0.0316
   26FTM     S1 5933  11.708   8.597   8.751 -0.1814  0.1623  0.4019
   26FTM     C1 5934  11.578   8.490   8.816 -0.1886  0.2692  0.5646
   26FTM     C2 5935  11.544   8.396   8.724 -0.3435  0.2620  0.6268
   26FTM     C3 5936  11.616   8.401   8.600 -0.4631  0.1750  0.5534
   26FTM     C4 5937  11.708   8.502   8.597 -0.3976  0.1136  0.4309
   26FTM     F1 5938  11.446   8.300   8.746 -0.3862  0.3338  0.7541
   26FTM     C5 5939  11.534   8.514   8.955  0.2643  0.5811 -0.4248
   26FTM     C6 5940  11.405   8.598   8.990  0.0847 -0.2392 -1.2568
   26FTM     C7 5941  11.355   8.561   9.138  0.7312  1.6775  0.9375
   26FTM     C8 5942  11.347   8.396   9.181  0.9959 -0.7858  0.2328
   26FTM     C9 5943  11.447   8.321   9.261  0.3932  1.0196  0.0578
   26FTM    C10 5944  11.376   8.254   9.373  1.4678 -0.9839  0.7862
   26FTM    C11 5945  11.380   8.739   8.933  0.7040  1.3723  0.1994
   26FTM    C12 5946  11.234   8.789   8.920 -0.1757  0.3794 -0.0351
   27FTM     S1 5947  12.116   8.576   8.057  0.2007  0.0920 -0.2517
   27FTM     C1 5948  12.118   8.532   7.882  0.4718 -0.3408 -0.1429
   27FTM     C2 5949  12.012   8.452   7.853  0.4334 -0.2904 -0.1413
   27FTM     C3 5950  11.924   8.421   7.962  0.1966  0.0787 -0.2226
   27FTM     C4 5951  11.965   8.479   8.079  0.0489  0.3193 -0.2884
   27FTM     F1 5952  11.987   8.403   7.726  0.6103 -0.5758 -0.0660
   27FTM     C5 5953  12.223   8.591   7.796  1.5131 -0.6712 -0.3783
   27FTM     C6 5954  12.308   8.553   7.687  0.0072 -0.1524 -1.0630
   27FTM     C7 5955  12.241   8.518   7.557  0.4570 -0.9466 -1.5270
   27FTM     C8 5956  12.253   8.629   7.444 -0.9358  0.5443  0.1705
   27FTM     C9 5957  12.286   8.779   7.494  0.1539  1.5338 -0.7178
   27FTM    C10 5958  12.310   8.876   7.373  0.1162  1.3822  0.6815
   27FTM    C11 5959  12.441   8.485   7.712 -1.2574 -0.3692  0.5617
   27FTM    C12 5960  12.440   8.339   7.754 -0.3367 -0.0362 -0.4861
   28TPM     C1 5961  11.953   8.012   8.367  0.0156 -0.0616  0.0521
   28TPM     C2 5962  11.905   7.907   8.439  0.2302 -0.2307 -0.0494
   28TPM     C3 5963  11.928   7.779   8.377  0.5287 -0.1281 -0.1526
   28TPM     C4 5964  11.994   7.787   8.258  0.5417  0.1190 -0.1299
   28TPM     S1 5965  12.032   7.958   8.214  0.1751  0.2423  0.0249
   29BDD     C1 5966  12.097   7.441   8.112  0.1756  0.0893 -0.0057
   29BDD     C2 5967  12.021   7.498   8.014  0.1611  0.1034  0.0136
   29BDD     C3 5968  11.973   7.630   8.048  0.3084  0.1684 -0.0298
   29BDD     C4 5969  12.013   7.673   8.172  0.4331  0.2030 -0.0817
   29BDD     S1 5970  12.114   7.549   8.254  0.3748  0.1564 -0.0796
   29BDD     C5 5971  11.990   7.432   7.885  0.0112  0.0576  0.0726
   29BDD     C6 5972  11.889   7.711   7.957  0.3200  0.1936 -0.0182
   29BDD     O1 5973  11.848   7.825   7.986  0.4471  0.2495 -0.0557
   29BDD     O2 5974  12.031   7.318   7.855 -0.1159  0.0015  0.1100
   29BDD     C7 5975  11.858   7.645   7.828  0.1701  0.1479  0.0409
   29BDD     C8 5976  11.906   7.513   7.794  0.0228  0.0830  0.0843
   29BDD     C9 5977  11.866   7.471   7.670 -0.1019  0.0486  0.1361
   29BDD     S2 5978  11.765   7.594   7.587 -0.0436  0.0951  0.1342
   29BDD    C10 5979  11.782   7.703   7.729  0.1556  0.1621  0.0603
   29BDD    C11 5980  11.716   7.846   7.712 -0.2607  0.1856  0.6368
   29BDD    C12 5981  11.813   7.952   7.641 -0.7638  1.4553  0.4203
   29BDD    C13 5982  11.783   8.081   7.567  0.5495 -0.2012  0.0494
   29BDD    C14 5983  11.707   8.093   7.440  0.2314  0.7980 -1.0682
   29BDD    C15 5984  11.704   8.005   7.305  0.6137 -0.0350 -1.5561
   29BDD    C16 5985  11.840   7.999   7.235 -1.3318 -0.2707  0.1915
   29BDD    C17 5986  11.961   7.963   7.687  0.2384  0.6905 -0.5936
   29BDD    C18 5987  12.090   7.928   7.596  0.4623  0.3248 -0.0510
   29BDD    C19 5988  11.912   7.369   7.574 -1.9608 -0.0129  0.8271
   29BDD    C20 5989  11.816   7.314   7.468 -0.6811  0.1823  0.7889
   29BDD    C21 5990  11.881   7.293   7.320  1.1391  0.4519  0.2720
   29BDD    C22 5991  11.877   7.409   7.220 -1.6536 -0.0224  0.4955
   29BDD    C23 5992  11.976   7.530   7.254 -0.5144  1.4199  0.0288
   29BDD    C24 5993  12.099   7.530   7.166  0.5648 -0.7960  0.5143
   29BDD    C25 5994  11.709   7.197   7.487  0.1074 -0.9474 -0.8196
   29BDD    C26 5995  11.773   7.056   7.519 -0.3709  0.7222 -0.0651
   30TPM     C1 5996  12.141   7.293   8.135  0.2841 -0.1364  0.1894
   30TPM     C2 5997  12.273   7.259   8.146  0.3990  0.0652 -0.4747
   30TPM     C3 5998  12.299   7.119   8.122  0.5663  0.1940 -1.0781
   30TPM     C4 5999  12.187   7.047   8.093  0.5789  0.0903 -0.8741
   30TPM     S1 6000  12.039   7.151   8.094  0.3789 -0.1796  0.1037
   31BDTP    C1 6001  12.137   6.458   7.893  0.0076  0.3518 -0.4445
   31BDTP    C2 6002  12.001   6.501   7.894 -0.0451  0.1822 -0.1904
   31BDTP    C3 6003  11.962   6.627   7.936 -0.1498  0.0601  0.0896
   31BDTP    C4 6004  12.062   6.717   7.978 -0.2052  0.1074  0.1211
   31BDTP    C5 6005  12.198   6.674   7.977 -0.1524  0.2770 -0.1329
   31BDTP    C6 6006  12.237   6.548   7.936 -0.0478  0.3987 -0.4129
   31BDTP    C7 6007  12.046   6.853   8.026 -0.3138  0.0030  0.3888
   31BDTP    C8 6008  12.162   6.914   8.060 -0.3448  0.0852  0.3481
   31BDTP    S1 6009  12.307   6.807   8.037 -0.2408  0.3060 -0.0346
   31BDTP    C9 6010  12.153   6.322   7.846  0.1162  0.4560 -0.7118
   31BDTP   C10 6011  12.037   6.261   7.812  0.1473  0.3740 -0.6711
   31BDTP    S2 6012  11.891   6.367   7.835  0.0432  0.1531 -0.2887
   32FTM     S1 6013  11.701   6.590   8.054  0.3547 -0.4191 -0.4321
   32FTM     C1 6014  11.565   6.632   7.944  0.4679 -0.2216 -0.4968
   32FTM     C2 6015  11.612   6.697   7.834  0.4934  0.8210  0.0967
   32FTM     C3 6016  11.754   6.716   7.829  0.4281  1.5126  0.6250
   32FTM     C4 6017  11.817   6.665   7.939  0.3500  0.9827  0.4295
   32FTM     F1 6018  11.530   6.741   7.732  0.5774  1.2106  0.1968
   32FTM     C5 6019  11.430   6.616   7.998  0.5352  0.9314 -0.0436
   32FTM     C6 6020  11.344   6.499   7.937  0.0038 -0.0097  0.1928
   32FTM     C7 6021  11.422   6.391   7.853  0.3683 -0.6606  0.1425
   32FTM     C8 6022  11.422   6.394   7.703 -0.5377 -0.6530 -1.4421
   32FTM     C9 6023  11.505   6.282   7.647  0.5900  0.5685  1.3242
   32FTM    C10 6024  11.492   6.130   7.696 -0.1750 -0.0405 -0.6814
   32FTM    C11 6025  11.238   6.458   8.036  0.1082 -0.8291 -0.0190
   32FTM    C12 6026  11.134   6.350   8.009 -0.3175 -0.2352 -0.2418
   33FTM     S1 6027  12.434   6.442   7.764 -0.0521  0.2272  0.1683
   33FTM     C1 6028  12.605   6.470   7.813 -0.1151 -0.2373  0.6724
   33FTM     C2 6029  12.608   6.543   7.928 -0.2580 -0.2701  0.6979
   33FTM     C3 6030  12.481   6.580   7.984 -0.3255  0.0560  0.3357
   33FTM     C4 6031  12.377   6.534   7.909 -0.2313  0.3480  0.0227
   33FTM     F1 6032  12.727   6.580   7.990 -0.3361 -0.5975  1.0507
   33FTM     C5 6033  12.729   6.420   7.734  0.9323 -0.1684 -0.6229
   33FTM     C6 6034  12.800   6.303   7.820  0.9986 -0.3429  0.3958
   33FTM     C7 6035  12.950   6.327   7.833 -0.2568 -1.0518  0.0875
   33FTM     C8 6036  12.992   6.406   7.959  1.4245  0.0333  0.0291
   33FTM     C9 6037  13.107   6.505   7.961  1.2221 -0.0460  0.4201
   33FTM    C10 6038  13.050   6.653   7.960  0.5016  0.6190 -0.6869
   33FTM    C11 6039  12.761   6.157   7.781  0.6698  0.1774  0.6397
   33FTM    C12 6040  12.630   6.110   7.836 -0.4022  0.4071 -0.5114
   34TPM     C1 6041  12.020   6.125   7.765  1.4632  0.5163 -1.0053
   34TPM     C2 6042  11.933   6.090   7.666  1.8582  0.6440 -1.4036
   34TPM     C3 6043  11.945   5.952   7.625  1.0109  0.2706 -0.4658
   34TPM     C4 6044  12.040   5.882   7.693 -0.0303 -0.1419  0.6476
   34TPM     S1 6045  12.124   5.986   7.815 -0.0212 -0.0902  0.5975
   35BDD     C1 6046  12.057   5.503   7.802  0.0457 -0.2011  0.0312
   35BDD     C2 6047  12.027   5.497   7.669 -0.0735 -0.1371  0.0545
   35BDD     C3 6048  12.014   5.628   7.608 -0.2858 -0.1074  0.1632
   35BDD     C4 6049  12.033   5.731   7.695 -0.3254 -0.1493  0.2212
   35BDD     S1 6050  12.069   5.672   7.860 -0.0997 -0.2286  0.1436
   35BDD     C5 6051  12.011   5.372   7.593  0.0035 -0.1010 -0.0224
   35BDD     C6 6052  11.982   5.646   7.464 -0.4417 -0.0387  0.2054
   35BDD     O1 6053  11.970   5.759   7.411 -0.6247 -0.0131  0.2991
   35BDD     O2 6054  12.023   5.259   7.646  0.1865 -0.1266 -0.1161
   35BDD     C7 6055  11.966   5.520   7.388 -0.3647 -0.0026  0.1286
   35BDD     C8 6056  11.979   5.390   7.450 -0.1524 -0.0323  0.0199
   35BDD     C9 6057  11.960   5.286   7.362 -0.1128  0.0094 -0.0381
   35BDD     S2 6058  11.924   5.346   7.197 -0.3385  0.0888  0.0394
   35BDD    C10 6059  11.936   5.515   7.255 -0.4839  0.0613  0.1519
   35BDD    C11 6060  11.898   5.595   7.136  0.0239 -0.6630  2.1748
   35BDD    C12 6061  11.804   5.714   7.127  1.1471  0.1727  0.5952
   35BDD    C13 6062  11.665   5.726   7.201  0.5640 -0.2656  0.6859
   35BDD    C14 6063  11.528   5.671   7.140 -0.4849  0.5600 -0.3745
   35BDD    C15 6064  11.506   5.523   7.130  0.5604  0.8706 -0.9395
   35BDD    C16 6065  11.375   5.508   7.062 -0.5468 -1.2967 -1.7334
   35BDD    C17 6066  11.808   5.816   7.012 -1.3683 -0.3814 -0.8661
   35BDD    C18 6067  11.950   5.879   6.975  0.2571  0.4025  1.5706
   35BDD    C19 6068  11.948   5.131   7.398  0.3614 -0.7934 -1.1217
   35BDD    C20 6069  11.803   5.082   7.375 -0.7379 -0.8706 -0.3902
   35BDD    C21 6070  11.695   5.125   7.488  0.2665  0.3909  0.5665
   35BDD    C22 6071  11.556   5.063   7.467 -0.7318  0.0453  0.2852
   35BDD    C23 6072  11.462   5.093   7.350 -0.1138  0.0348 -0.9524
   35BDD    C24 6073  11.335   5.181   7.378  0.1174  0.4021  0.1652
   35BDD    C25 6074  11.793   4.935   7.332 -0.4996  0.4020 -0.9711
   35BDD    C26 6075  11.817   4.919   7.182  1.0749  0.4681  0.1475
   36TPM     C1 6076  12.051   5.400   7.900 -0.4265 -0.0759  0.0352
   36TPM     C2 6077  11.960   5.408   8.002 -0.4535 -0.3877  0.0379
   36TPM     C3 6078  11.969   5.299   8.096 -0.2801 -0.5198 -0.1285
   36TPM     C4 6079  12.066   5.208   8.066 -0.1209 -0.3086 -0.2589
   36TPM     S1 6080  12.155   5.253   7.916 -0.1780  0.0766 -0.1796
   37BDTP    C1 6081  12.190   4.623   8.272 -0.4451  0.0254 -0.2112
   37BDTP    C2 6082  12.228   4.617   8.135 -0.0874  0.3325 -0.1292
   37BDTP    C3 6083  12.221   4.728   8.051  0.1044  0.5136  0.0913
   37BDTP    C4 6084  12.175   4.849   8.105 -0.0640  0.3860  0.2375
   37BDTP    C5 6085  12.138   4.855   8.242 -0.4218  0.0789  0.1552
   37BDTP    C6 6086  12.144   4.744   8.326 -0.6136 -0.1021 -0.0649
   37BDTP    C7 6087  12.160   4.977   8.037  0.0807  0.5293  0.4721
   37BDTP    C8 6088  12.113   5.076   8.117 -0.1483  0.3465  0.5686
   37BDTP    S1 6089  12.082   5.022   8.288 -0.5793 -0.0323  0.3762
   37BDTP    C9 6090  12.206   4.495   8.339 -0.5898 -0.1178 -0.4458
   37BDTP   C10 6091  12.253   4.396   8.260 -0.3610  0.0650 -0.5424
   37BDTP    S2 6092  12.283   4.450   8.089  0.0701  0.4437 -0.3499
   38FTM     S1 6093  12.224   4.824   7.764  0.1219  0.0862  0.0897
   38FTM     C1 6094  12.382   4.801   7.681  0.1012 -0.6527  0.2464
   38FTM     C2 6095  12.467   4.733   7.762 -0.0001 -0.2594  0.6926
   38FTM     C3 6096  12.416   4.695   7.891 -0.0662  0.6194  0.9340
   38FTM     C4 6097  12.287   4.736   7.908 -0.0138  0.9083  0.6639
   38FTM     F1 6098  12.596   4.700   7.725 -0.0391 -0.6719  0.9087
   38FTM     C5 6099  12.429   4.858   7.539  0.0733  0.9105  0.0082
   38FTM     C6 6100  12.426   5.012   7.501 -0.9299  0.6490 -0.1763
   38FTM     C7 6101  12.568   5.073   7.502 -0.4683  0.0363  0.3112
   38FTM     C8 6102  12.575   5.194   7.599  0.2442  0.7515 -0.0844
   38FTM     C9 6103  12.703   5.186   7.685 -0.4513 -0.7741  0.5928
   38FTM    C10 6104  12.689   5.296   7.782 -0.0973  1.0665 -0.1969
   38FTM    C11 6105  12.306   5.091   7.471  0.6383  0.7426 -0.2840
   38FTM    C12 6106  12.296   5.134   7.324  0.8681  0.4737  0.4127
   39FTM     S1 6107  12.215   4.881   8.583  0.0011  0.4945 -0.3980
   39FTM     C1 6108  12.083   4.873   8.706  0.2609  0.7230 -0.1011
   39FTM     C2 6109  11.982   4.794   8.660  0.2095  0.5485  0.3049
   39FTM     C3 6110  12.000   4.737   8.530 -0.0293  0.2342  0.4072
   39FTM     C4 6111  12.119   4.773   8.474 -0.1652  0.1657  0.0689
   39FTM     F1 6112  11.867   4.769   8.733  0.3756  0.6632  0.6075
   39FTM     C5 6113  12.085   4.931   8.840  0.5484 -0.7945  0.3258
   39FTM     C6 6114  12.098   5.089   8.836  0.2506 -1.2076 -1.2837
   39FTM     C7 6115  12.194   5.177   8.935  0.7824  0.7951  0.2243
   39FTM     C8 6116  12.178   5.130   9.087  0.3552 -1.2462  0.4073
   39FTM     C9 6117  12.051   5.199   9.149 -1.0329 -0.4610  1.0870
   39FTM    C10 6118  11.933   5.116   9.202 -0.7160  0.0479  0.3092
   39FTM    C11 6119  12.070   5.170   8.722  0.4499  1.7910  0.8876
   39FTM    C12 6120  11.955   5.271   8.701 -0.3087 -1.6621 -1.0060
   40TPM     C1 6121  12.294   4.251   8.300 -0.0984 -0.7973 -0.6814
   40TPM     C2 6122  12.373   4.168   8.227  0.4910 -0.9664  0.1140
   40TPM     C3 6123  12.415   4.049   8.297  0.7739 -0.3408  1.0364
   40TPM     C4 6124  12.367   4.042   8.425  0.4002  0.3054  0.9442
   40TPM     S1 6125  12.265   4.185   8.466 -0.3437  0.1728 -0.3245
   41BDD     C1 6126  12.481   3.721   8.635  0.1199 -0.1559 -0.2443
   41BDD     C2 6127  12.580   3.815   8.651  0.0284 -0.0538 -0.2742
   41BDD     C3 6128  12.553   3.940   8.582 -0.1792 -0.0378 -0.1683
   41BDD     C4 6129  12.435   3.939   8.513 -0.2430 -0.1278 -0.0585
   41BDD     S1 6130  12.349   3.783   8.531 -0.0476 -0.2388 -0.0811
   41BDD     C5 6131  12.702   3.793   8.732  0.1284  0.0327 -0.4017
   41BDD     C6 6132  12.646   4.054   8.586 -0.3068  0.0663 -0.1793
   41BDD     O1 6133  12.623   4.162   8.526 -0.4858  0.0801 -0.0880
   41BDD     O2 6134  12.725   3.686   8.792  0.3074  0.0188 -0.4933
   41BDD     C7 6135  12.768   4.033   8.666 -0.2067  0.1527 -0.3071
   41BDD     C8 6136  12.795   3.908   8.736  0.0009  0.1367 -0.4132
   41BDD     C9 6137  12.913   3.908   8.805  0.0647  0.2268 -0.5231
   41BDD     S2 6138  12.999   4.065   8.787 -0.1308  0.3378 -0.5005
   41BDD    C10 6139  12.866   4.126   8.683 -0.2982  0.2548 -0.3376
   41BDD    C11 6140  12.845   4.273   8.670 -1.2643 -0.0936  0.2192
   41BDD    C12 6141  12.959   4.353   8.598  0.8055  0.6463  0.0827
   41BDD    C13 6142  13.090   4.371   8.678 -0.1424 -1.5115 -1.0350
   41BDD    C14 6143  13.112   4.461   8.805  1.4307  0.4180  0.1445
   41BDD    C15 6144  13.130   4.397   8.944 -0.7259 -0.9579  0.5724
   41BDD    C16 6145  13.151   4.489   9.049 -0.0807 -0.1623 -0.3107
   41BDD    C17 6146  13.032   4.301   8.470  0.2225 -0.3341  1.4677
   41BDD    C18 6147  12.964   4.293   8.332 -0.9567 -0.5861  1.0656
   41BDD    C19 6148  12.973   3.812   8.897 -0.6414  0.2369  0.7842
   41BDD    C20 6149  13.034   3.848   9.035 -0.4901  0.3463  0.5782
   41BDD    C21 6150  12.953   3.957   9.097  1.4110 -0.0634 -0.7660
   41BDD    C22 6151  12.976   3.962   9.256 -0.0093  0.4740  0.8697
   41BDD    C23 6152  12.924   4.108   9.268 -0.8479 -0.5284 -0.0635
   41BDD    C24 6153  12.846   4.145   9.399 -1.0190  0.2078  0.7180
   41BDD    C25 6154  13.177   3.822   9.068 -0.8503  1.2541  0.4612
   41BDD    C26 6155  13.245   3.686   8.998 -0.0966 -0.2665  0.2435
   42TPM     C1 6156  12.443   3.593   8.697 -0.9127 -0.3286  0.2384
   42TPM     C2 6157  12.326   3.584   8.767 -1.0070 -1.3545 -0.0196
   42TPM     C3 6158  12.319   3.469   8.854 -0.5470 -1.8812 -0.6623
   42TPM     C4 6159  12.430   3.390   8.850 -0.1019 -1.2570 -0.8945
   42TPM     S1 6160  12.554   3.456   8.736 -0.2302  0.0547 -0.3154
   43BDTP    C1 6161  12.379   2.831   9.137  0.1478 -0.2210 -0.3123
   43BDTP    C2 6162  12.379   2.796   8.999  0.1727 -0.1855 -0.3209
   43BDTP    C3 6163  12.398   2.890   8.898  0.0408 -0.1361 -0.2997
   43BDTP    C4 6164  12.417   3.024   8.935 -0.1235 -0.1208 -0.2685
   43BDTP    C5 6165  12.417   3.059   9.073 -0.1485 -0.1563 -0.2599
   43BDTP    C6 6166  12.398   2.965   9.174 -0.0166 -0.2057 -0.2808
   43BDTP    C7 6167  12.439   3.138   8.848 -0.2796 -0.0717 -0.2425
   43BDTP    C8 6168  12.454   3.256   8.914 -0.4188 -0.0685 -0.2151
   43BDTP    S1 6169  12.444   3.238   9.095 -0.3717 -0.1274 -0.2182
   43BDTP    C9 6170  12.358   2.716   9.223  0.3039 -0.2701 -0.3381
   43BDTP   C10 6171  12.342   2.599   9.158  0.4431 -0.2732 -0.3657
   43BDTP    S2 6172  12.353   2.617   8.977  0.3960 -0.2144 -0.3622
   44FTM     S1 6173  12.428   2.930   8.602  0.1950  0.0575  0.0691
   44FTM     C1 6174  12.502   2.795   8.508  0.1319 -0.1947  0.3771
   44FTM     C2 6175  12.530   2.691   8.591 -0.1180 -0.1037  0.5798
   44FTM     C3 6176  12.497   2.709   8.729 -0.2718  0.1611  0.5093
   44FTM     C4 6177  12.441   2.831   8.753 -0.1353  0.2768  0.2442
   44FTM     F1 6178  12.588   2.573   8.546 -0.2222 -0.2549  0.8409
   44FTM     C5 6179  12.523   2.842   8.365  0.0295 -0.0077  0.5023
   44FTM     C6 6180  12.659   2.847   8.287 -0.3605 -0.9325 -0.4681
   44FTM     C7 6181  12.777   2.844   8.384  1.0003 -1.5653 -0.1195
   44FTM     C8 6182  12.910   2.845   8.319 -0.7753  0.3687 -0.4277
   44FTM     C9 6183  12.954   2.718   8.232  1.1397  0.0084  0.4772
   44FTM    C10 6184  12.971   2.579   8.291 -0.8743 -1.2460  0.4557
   44FTM    C11 6185  12.653   2.916   8.158  0.5009 -0.4809 -0.6240
   44FTM    C12 6186  12.616   2.818   8.037 -0.9810  0.4319 -0.3480
   45FTM     S1 6187  12.249   2.930   9.419 -0.0338  0.0815  0.0334
   45FTM     C1 6188  12.287   3.039   9.557  0.1597 -0.3162  0.2988
   45FTM     C2 6189  12.386   3.125   9.522  0.3726 -0.4619  0.5364
   45FTM     C3 6190  12.437   3.112   9.389  0.3976 -0.2776  0.5274
   45FTM     C4 6191  12.375   3.012   9.320  0.1973  0.0188  0.2742
   45FTM     F1 6192  12.436   3.221   9.609  0.5574 -0.7708  0.7768
   45FTM     C5 6193  12.203   3.039   9.697 -0.1508  1.1506 -0.3814
   45FTM     C6 6194  12.095   3.148   9.693  1.1052  1.0285  0.0272
   45FTM     C7 6195  12.061   3.244   9.798 -0.8793  0.3208 -0.2626
   45FTM     C8 6196  12.166   3.358   9.824  0.3961 -1.1604 -0.7435
   45FTM     C9 6197  12.210   3.465   9.730  0.5970  0.0376  1.7284
   45FTM    C10 6198  12.097   3.508   9.648  0.7928 -0.7683  0.0121
   45FTM    C11 6199  11.977   3.110   9.599  0.2858  0.7519  0.7266
   45FTM    C12 6200  11.855   3.187   9.551 -1.0925 -0.7663 -0.4462
   46TPM     C1 6201  12.309   2.456   9.192  0.3803  0.1747 -0.2449
   46TPM     C2 6202  12.343   2.397   9.310  0.2913 -0.0209 -0.3159
   46TPM     C3 6203  12.324   2.255   9.311 -0.3202  0.0555 -0.3505
   46TPM     C4 6204  12.276   2.205   9.194 -0.6976  0.3095 -0.3060
   46TPM     S1 6205  12.250   2.335   9.072 -0.3067  0.4730 -0.2159
   47BDD     C1 6206  12.141   1.832   9.229  0.1094 -0.3204  0.1948
   47BDD     C2 6207  12.227   1.832   9.123  0.0658 -0.1634  0.1588
   47BDD     C3 6208  12.282   1.963   9.093  0.0197 -0.1110  0.3023
   47BDD     C4 6209  12.237   2.061   9.177  0.0290 -0.2289  0.4459
   47BDD     S1 6210  12.123   1.996   9.299  0.0959 -0.4136  0.4110
   47BDD     C5 6211  12.262   1.711   9.045  0.0648 -0.0557 -0.0091
   47BDD     C6 6212  12.378   1.986   8.982 -0.0317  0.0541  0.2921
   47BDD     O1 6213  12.425   2.099   8.957 -0.0714  0.0992  0.4158
   47BDD     O2 6214  12.215   1.598   9.070  0.1045 -0.1008 -0.1330
   47BDD     C7 6215  12.412   1.865   8.904 -0.0327  0.1618  0.1242
   47BDD     C8 6216  12.357   1.734   8.934  0.0133  0.1094 -0.0193
   47BDD     C9 6217  12.402   1.636   8.850  0.0041  0.2273 -0.1631
   47BDD     S2 6218  12.517   1.701   8.728 -0.0629  0.4120 -0.1281
   47BDD    C10 6219  12.499   1.865   8.798 -0.0764  0.3189  0.0880
   47BDD    C11 6220  12.591   1.957   8.726 -0.8239 -1.0942  1.3003
   47BDD    C12 6221  12.733   2.035   8.747  1.2622 -0.0169 -1.1781
   47BDD    C13 6222  12.792   1.992   8.889 -0.8324  0.6214 -0.1391
   47BDD    C14 6223  12.945   1.987   8.931  0.9051  0.0295  1.1790
   47BDD    C15 6224  12.972   1.923   9.064 -1.2920 -1.6684  0.3262
   47BDD    C16 6225  12.936   1.783   9.087  0.4311  0.5575 -0.2600
   47BDD    C17 6226  12.805   2.144   8.671  1.3344 -0.1203  1.1775
   47BDD    C18 6227  12.851   2.113   8.521  0.1627  2.2881  0.2365
   47BDD    C19 6228  12.378   1.478   8.848  0.4412 -0.5693  0.1279
   47BDD    C20 6229  12.276   1.418   8.729 -1.5978 -0.2418 -1.8726
   47BDD    C21 6230  12.306   1.276   8.689  1.0025  0.8463 -0.8067
   47BDD    C22 6231  12.385   1.178   8.769  1.0437  1.1370 -0.2880
   47BDD    C23 6232  12.316   1.079   8.864 -0.0933 -0.3509 -0.1468
   47BDD    C24 6233  12.314   1.115   9.010  1.4047 -0.1740  0.0432
   47BDD    C25 6234  12.153   1.473   8.699  1.2688  0.1376  0.5301
   47BDD    C26 6235  12.052   1.566   8.782 -0.5332 -1.2213  0.4469
   48TPM     C1 6236  12.069   1.734   9.305 -0.0552 -0.5874  0.7425
   48TPM     C2 6237  11.937   1.700   9.302 -0.0133 -0.8051  1.2596
   48TPM     C3 6238  11.902   1.596   9.395  0.5427 -0.9391  1.3242
   48TPM     C4 6239  12.007   1.550   9.469  0.9248 -0.8236  0.8565
   48TPM     S1 6240  12.160   1.636   9.425  0.6095 -0.5345  0.2938
   49BDTP    C1 6241  12.004   1.107   9.912 -0.4043  0.0713  0.3083
   49BDTP    C2 6242  11.884   1.177   9.941 -0.5186 -0.0393  0.1070
   49BDTP    C3 6243  11.840   1.285   9.865 -0.5066 -0.0972  0.0169
   49BDTP    C4 6244  11.919   1.326   9.756 -0.3759 -0.0436  0.1304
   49BDTP    C5 6245  12.039   1.256   9.727 -0.2616  0.0670  0.3314
   49BDTP    C6 6246  12.083   1.148   9.802 -0.2736  0.1249  0.4216
   49BDTP    C7 6247  11.894   1.435   9.664 -0.3383 -0.0867  0.0694
   49BDTP    C8 6248  11.988   1.449   9.568 -0.2031 -0.0147  0.2134
   49BDTP    S1 6249  12.122   1.327   9.581 -0.1044  0.1178  0.4461
   49BDTP    C9 6250  12.029   0.998  10.004 -0.4418  0.1144  0.3691
   49BDTP   C10 6251  11.934   0.984  10.100 -0.5770  0.0424  0.2253
   49BDTP    S2 6252  11.800   1.106  10.086 -0.6758 -0.0901 -0.0076
   50FTM     S1 6253  11.565   1.347   9.792 -0.2978 -0.0877  0.1273
   50FTM     C1 6254  11.509   1.500   9.869  0.2811  0.3112 -0.2202
   50FTM     C2 6255  11.601   1.543   9.959  0.6364  0.3978 -0.6168
   50FTM     C3 6256  11.718   1.462   9.974  0.4839  0.1649 -0.6731
   50FTM     C4 6257  11.716   1.353   9.892 -0.0042 -0.1091 -0.3079
   50FTM     F1 6258  11.584   1.658  10.035  1.1209  0.6932 -0.9520
   50FTM     C5 6259  11.372   1.547   9.808  0.4332 -0.2542  0.5114
   50FTM     C6 6260  11.238   1.447   9.813 -0.0157 -1.6778 -0.6233
   50FTM     C7 6261  11.170   1.419   9.683 -1.4157  0.0075  0.5617
   50FTM     C8 6262  11.208   1.314   9.576  0.7726  0.0263 -0.3704
   50FTM     C9 6263  11.094   1.289   9.472  1.0907  0.5489 -0.0664
   50FTM    C10 6264  11.152   1.207   9.353  0.6946  0.5518  1.4989
   50FTM    C11 6265  11.253   1.344   9.920 -0.2274 -0.4875 -0.9182
   50FTM    C12 6266  11.195   1.397  10.063 -1.1241  0.5677  1.2532
   51FTM     S1 6267  12.344   1.247   9.801 -0.0089 -0.2722  0.0313
   51FTM     C1 6268  12.474   1.125   9.775  0.2294  0.0596 -0.3557
   51FTM     C2 6269  12.419   1.002   9.758  0.4665  0.0067 -0.7768
   51FTM     C3 6270  12.276   0.995   9.765  0.4771 -0.2879 -0.8237
   51FTM     C4 6271  12.220   1.117   9.787  0.2404 -0.4665 -0.4249
   51FTM     F1 6272  12.495   0.888   9.736  0.6880  0.2220 -1.1451
   51FTM     C5 6273  12.610   1.177   9.797  0.9150  0.1071  0.3543
   51FTM     C6 6274  12.709   1.186   9.678  1.0952 -0.3446 -0.7719
   51FTM     C7 6275  12.730   1.320   9.604  0.2621  0.2520 -0.0504
   51FTM     C8 6276  12.736   1.457   9.663  0.1106  0.0297  0.3733
   51FTM     C9 6277  12.624   1.575   9.669  0.3226  0.3161  1.1019
   51FTM    C10 6278  12.573   1.657   9.547 -0.8922  0.3104 -0.9424
   51FTM    C11 6279  12.771   1.066   9.622 -1.8284  0.2745 -0.7124
   51FTM    C12 6280  12.686   1.003   9.510 -1.0968 -0.3792 -0.0540
   52TPM     C1 6281  11.945   0.890  10.199 -0.1168 -0.4805 -0.2885
   52TPM     C2 6282  11.847   0.820  10.262  0.1852 -1.2957 -0.6986
   52TPM     C3 6283  11.896   0.736  10.369  0.4667 -1.0581 -0.6375
   52TPM     C4 6284  12.031   0.742  10.386  0.3794 -0.0617 -0.1815
   52TPM     S1 6285  12.107   0.856  10.268 -0.0686  0.6594  0.2099
   53BDD     C1 6286  12.234   0.716  10.711 -0.2144 -0.2412  0.4007
   53BDD     C2 6287  12.200   0.589  10.673 -0.1540 -0.2231  0.2856
   53BDD     C3 6288  12.110   0.585  10.559 -0.2605 -0.1590  0.3669
   53BDD     C4 6289  12.076   0.709  10.512 -0.4005 -0.1292  0.5427
   53BDD     S1 6290  12.155   0.839  10.607 -0.4087 -0.1794  0.6185
   53BDD     C5 6291  12.249   0.467  10.740  0.0038 -0.2639  0.0968
   53BDD     C6 6292  12.061   0.458  10.501 -0.2195 -0.1296  0.2670
   53BDD     O1 6293  11.983   0.455  10.403 -0.3113 -0.0744  0.3374
   53BDD     O2 6294  12.327   0.471  10.838  0.0956 -0.3192  0.0265
   53BDD     C7 6295  12.110   0.336  10.568 -0.0617 -0.1705  0.0782
   53BDD     C8 6296  12.200   0.341  10.682  0.0448 -0.2346 -0.0031
   53BDD     C9 6297  12.234   0.217  10.729  0.1848 -0.2643 -0.1788
   53BDD     S2 6298  12.155   0.086  10.634  0.1930 -0.2142 -0.2545
   53BDD    C10 6299  12.077   0.209  10.530 -0.0013 -0.1523 -0.0367
   53BDD    C11 6300  12.003   0.161  10.417  1.6781 -0.1400  1.6071
   53BDD    C12 6301  12.039   0.071  10.309 -1.9457  1.0174 -0.3738
   53BDD    C13 6302  12.169   0.115  10.233 -0.6441 -0.1740  0.7527
   53BDD    C14 6303  12.157   0.248  10.148 -0.6297  0.3617 -0.2705
   53BDD    C15 6304  12.132   0.245  10.002 -0.2981 -0.3602 -0.9102
   53BDD    C16 6305  12.220   0.159   9.907 -0.3421  0.6896 -0.8127
   53BDD    C17 6306  12.057  -0.081  10.327  0.1447  0.3938  0.7034
   53BDD    C18 6307  11.947  -0.184  10.345 -0.1928 -0.4536  0.3777
   53BDD    C19 6308  12.320   0.175  10.839 -0.7338 -0.6285  0.7658
   53BDD    C20 6309  12.462   0.163  10.832 -1.7875 -0.3824  0.7834
   53BDD    C21 6310  12.544   0.138  10.699  1.4130  0.4511  1.5454
   53BDD    C22 6311  12.593  -0.006  10.657  0.1228 -1.8165  2.6451
   53BDD    C23 6312  12.494  -0.111  10.646  0.0990 -1.2613  0.2924
   53BDD    C24 6313  12.524  -0.218  10.546 -0.7649 -0.1592 -0.6077
   53BDD    C25 6314  12.553   0.158  10.953  1.1222  0.4619 -1.6981
   53BDD    C26 6315  12.482   0.150  11.101 -1.1027 -0.7420 -0.0923
   54TPM     C1 6316  12.306   0.767  10.836  1.1475 -0.0749  0.1941
   54TPM     C2 6317  12.440   0.767  10.810  1.1513  0.1765  0.2050
   54TPM     C3 6318  12.511   0.879  10.866  0.9048  0.4155  0.0451
   54TPM     C4 6319  12.431   0.965  10.936  0.7131  0.3464 -0.0875
   54TPM     S1 6320  12.259   0.910  10.936  0.8299 -0.0289 -0.0205
   55BDTP    C1 6321  12.675   1.515  11.099  0.1663  0.0409  0.3486
   55BDTP    C2 6322  12.558   1.510  11.181  0.0119  0.3003  0.1495
   55BDTP    C3 6323  12.469   1.404  11.178 -0.2114  0.4905  0.0100
   55BDTP    C4 6324  12.495   1.298  11.089 -0.2865  0.4223  0.0691
   55BDTP    C5 6325  12.612   1.303  11.007 -0.1321  0.1630  0.2685
   55BDTP    C6 6326  12.701   1.409  11.010  0.0912 -0.0273  0.4077
   55BDTP    C7 6327  12.417   1.177  11.069 -0.5097  0.5858 -0.0488
   55BDTP    C8 6328  12.469   1.093  10.976 -0.5301  0.4633  0.0508
   55BDTP    S1 6329  12.623   1.154  10.902 -0.2695  0.1237  0.3083
   55BDTP    C9 6330  12.753   1.636  11.119  0.3895 -0.1226  0.4668
   55BDTP   C10 6331  12.701   1.720  11.212  0.4099 -0.0001  0.3669
   55BDTP    S2 6332  12.547   1.659  11.286  0.1493  0.3395  0.1095
   56FTM     S1 6333  12.187   1.413  11.199  0.2671 -0.0384 -0.2331
   56FTM     C1 6334  12.124   1.309  11.331 -0.0160  0.2805 -0.1127
   56FTM     C2 6335  12.226   1.267  11.410 -0.1732  0.3961  0.1564
   56FTM     C3 6336  12.357   1.313  11.373 -0.0851  0.2474  0.2825
   56FTM     C4 6337  12.354   1.392  11.262  0.1470  0.0102  0.1039
   56FTM     F1 6338  12.208   1.185  11.520 -0.4061  0.6435  0.3047
   56FTM     C5 6339  11.973   1.296  11.364 -0.3107  0.5704 -1.0417
   56FTM     C6 6340  11.936   1.151  11.423  0.2641  0.4767 -2.1012
   56FTM     C7 6341  11.989   1.017  11.375 -1.2041 -1.2133 -0.4030
   56FTM     C8 6342  11.955   0.897  11.458  0.9863  0.1171 -0.5097
   56FTM     C9 6343  12.051   0.827  11.562  0.9582 -1.4174  0.5010
   56FTM    C10 6344  12.177   0.746  11.518 -0.2446 -1.6507  0.6564
   56FTM    C11 6345  11.809   1.145  11.509  0.5584 -0.3342  0.3518
   56FTM    C12 6346  11.761   1.245  11.601  1.3953  0.4049  0.0849
   57FTM     S1 6347  12.967   1.313  10.928 -0.0129 -0.6872  0.0451
   57FTM     C1 6348  13.025   1.376  10.769 -0.0185 -0.8530 -0.0226
   57FTM     C2 6349  12.930   1.457  10.714  0.1561 -0.5651  0.0975
   57FTM     C3 6350  12.810   1.475  10.790  0.3013 -0.2066  0.2456
   57FTM     C4 6351  12.813   1.405  10.907  0.2357 -0.2206  0.2386
   57FTM     F1 6352  12.947   1.519  10.591  0.1949 -0.6090  0.0799
   57FTM     C5 6353  13.130   1.301  10.689 -0.1610 -0.5746 -0.1866
   57FTM     C6 6354  13.267   1.319  10.732 -0.5487 -0.2694  0.4943
   57FTM     C7 6355  13.320   1.464  10.692 -1.0577 -0.8376  0.1575
   57FTM     C8 6356  13.468   1.498  10.683 -0.3140  1.0566 -0.1307
   57FTM     C9 6357  13.547   1.563  10.802  0.4035  1.3142  0.6733
   57FTM    C10 6358  13.665   1.632  10.745 -1.1108  0.0536 -0.0196
   57FTM    C11 6359  13.346   1.190  10.745  0.0860  1.2814 -1.6317
   57FTM    C12 6360  13.475   1.188  10.826 -0.5842  0.4590  0.7222
   58TPM     C1 6361  12.764   1.836  11.268  0.6929 -1.2402 -0.1134
   58TPM     C2 6362  12.689   1.946  11.299 -0.1284 -1.8119 -0.0098
   58TPM     C3 6363  12.766   2.057  11.349 -1.0127 -1.4736  0.6561
   58TPM     C4 6364  12.900   2.032  11.357 -0.8656 -0.6439  1.0603
   58TPM     S1 6365  12.939   1.865  11.300  0.4110 -0.2223  0.6277
   59BDD     C1 6366  13.170   2.228  11.559  0.4575  0.2760 -0.4919
   59BDD     C2 6367  13.114   2.322  11.477  0.2773  0.2728 -0.3739
   59BDD     C3 6368  13.012   2.268  11.389  0.1799  0.2431 -0.2429
   59BDD     C4 6369  12.991   2.134  11.405  0.2872  0.2240 -0.2628
   59BDD     S1 6370  13.099   2.066  11.532  0.5176  0.2419 -0.4470
   59BDD     C5 6371  13.153   2.465  11.476  0.1881  0.2970 -0.3774
   59BDD     C6 6372  12.938   2.352  11.292 -0.0162  0.2346 -0.1025
   59BDD     O1 6373  12.850   2.305  11.216 -0.1002  0.2090  0.0105
   59BDD     O2 6374  13.241   2.511  11.551  0.2721  0.3226 -0.4904
   59BDD     C7 6375  12.977   2.494  11.291 -0.1054  0.2589 -0.1061
   59BDD     C8 6376  13.079   2.548  11.379 -0.0080  0.2887 -0.2371
   59BDD     C9 6377  13.099   2.683  11.362 -0.1154  0.3076 -0.2172
   59BDD     S2 6378  12.992   2.751  11.235 -0.3458  0.2897 -0.0330
   59BDD    C10 6379  12.921   2.588  11.209 -0.2857  0.2556  0.0119
   59BDD    C11 6380  12.840   2.615  11.080  0.5169 -0.5469 -0.4724
   59BDD    C12 6381  12.703   2.536  11.059  0.5553 -0.3160  0.1403
   59BDD    C13 6382  12.661   2.494  10.923  0.7327 -0.0432  0.8911
   59BDD    C14 6383  12.540   2.389  10.928  1.0401 -0.6450  0.9696
   59BDD    C15 6384  12.474   2.391  10.795 -0.4009 -2.6838  1.3280
   59BDD    C16 6385  12.379   2.288  10.778  0.1282  0.7708 -0.1571
   59BDD    C17 6386  12.605   2.593  11.159  0.1959 -0.3358  0.0750
   59BDD    C18 6387  12.560   2.748  11.127  0.3502  0.2118  0.3953
   59BDD    C19 6388  13.203   2.767  11.443  0.1704  0.2671  0.4932
   59BDD    C20 6389  13.167   2.884  11.536 -1.5479  0.9093  1.0683
   59BDD    C21 6390  13.301   2.954  11.569  0.6417 -0.1891 -0.0393
   59BDD    C22 6391  13.387   2.921  11.693  0.9570  0.2553  1.3243
   59BDD    C23 6392  13.518   2.997  11.745  0.3821 -0.6011  0.1330
   59BDD    C24 6393  13.527   3.151  11.746 -1.1064  0.0256  0.1294
   59BDD    C25 6394  13.088   2.837  11.666  0.9353  1.4457 -0.1447
   59BDD    C26 6395  13.043   2.928  11.781 -1.1401 -1.6923 -0.4508
   60TPM     C1 6396  13.245   2.237  11.688  0.4738 -0.5770  0.3380
   60TPM     C2 6397  13.364   2.303  11.688  0.5606 -0.7305  0.2923
   60TPM     C3 6398  13.441   2.283  11.807  0.3195 -0.3741  0.5147
   60TPM     C4 6399  13.382   2.200  11.898  0.0489  0.0512  0.7300
   60TPM     S1 6400  13.221   2.142  11.839  0.0777  0.0344  0.6681
    1BDTP    C1 6401   7.851   9.082   4.618 -0.2663 -0.0865 -0.2006
    1BDTP    C2 6402   7.840   9.020   4.745 -0.0367  0.1621 -0.0577
    1BDTP    C3 6403   7.933   8.928   4.792  0.0273  0.2253 -0.0602
    1BDTP    C4 6404   8.041   8.896   4.709 -0.1426  0.0341 -0.2109
    1BDTP    C5 6405   8.052   8.958   4.581 -0.3722 -0.2143 -0.3539
    1BDTP    C6 6406   7.959   9.050   4.535 -0.4363 -0.2775 -0.3513
    1BDTP    C7 6407   8.150   8.803   4.736 -0.1175  0.0544 -0.2438
    1BDTP    C8 6408   8.240   8.794   4.635 -0.3142 -0.1643 -0.4026
    1BDTP    S1 6409   8.201   8.900   4.493 -0.5596 -0.4265 -0.5326
    1BDTP    C9 6410   7.742   9.175   4.591 -0.2915 -0.1066 -0.1677
    1BDTP   C10 6411   7.651   9.184   4.691 -0.0948  0.1121 -0.0091
    1BDTP    S2 6412   7.691   9.078   4.833  0.1504  0.3743  0.1211
    2FTM     S1 6413   8.044   8.805   5.027  0.0169  0.8716  0.2942
    2FTM     C1 6414   7.925   8.718   5.131  0.1959  0.1642 -0.0741
    2FTM     C2 6415   7.801   8.729   5.077  0.3760 -1.2329 -0.8763
    2FTM     C3 6416   7.790   8.804   4.955  0.3855 -1.8237 -1.2443
    2FTM     C4 6417   7.911   8.851   4.914  0.2067 -0.8476 -0.7064
    2FTM     F1 6418   7.688   8.673   5.136  0.5429 -2.0590 -1.3247
    2FTM     C5 6419   7.975   8.626   5.246  2.1147 -1.7051  0.5426
    2FTM     C6 6420   8.038   8.492   5.191 -0.1599  0.2239  1.1390
    2FTM     C7 6421   8.161   8.441   5.281 -1.3460  0.0772  0.9514
    2FTM     C8 6422   8.141   8.456   5.419 -0.2516 -0.8380 -2.1431
    2FTM     C9 6423   8.281   8.409   5.484  0.1104 -1.1342 -1.5093
    2FTM    C10 6424   8.310   8.277   5.544 -0.4128  0.5975 -0.3634
    2FTM    C11 6425   7.936   8.396   5.122 -0.8205  1.4614 -0.7320
    2FTM    C12 6426   7.854   8.315   5.220  0.7119  0.9225 -0.5860
    3FTM     S1 6427   7.990   9.322   4.405 -0.1879  0.6473 -0.4324
    3FTM     C1 6428   8.046   9.315   4.234 -0.3079 -0.0253 -0.4496
    3FTM     C2 6429   8.057   9.186   4.194 -0.0765 -0.1919  0.1355
    3FTM     C3 6430   8.024   9.086   4.292  0.2015  0.1841  0.6213
    3FTM     C4 6431   7.986   9.142   4.411  0.1820  0.6541  0.4007
    3FTM     F1 6432   8.098   9.149   4.067 -0.1023 -0.6952  0.2663
    3FTM     C5 6433   8.051   9.438   4.148 -0.0448  0.6434 -1.8076
    3FTM     C6 6434   8.037   9.585   4.164  0.1408  0.8615 -1.5060
    3FTM     C7 6435   7.945   9.638   4.275 -0.4625  1.3145  0.1906
    3FTM     C8 6436   7.805   9.593   4.274 -0.5857 -0.7622 -0.5683
    3FTM     C9 6437   7.700   9.673   4.351 -0.0446  0.0015 -1.5846
    3FTM    C10 6438   7.710   9.663   4.505  0.0222  0.3854 -1.0977
    3FTM    C11 6439   8.016   9.642   4.029  0.5672  0.5612  0.5194
    3FTM    C12 6440   8.018   9.798   4.014  0.2855 -0.3175 -0.0599
    4TPM     C1 6441   7.504   9.219   4.661 -0.9142 -0.7162  0.2793
    4TPM     C2 6442   7.385   9.157   4.683 -1.0470 -0.4513  0.3147
    4TPM     C3 6443   7.270   9.242   4.663 -0.8785 -0.3026 -0.0246
    4TPM     C4 6444   7.302   9.369   4.625 -0.6170 -0.4538 -0.3188
    4TPM     S1 6445   7.481   9.391   4.612 -0.5631 -0.7985 -0.1891
    5BDD     C1 6446   7.042   9.665   4.641  0.0889  0.2745  0.0304
    5BDD     C2 6447   7.120   9.688   4.531 -0.0288  0.1986 -0.0690
    5BDD     C3 6448   7.215   9.581   4.505 -0.0206  0.2055 -0.0674
    5BDD     C4 6449   7.209   9.480   4.596  0.1035  0.2869  0.0334
    5BDD     S1 6450   7.083   9.509   4.720  0.2186  0.3603  0.1330
    5BDD     C5 6451   7.109   9.808   4.445 -0.1535  0.1168 -0.1694
    5BDD     C6 6452   7.309   9.585   4.391 -0.1363  0.1314 -0.1658
    5BDD     O1 6453   7.392   9.493   4.369 -0.1292  0.1376 -0.1643
    5BDD     O2 6454   7.027   9.899   4.467 -0.1606  0.1109 -0.1707
    5BDD     C7 6455   7.299   9.705   4.306 -0.2608  0.0494 -0.2662
    5BDD     C8 6456   7.203   9.811   4.331 -0.2692  0.0427 -0.2679
    5BDD     C9 6457   7.210   9.913   4.240 -0.3930 -0.0384 -0.3687
    5BDD     S2 6458   7.336   9.883   4.116 -0.5083 -0.1120 -0.4683
    5BDD    C10 6459   7.377   9.728   4.195 -0.3786 -0.0265 -0.3657
    5BDD    C11 6460   7.464   9.648   4.111 -0.2634 -0.1927  0.9290
    5BDD    C12 6461   7.397   9.547   4.013  1.3956 -0.7454  0.0502
    5BDD    C13 6462   7.379   9.623   3.882  1.2654  0.0316  1.1840
    5BDD    C14 6463   7.339   9.524   3.759  0.6140  0.6066  0.4362
    5BDD    C15 6464   7.256   9.607   3.663 -0.8430 -0.4106 -0.2387
    5BDD    C16 6465   7.164   9.546   3.558  0.1362 -0.6440  0.3092
    5BDD    C17 6466   7.283   9.448   4.058 -0.0794  1.7797  0.2969
    5BDD    C18 6467   7.134   9.488   4.062  0.1837  0.3024 -0.1924
    5BDD    C19 6468   7.140  10.032   4.200  0.4265 -0.5266 -0.6889
    5BDD    C20 6469   6.998  10.012   4.149 -1.1898 -0.4001  0.6361
    5BDD    C21 6470   6.972   9.926   4.016 -0.0972 -0.6746 -1.8071
    5BDD    C22 6471   6.977   9.955   3.869 -1.3553 -1.2117  0.1599
    5BDD    C23 6472   6.846   9.925   3.800  0.0977 -0.3403  0.4512
    5BDD    C24 6473   6.898   9.873   3.660 -0.0643  0.7994  1.0877
    5BDD    C25 6474   6.880  10.089   4.162  0.8352 -0.6149  0.9817
    5BDD    C26 6475   6.833  10.147   4.305 -0.0542 -0.2306  1.0296
    6TPM     C1 6476   6.966   9.741   4.724 -0.4591  0.1841 -0.0953
    6TPM     C2 6477   6.859   9.814   4.680 -0.1128  0.5922 -0.2755
    6TPM     C3 6478   6.767   9.851   4.785  0.0478  1.2729 -0.3707
    6TPM     C4 6479   6.804   9.807   4.909 -0.1761  1.3845 -0.2630
    6TPM     S1 6480   6.959   9.714   4.903 -0.6105  0.6320 -0.0311
    7BDTP    C1 6481   6.594  10.122   5.414  0.1249 -0.4234  0.5844
    7BDTP    C2 6482   6.473  10.084   5.350  0.1358 -0.0255  0.3237
    7BDTP    C3 6483   6.471  10.007   5.234  0.1427  0.3459  0.0738
    7BDTP    C4 6484   6.594   9.966   5.179  0.1388  0.3252  0.0809
    7BDTP    C5 6485   6.715  10.004   5.244  0.1279 -0.0727  0.3414
    7BDTP    C6 6486   6.717  10.080   5.360  0.1209 -0.4444  0.5910
    7BDTP    C7 6487   6.616   9.886   5.060  0.1446  0.6678 -0.1505
    7BDTP    C8 6488   6.747   9.863   5.033  0.1385  0.5474 -0.0772
    7BDTP    S1 6489   6.859   9.938   5.154  0.1248 -0.0165  0.2950
    7BDTP    C9 6490   6.572  10.201   5.533  0.1192 -0.7660  0.8155
    7BDTP   C10 6491   6.441  10.225   5.561  0.1252 -0.6456  0.7423
    7BDTP    S2 6492   6.328  10.149   5.440  0.1388 -0.0823  0.3700
    8FTM     S1 6493   6.302   9.869   5.040 -0.2708 -0.3742  0.3642
    8FTM     C1 6494   6.169   9.964   4.965 -0.1487 -0.5919 -0.1389
    8FTM     C2 6495   6.164  10.088   5.020  0.0498 -0.2630 -0.8287
    8FTM     C3 6496   6.261  10.116   5.123  0.1178  0.1678 -1.0040
    8FTM     C4 6497   6.343  10.009   5.146 -0.0339  0.1692 -0.4292
    8FTM     F1 6498   6.072  10.184   4.983  0.1820 -0.3324 -1.3427
    8FTM     C5 6499   6.095   9.909   4.850 -0.7686 -0.2707  0.0335
    8FTM     C6 6500   5.968   9.819   4.888 -0.6285 -0.6491 -0.7556
    8FTM     C7 6501   5.832   9.845   4.811 -0.4418 -1.3371 -1.4223
    8FTM     C8 6502   5.859   9.829   4.656  0.4109  0.2591 -0.0515
    8FTM     C9 6503   5.741   9.825   4.566 -0.0595 -0.6677  0.0108
    8FTM    C10 6504   5.618   9.733   4.591  0.1864  0.4113  0.8733
    8FTM    C11 6505   5.991   9.690   4.972  0.2531  1.2374  0.0546
    8FTM    C12 6506   5.880   9.589   5.007 -1.4683  0.9395 -0.2117
    9FTM     S1 6507   6.959  10.231   5.311  0.0838  0.0571  0.2282
    9FTM     C1 6508   7.096  10.194   5.422 -0.0351 -1.1314  0.0071
    9FTM     C2 6509   7.055  10.107   5.518 -0.4536 -1.2796 -0.2953
    9FTM     C3 6510   6.919  10.065   5.512 -0.7014 -0.4966 -0.3717
    9FTM     C4 6511   6.852  10.122   5.407 -0.4650  0.2761 -0.1197
    9FTM     F1 6512   7.140  10.061   5.618 -0.6372 -2.1334 -0.5209
    9FTM     C5 6513   7.232  10.264   5.441 -0.7953 -0.8253  0.2755
    9FTM     C6 6514   7.257  10.410   5.511 -0.2946  0.3078  0.8824
    9FTM     C7 6515   7.413  10.427   5.510  0.0560 -0.5397 -0.4651
    9FTM     C8 6516   7.487  10.558   5.558 -0.5210  0.1555  0.5168
    9FTM     C9 6517   7.425  10.688   5.517  0.1757  0.0944  0.8671
    9FTM    C10 6518   7.441  10.691   5.370 -0.0927  0.1907 -0.2413
    9FTM    C11 6519   7.205  10.431   5.656  0.8689  0.4635  0.0890
    9FTM    C12 6520   7.047  10.426   5.673 -0.5004 -0.7698  0.3130
   10TPM     C1 6521   6.395  10.298   5.679  0.6120 -0.2524  0.9089
   10TPM     C2 6522   6.396  10.254   5.809  0.5953 -0.0141  0.9904
   10TPM     C3 6523   6.329  10.344   5.900  0.2749 -0.0124  0.7604
   10TPM     C4 6524   6.279  10.455   5.841  0.0469 -0.2497  0.5037
   10TPM     S1 6525   6.311  10.456   5.663  0.2208 -0.4951  0.5324
   11BDD     C1 6526   6.161  10.694   6.120  0.3289 -0.3008 -0.1120
   11BDD     C2 6527   6.142  10.767   6.006  0.2366 -0.2112 -0.0396
   11BDD     C3 6528   6.178  10.695   5.885  0.0124 -0.1652 -0.1347
   11BDD     C4 6529   6.224  10.569   5.909 -0.0634 -0.2201 -0.2780
   11BDD     S1 6530   6.226  10.531   6.084  0.1413 -0.3333 -0.3043
   11BDD     C5 6531   6.090  10.905   6.004  0.3513 -0.1650  0.1198
   11BDD     C6 6532   6.165  10.755   5.751 -0.1187 -0.0682 -0.0796
   11BDD     O1 6533   6.196  10.693   5.646 -0.3121 -0.0281 -0.1615
   11BDD     O2 6534   6.059  10.967   6.109  0.5447 -0.2050  0.2018
   11BDD     C7 6535   6.113  10.893   5.749 -0.0041 -0.0222  0.0796
   11BDD     C8 6536   6.077  10.965   5.870  0.2202 -0.0682  0.1748
   11BDD     C9 6537   6.031  11.091   5.846  0.2958 -0.0134  0.3184
   11BDD     S2 6538   6.029  11.130   5.671  0.0913  0.0999  0.3444
   11BDD    C10 6539   6.093  10.966   5.635 -0.0962  0.0675  0.1521
   11BDD    C11 6540   6.145  10.949   5.491  0.3581  0.0344 -0.3590
   11BDD    C12 6541   6.254  11.043   5.458 -1.1197 -0.0743 -0.0074
   11BDD    C13 6542   6.388  11.026   5.542  1.1116  0.1472  0.5841
   11BDD    C14 6543   6.459  10.886   5.503 -0.2467  0.3758  0.7785
   11BDD    C15 6544   6.611  10.848   5.506  0.8670 -0.4762 -0.0377
   11BDD    C16 6545   6.684  10.948   5.583 -0.7717 -1.7578 -0.1826
   11BDD    C17 6546   6.271  11.063   5.303  0.3021 -0.7154 -1.5428
   11BDD    C18 6547   6.177  11.158   5.222 -0.3231 -0.3409 -0.0906
   11BDD    C19 6548   5.976  11.207   5.927 -0.3314  0.9474 -1.2975
   11BDD    C20 6549   5.833  11.212   5.946 -0.1570 -0.7252  0.2194
   11BDD    C21 6550   5.829  11.352   6.029  0.0055  0.3065  0.5298
   11BDD    C22 6551   5.704  11.437   6.028  0.1295  1.8526  0.8372
   11BDD    C23 6552   5.708  11.497   5.878 -0.3328  0.2426 -0.8228
   11BDD    C24 6553   5.597  11.567   5.839  2.1213 -0.4021 -0.0152
   11BDD    C25 6554   5.771  11.097   6.035 -0.6988 -1.0932  0.2820
   11BDD    C26 6555   5.637  11.107   6.094  1.0800 -0.1128 -0.3356
   12TPM     C1 6556   6.140  10.703   6.268  1.0795 -0.5099 -0.4090
   12TPM     C2 6557   6.183  10.815   6.333  1.7051 -0.8359 -0.2419
   12TPM     C3 6558   6.176  10.804   6.477  1.2215 -0.8631 -0.2612
   12TPM     C4 6559   6.129  10.684   6.521  0.2274 -0.5582 -0.4431
   12TPM     S1 6560   6.089  10.575   6.383 -0.1784 -0.2100 -0.6053
   13BDTP    C1 6561   5.988  10.497   7.110  0.2081 -0.0262  0.2258
   13BDTP    C2 6562   5.916  10.619   7.093  0.0653 -0.1237  0.1237
   13BDTP    C3 6563   5.922  10.694   6.977  0.1020 -0.1318  0.1205
   13BDTP    C4 6564   6.003  10.648   6.872  0.2885 -0.0393  0.2226
   13BDTP    C5 6565   6.075  10.526   6.889  0.4313  0.0584  0.3247
   13BDTP    C6 6566   6.069  10.451   7.005  0.3948  0.0668  0.3280
   13BDTP    C7 6567   6.025  10.710   6.743  0.3603 -0.0281  0.2402
   13BDTP    C8 6568   6.110  10.641   6.662  0.5479  0.0720  0.3490
   13BDTP    S1 6569   6.173  10.488   6.739  0.6599  0.1667  0.4449
   13BDTP    C9 6570   5.966  10.436   7.239  0.1364 -0.0370  0.2083
   13BDTP   C10 6571   5.881  10.505   7.320 -0.0513 -0.1373  0.0993
   13BDTP    S2 6572   5.818  10.657   7.243 -0.1633 -0.2317  0.0035
   14FTM     S1 6573   5.854  10.969   6.950 -0.3454 -0.4439 -0.2842
   14FTM     C1 6574   5.679  11.007   6.933 -0.4513 -0.9385 -0.3214
   14FTM     C2 6575   5.606  10.892   6.933 -0.0763 -1.1859 -0.9820
   14FTM     C3 6576   5.681  10.770   6.946  0.3073 -1.0102 -1.4874
   14FTM     C4 6577   5.815  10.793   6.956  0.2231 -0.6150 -1.2044
   14FTM     F1 6578   5.468  10.890   6.922 -0.0577 -1.5862 -1.1685
   14FTM     C5 6579   5.627  11.144   6.942  1.2194  0.5584 -1.2293
   14FTM     C6 6580   5.699  11.278   6.925 -0.7208 -0.4657 -1.2127
   14FTM     C7 6581   5.743  11.319   6.780 -0.0798 -0.8072 -0.4163
   14FTM     C8 6582   5.647  11.416   6.719  0.0034 -0.2883 -0.5863
   14FTM     C9 6583   5.606  11.544   6.790  0.1837 -0.5465  1.7480
   14FTM    C10 6584   5.479  11.599   6.715  0.6416  1.7739 -0.3853
   14FTM    C11 6585   5.785  11.318   7.038  0.2157  0.0878 -0.8202
   14FTM    C12 6586   5.692  11.360   7.145 -0.2181  0.6449  1.1192
   15FTM     S1 6587   6.326  10.364   7.079 -0.5703 -0.4290 -0.6647
   15FTM     C1 6588   6.358  10.187   7.083 -0.4162 -0.3940 -0.2438
   15FTM     C2 6589   6.246  10.118   7.050 -0.3796 -0.5751 -0.0006
   15FTM     C3 6590   6.130  10.198   7.020 -0.4672 -0.7479 -0.1239
   15FTM     C4 6591   6.155  10.331   7.030 -0.5741 -0.6977 -0.4727
   15FTM     F1 6592   6.241   9.980   7.044 -0.2648 -0.5946  0.3480
   15FTM     C5 6593   6.501  10.127   7.140  0.1684 -0.1268  1.7656
   15FTM     C6 6594   6.518  10.113   7.292  0.3502  0.2933  0.8994
   15FTM     C7 6595   6.401  10.042   7.346 -0.6647 -0.3174 -0.2208
   15FTM     C8 6596   6.425   9.957   7.477 -0.1632  0.3913  0.4417
   15FTM     C9 6597   6.496   9.831   7.421 -0.9734 -0.6953 -0.0531
   15FTM    C10 6598   6.469   9.712   7.508 -0.1154  0.3490  2.0902
   15FTM    C11 6599   6.556  10.242   7.371 -0.2087  0.8562  1.1259
   15FTM    C12 6600   6.696  10.223   7.423 -0.6501 -0.3418  0.8209
   16TPM     C1 6601   5.842  10.478   7.455 -0.5461 -0.1763  0.2360
   16TPM     C2 6602   5.721  10.499   7.515 -0.1961  0.3412  0.7803
   16TPM     C3 6603   5.712  10.447   7.649  0.3135  0.7458  0.9770
   16TPM     C4 6604   5.827  10.386   7.692  0.3520  0.5370  0.5824
   16TPM     S1 6605   5.955  10.389   7.565 -0.2573 -0.1925 -0.0729
   17BDD     C1 6606   5.945  10.401   8.071 -0.3650  0.5484  0.0050
   17BDD     C2 6607   5.823  10.339   8.074 -0.2860  0.3877 -0.0861
   17BDD     C3 6608   5.761  10.326   7.943 -0.0775  0.1183 -0.1600
   17BDD     C4 6609   5.837  10.379   7.842 -0.0003  0.0774 -0.1243
   17BDD     S1 6610   5.990  10.448   7.903 -0.1839  0.3731  0.0044
   17BDD     C5 6611   5.759  10.289   8.198 -0.3991  0.4761 -0.1085
   17BDD     C6 6612   5.630  10.262   7.924  0.0381 -0.0887 -0.2633
   17BDD     O1 6613   5.576  10.251   7.811  0.2179 -0.3209 -0.3270
   17BDD     O2 6614   5.813  10.300   8.310 -0.5789  0.7083 -0.0446
   17BDD     C7 6615   5.566  10.212   8.047 -0.0752 -0.0002 -0.2856
   17BDD     C8 6616   5.628  10.225   8.178 -0.2838  0.2689 -0.2120
   17BDD     C9 6617   5.552  10.172   8.279 -0.3607  0.3095 -0.2475
   17BDD     S2 6618   5.399  10.103   8.218 -0.1772  0.0139 -0.3761
   17BDD    C10 6619   5.444  10.150   8.051  0.0038 -0.1614 -0.3767
   17BDD    C11 6620   5.343  10.134   7.953  0.6072 -2.0478 -0.4037
   17BDD    C12 6621   5.344  10.019   7.855  0.6515  0.3590 -1.1840
   17BDD    C13 6622   5.304   9.876   7.893  0.0653  0.2808 -0.2525
   17BDD    C14 6623   5.312   9.832   8.031 -0.7560  0.9813 -0.8750
   17BDD    C15 6624   5.221   9.701   8.052 -0.3916 -0.0828 -0.2381
   17BDD    C16 6625   5.254   9.565   7.998  0.2838 -0.2599 -0.4562
   17BDD    C17 6626   5.326  10.047   7.708  0.4024 -0.7640 -0.6380
   17BDD    C18 6627   5.194  10.103   7.668 -0.3371 -0.6825  1.1749
   17BDD    C19 6628   5.592  10.131   8.411  0.1511 -1.6581 -0.9511
   17BDD    C20 6629   5.691  10.026   8.418 -0.6453  1.1171 -0.8873
   17BDD    C21 6630   5.707   9.903   8.330  0.2678 -0.5317 -0.2714
   17BDD    C22 6631   5.569   9.828   8.347  0.0103 -1.8335  0.0306
   17BDD    C23 6632   5.578   9.686   8.351  0.0942  0.8726 -0.5459
   17BDD    C24 6633   5.519   9.600   8.234 -0.1771 -0.1763  0.6662
   17BDD    C25 6634   5.753  10.016   8.565  0.1359  0.7532 -0.8152
   17BDD    C26 6635   5.769  10.154   8.641 -1.3709  0.9913 -0.9066
   18TPM     C1 6636   6.047  10.437   8.174  0.0723 -0.7284 -0.7476
   18TPM     C2 6637   6.070  10.568   8.204 -1.4111 -0.4160 -0.8261
   18TPM     C3 6638   6.153  10.587   8.320 -2.0999  0.6280 -0.4780
   18TPM     C4 6639   6.193  10.470   8.378 -1.1416  1.1116 -0.1337
   18TPM     S1 6640   6.129  10.326   8.291  0.7196  0.2792 -0.2233
   19BDTP    C1 6641   6.509  10.484   8.923 -0.0011 -0.3424  0.0265
   19BDTP    C2 6642   6.458  10.350   8.917 -0.0201 -0.3293 -0.1009
   19BDTP    C3 6643   6.386  10.302   8.809 -0.0600 -0.2036 -0.1297
   19BDTP    C4 6644   6.362  10.390   8.701 -0.0818 -0.0854 -0.0293
   19BDTP    C5 6645   6.413  10.523   8.707 -0.0626 -0.0980  0.0978
   19BDTP    C6 6646   6.485  10.571   8.815 -0.0228 -0.2238  0.1268
   19BDTP    C7 6647   6.290  10.363   8.578 -0.1233  0.0557 -0.0363
   19BDTP    C8 6648   6.284  10.468   8.493 -0.1359  0.1483  0.0780
   19BDTP    S1 6649   6.369  10.616   8.556 -0.0972  0.0699  0.2103
   19BDTP    C9 6650   6.581  10.511   9.046  0.0404 -0.4830  0.0334
   19BDTP   C10 6651   6.587  10.406   9.131  0.0530 -0.5758 -0.0808
   19BDTP    S2 6652   6.502  10.258   9.068  0.0142 -0.4970 -0.2132
   20FTM     S1 6653   6.369  10.043   8.702 -0.4608 -0.1422 -0.5351
   20FTM     C1 6654   6.259   9.929   8.787 -1.0092  0.5751 -0.2558
   20FTM     C2 6655   6.198   9.992   8.891 -1.0993  1.2536 -0.7055
   20FTM     C3 6656   6.232  10.129   8.910 -0.7558  1.2569 -1.2810
   20FTM     C4 6657   6.323  10.173   8.818 -0.3906  0.5578 -1.2715
   20FTM     F1 6658   6.107   9.928   8.974 -1.4985  1.9121 -0.6227
   20FTM     C5 6659   6.307   9.784   8.765  0.8512 -0.8307  0.0077
   20FTM     C6 6660   6.270   9.667   8.860 -0.0475  0.3662 -0.3909
   20FTM     C7 6661   6.395   9.567   8.885  0.0770 -0.4059  0.3954
   20FTM     C8 6662   6.541   9.619   8.875 -0.3166 -0.5338 -0.5267
   20FTM     C9 6663   6.633   9.503   8.845 -0.9106 -0.8399 -0.1631
   20FTM    C10 6664   6.769   9.569   8.806 -1.1043  0.8607  0.9027
   20FTM    C11 6665   6.121   9.616   8.882 -0.5581 -0.2186 -1.0598
   20FTM    C12 6666   6.090   9.602   9.028 -0.3727  1.0984 -0.5365
   21FTM     S1 6667   6.578  10.813   8.952 -0.2730  0.2989 -0.0006
   21FTM     C1 6668   6.653  10.937   8.843  0.0379  0.0313 -0.0966
   21FTM     C2 6669   6.646  10.895   8.714  0.7302 -0.4518  0.0105
   21FTM     C3 6670   6.584  10.768   8.692  1.0531 -0.6392  0.1705
   21FTM     C4 6671   6.542  10.710   8.808  0.5934 -0.2879  0.1856
   21FTM     F1 6672   6.695  10.970   8.608  1.1121 -0.7536 -0.0291
   21FTM     C5 6673   6.685  11.070   8.906  1.2672 -0.5020 -1.1153
   21FTM     C6 6674   6.821  11.132   8.894 -0.4870  0.0816 -0.5005
   21FTM     C7 6675   6.952  11.104   8.965 -1.0677  0.3546 -0.9894
   21FTM     C8 6676   6.955  11.133   9.132  0.2440 -1.5052 -0.0667
   21FTM     C9 6677   7.063  11.071   9.213  0.3280  0.9009  0.5340
   21FTM    C10 6678   7.113  11.146   9.330 -0.3464  0.4321 -0.1896
   21FTM    C11 6679   6.873  11.174   8.753  1.2823 -0.6415 -1.4364
   21FTM    C12 6680   6.817  11.302   8.701 -1.1816 -1.0530  0.8474
   22TPM     C1 6681   6.683  10.397   9.234  0.0221  0.4799  0.1870
   22TPM     C2 6682   6.758  10.490   9.300  0.0817  0.2658  0.4277
   22TPM     C3 6683   6.861  10.433   9.383  0.2302 -0.0103  0.0637
   22TPM     C4 6684   6.865  10.297   9.382  0.2838 -0.0070 -0.4550
   22TPM     S1 6685   6.737  10.229   9.274  0.1498  0.3478 -0.5241
   23BDD     C1 6686   7.066  10.145   9.683  0.4102  0.6675  0.3908
   23BDD     C2 6687   7.143  10.118   9.573  0.3009  0.4196  0.3750
   23BDD     C3 6688   7.083  10.163   9.449  0.1476  0.0827  0.3242
   23BDD     C4 6689   6.962  10.224   9.466  0.1425  0.0786  0.3019
   23BDD     S1 6690   6.914  10.229   9.639  0.3289  0.4959  0.3431
   23BDD     C5 6691   7.273  10.049   9.578  0.3333  0.4835  0.4063
   23BDD     C6 6692   7.148  10.144   9.317  0.0120 -0.2224  0.2997
   23BDD     O1 6693   7.096  10.183   9.210 -0.1200 -0.5126  0.2556
   23BDD     O2 6694   7.325  10.010   9.685  0.4654  0.7741  0.4501
   23BDD     C7 6695   7.279  10.075   9.322  0.0445 -0.1585  0.3307
   23BDD     C8 6696   7.338  10.030   9.447  0.1978  0.1781  0.3817
   23BDD     C9 6697   7.460   9.969   9.430  0.2029  0.1824  0.4039
   23BDD     S2 6698   7.507   9.964   9.257  0.0165 -0.2350  0.3627
   23BDD    C10 6699   7.355  10.048   9.212 -0.0650 -0.4063  0.3150
   23BDD    C11 6700   7.339  10.068   9.073  0.1738 -0.2444  2.4598
   23BDD    C12 6701   7.279   9.947   8.984 -1.0591 -0.4367  0.6761
   23BDD    C13 6702   7.373   9.871   8.878  0.7346 -1.0717 -0.0884
   23BDD    C14 6703   7.503   9.826   8.924 -0.9367  0.9355 -0.5936
   23BDD    C15 6704   7.521   9.683   8.984 -0.6525 -0.1004  1.1351
   23BDD    C16 6705   7.420   9.634   9.086  0.3725  1.0376 -0.4413
   23BDD    C17 6706   7.134   9.922   8.980 -0.7757 -0.9971 -0.4281
   23BDD    C18 6707   7.027   9.946   8.880 -0.5268 -0.5057  0.5504
   23BDD    C19 6708   7.565   9.940   9.527 -0.2952  0.3745 -0.6035
   23BDD    C20 6709   7.610   9.800   9.549  0.7367  0.1724  0.3810
   23BDD    C21 6710   7.505   9.685   9.585  0.6523  0.9423  0.7133
   23BDD    C22 6711   7.481   9.563   9.492 -0.1136 -0.5328  0.1772
   23BDD    C23 6712   7.608   9.467   9.469  0.6370  1.4589 -0.2347
   23BDD    C24 6713   7.656   9.366   9.574  0.5832 -0.8710 -0.9719
   23BDD    C25 6714   7.723   9.823   9.635  0.0774 -0.9344 -1.2049
   23BDD    C26 6715   7.820   9.711   9.661  0.5124 -0.1454  0.9808
   24TPM     C1 6716   7.090  10.148   9.828 -0.5439  0.9633  0.2893
   24TPM     C2 6717   6.997  10.103   9.917 -0.5631  1.6088  0.6094
   24TPM     C3 6718   7.031  10.127  10.055  0.2916  1.0035  0.5147
   24TPM     C4 6719   7.151  10.190  10.071  0.9627 -0.1030  0.1218
   24TPM     S1 6720   7.230  10.225   9.912  0.5640 -0.4698 -0.1606
   25BDTP    C1 6721   7.319  10.504  10.601  0.0093  0.0324  0.0777
   25BDTP    C2 6722   7.371  10.583  10.495 -0.1125  0.1767  0.1249
   25BDTP    C3 6723   7.355  10.550  10.361  0.1041  0.1271  0.1104
   25BDTP    C4 6724   7.284  10.433  10.330  0.4575 -0.0737  0.0465
   25BDTP    C5 6725   7.231  10.354  10.436  0.5794 -0.2182 -0.0010
   25BDTP    C6 6726   7.247  10.387  10.570  0.3627 -0.1685  0.0134
   25BDTP    C7 6727   7.255  10.379  10.199  0.7308 -0.1606  0.0198
   25BDTP    C8 6728   7.183  10.264  10.201  1.0477 -0.3605 -0.0441
   25BDTP    S1 6729   7.143  10.208  10.370  1.0448 -0.4666 -0.0796
   25BDTP    C9 6730   7.348  10.558  10.732 -0.2639  0.1192  0.1042
   25BDTP   C10 6731   7.419  10.673  10.730 -0.5808  0.3188  0.1681
   25BDTP    S2 6732   7.459  10.729  10.561 -0.5780  0.4249  0.2036
   26FTM     S1 6733   7.587  10.667  10.224  0.2810  0.6161 -0.0216
   26FTM     C1 6734   7.547  10.813  10.126 -0.2892  0.8697  0.5776
   26FTM     C2 6735   7.412  10.832  10.125 -0.3958  0.1554  0.3874
   26FTM     C3 6736   7.334  10.736  10.197 -0.0489 -0.6146 -0.2210
   26FTM     C4 6737   7.411  10.641  10.257  0.3358 -0.4855 -0.5063
   26FTM     F1 6738   7.352  10.937  10.057 -0.8137  0.1554  0.7524
   26FTM     C5 6739   7.663  10.898  10.064  0.1390 -2.0346 -0.1292
   26FTM     C6 6740   7.814  10.902  10.097  0.4751  0.5008 -0.1133
   26FTM     C7 6741   7.872  11.041  10.095 -0.7203  0.6717  0.1475
   26FTM     C8 6742   7.839  11.141  10.199  0.0930  1.9292 -0.4730
   26FTM     C9 6743   7.733  11.249  10.188 -0.8284 -0.0438 -0.9020
   26FTM    C10 6744   7.674  11.299  10.317  0.6231  1.5813 -0.0435
   26FTM    C11 6745   7.893  10.783  10.059  0.7771 -0.0988  0.8850
   26FTM    C12 6746   7.960  10.805   9.921 -0.6777  0.0090  0.8484
   27FTM     S1 6747   7.076  10.329  10.778  0.0176 -0.0627  0.0960
   27FTM     C1 6748   7.114  10.183  10.877 -0.1545  0.1092  0.4174
   27FTM     C2 6749   7.218  10.115  10.822 -0.2803 -0.1752  0.5257
   27FTM     C3 6750   7.273  10.171  10.702 -0.2513 -0.5352  0.3688
   27FTM     C4 6751   7.210  10.285  10.664 -0.0981 -0.5266  0.1328
   27FTM     F1 6752   7.269   9.999  10.877 -0.4292 -0.1268  0.7732
   27FTM     C5 6753   7.075  10.176  11.023 -0.6762  1.0693 -1.9246
   27FTM     C6 6754   7.033  10.285  11.103  0.8976  0.4775 -0.6360
   27FTM     C7 6755   7.028  10.232  11.254  0.6931 -0.7811  0.8939
   27FTM     C8 6756   6.922  10.122  11.298  0.8972 -1.6639  0.8072
   27FTM     C9 6757   6.790  10.176  11.276 -0.5609  0.5454 -0.7105
   27FTM    C10 6758   6.748  10.219  11.423 -0.8279  1.1644  0.3780
   27FTM    C11 6759   7.113  10.412  11.090 -0.2273  0.3410 -0.7968
   27FTM    C12 6760   7.255  10.410  11.144  0.0188  0.5025 -1.5373
   28TPM     C1 6761   7.491  10.734  10.847 -0.2812 -0.0977 -0.3140
   28TPM     C2 6762   7.609  10.801  10.863  0.0561 -0.6196 -0.5641
   28TPM     C3 6763   7.640  10.833  10.999  0.4996 -0.7625 -0.6270
   28TPM     C4 6764   7.546  10.791  11.089  0.5002 -0.3498 -0.4249
   28TPM     S1 6765   7.409  10.706  11.006 -0.0635  0.2564 -0.1375
   29BDD     C1 6766   7.729  10.826  11.445 -0.8790 -0.1390  0.0586
   29BDD     C2 6767   7.697  10.694  11.436 -0.6635 -0.1864 -0.0334
   29BDD     C3 6768   7.629  10.659  11.312 -0.3675 -0.2632 -0.1757
   29BDD     C4 6769   7.611  10.765  11.228 -0.3616 -0.2733 -0.1899
   29BDD     S1 6770   7.677  10.917  11.299 -0.7260 -0.1876 -0.0267
   29BDD     C5 6771   7.727  10.594  11.541 -0.7223 -0.1624  0.0062
   29BDD     C6 6772   7.585  10.521  11.281 -0.1014 -0.3231 -0.2921
   29BDD     O1 6773   7.527  10.491  11.175  0.1539 -0.3893 -0.4146
   29BDD     O2 6774   7.785  10.624  11.647 -0.9776 -0.0966  0.1288
   29BDD     C7 6775   7.615  10.422  11.386 -0.1600 -0.2995 -0.2525
   29BDD     C8 6776   7.683  10.456  11.510 -0.4562 -0.2227 -0.1103
   29BDD     C9 6777   7.701  10.350  11.594 -0.4623 -0.2124 -0.0959
   29BDD     S2 6778   7.635  10.198  11.523 -0.0978 -0.2981 -0.2594
   29BDD    C10 6779   7.583  10.289  11.377  0.0553 -0.3464 -0.3445
   29BDD    C11 6780   7.529  10.189  11.269 -1.4163 -1.3886 -0.6930
   29BDD    C12 6781   7.612  10.101  11.174 -0.5395  0.4121  0.8216
   29BDD    C13 6782   7.689  10.185  11.075  0.4044 -0.9415  0.1651
   29BDD    C14 6783   7.608  10.254  10.958 -1.8002  0.7930 -0.2208
   29BDD    C15 6784   7.706  10.316  10.867 -0.9325 -0.8501 -0.3665
   29BDD    C16 6785   7.639  10.368  10.743  0.9019  0.0208 -0.5123
   29BDD    C17 6786   7.545   9.970  11.110 -0.3858 -1.0304  0.1633
   29BDD    C18 6787   7.609   9.840  11.041  0.1569 -0.4649  0.5140
   29BDD    C19 6788   7.792  10.340  11.716 -0.2338  0.2561 -0.2462
   29BDD    C20 6789   7.722  10.280  11.834 -0.3543  0.0200  0.4655
   29BDD    C21 6790   7.627  10.371  11.916 -0.0063  0.4771  0.8999
   29BDD    C22 6791   7.673  10.401  12.049 -1.2581  0.2253 -0.8584
   29BDD    C23 6792   7.568  10.466  12.139 -0.6012 -1.0945 -0.3092
   29BDD    C24 6793   7.615  10.437  12.279  0.1988 -0.6548  0.3160
   29BDD    C25 6794   7.777  10.156  11.905 -0.7362  1.7397 -0.0819
   29BDD    C26 6795   7.757  10.013  11.833  0.0681 -0.4901 -0.3389
   30TPM     C1 6796   7.816  10.912  11.535 -0.1702 -0.1188  0.7019
   30TPM     C2 6797   7.767  10.934  11.660  0.1655 -0.8719  0.9796
   30TPM     C3 6798   7.864  10.987  11.753  0.2996 -0.9918  0.9069
   30TPM     C4 6799   7.988  11.005  11.698  0.0660 -0.3295  0.5738
   30TPM     S1 6800   7.991  10.956  11.524 -0.3445  0.5029  0.3241
   31BDTP    C1 6801   8.443  11.190  12.079 -0.1249  0.5598 -0.4890
   31BDTP    C2 6802   8.511  11.102  11.989 -0.0598  0.4127 -0.2959
   31BDTP    C3 6803   8.447  11.040  11.883 -0.0432  0.0327 -0.0878
   31BDTP    C4 6804   8.310  11.066  11.863 -0.0937 -0.2148 -0.0689
   31BDTP    C5 6805   8.243  11.154  11.952 -0.1593 -0.0677 -0.2619
   31BDTP    C6 6806   8.307  11.216  12.059 -0.1755  0.3126 -0.4700
   31BDTP    C7 6807   8.223  11.013  11.760 -0.0886 -0.6193  0.1288
   31BDTP    C8 6808   8.095  11.057  11.767 -0.1464 -0.7806  0.0940
   31BDTP    S1 6809   8.067  11.171  11.906 -0.2151 -0.4430 -0.1942
   31BDTP    C9 6810   8.530  11.243  12.182 -0.1299  0.9644 -0.6867
   31BDTP   C10 6811   8.658  11.199  12.174 -0.0725  1.1256 -0.6518
   31BDTP    S2 6812   8.687  11.085  12.036 -0.0035  0.7883 -0.3637
   32FTM     S1 6813   8.686  11.012  11.703  0.6802 -0.4530  0.2414
   32FTM     C1 6814   8.700  10.852  11.621 -0.0203 -0.0400 -0.7205
   32FTM     C2 6815   8.596  10.772  11.657 -0.2596  0.1221 -1.0403
   32FTM     C3 6816   8.502  10.828  11.748  0.0789 -0.0601 -0.5684
   32FTM     C4 6817   8.534  10.956  11.783  0.5943 -0.3724  0.1359
   32FTM     F1 6818   8.581  10.643  11.609 -0.7994  0.4451 -1.7795
   32FTM     C5 6819   8.829  10.812  11.550 -0.0650  0.5098  0.7068
   32FTM     C6 6820   8.841  10.790  11.393 -0.0462  0.3658 -1.3244
   32FTM     C7 6821   8.824  10.648  11.354  0.5357  0.4251 -0.0903
   32FTM     C8 6822   8.852  10.534  11.463  1.6187  0.0669 -0.2573
   32FTM     C9 6823   8.838  10.386  11.431 -0.3069  0.5023  0.0027
   32FTM    C10 6824   8.832  10.311  11.561 -0.0777 -0.0331 -0.2983
   32FTM    C11 6825   8.809  10.870  11.267  1.2787 -0.4085 -0.1296
   32FTM    C12 6826   8.662  10.918  11.273 -1.1351 -1.5471 -1.3347
   33FTM     S1 6827   8.277  11.472  12.163  0.0530  0.2752 -0.2505
   33FTM     C1 6828   8.148  11.506  12.284  0.4300 -0.5281  0.3977
   33FTM     C2 6829   8.075  11.393  12.307  1.0793 -0.9191  0.5734
   33FTM     C3 6830   8.115  11.276  12.235  1.3173 -0.6251  0.2233
   33FTM     C4 6831   8.221  11.300  12.153  0.8345  0.0121 -0.2356
   33FTM     F1 6832   7.969  11.389  12.396  1.4966 -1.5666  1.0618
   33FTM     C5 6833   8.147  11.619  12.383 -0.4335 -1.4036  1.7203
   33FTM     C6 6834   8.246  11.636  12.499  0.3057 -0.3145  0.4099
   33FTM     C7 6835   8.303  11.775  12.538  0.2436 -0.8041 -0.0072
   33FTM     C8 6836   8.460  11.803  12.549  0.1446 -0.8291 -0.8153
   33FTM     C9 6837   8.568  11.726  12.618  1.1483 -0.1415 -0.9057
   33FTM    C10 6838   8.532  11.660  12.750  0.8108  2.0590 -0.8203
   33FTM    C11 6839   8.203  11.537  12.619  1.0105  0.0007 -0.5237
   33FTM    C12 6840   8.123  11.610  12.742  0.0264  0.6061  0.4689
   34TPM     C1 6841   8.760  11.233  12.266 -0.0551  0.0539 -0.1998
   34TPM     C2 6842   8.758  11.227  12.402 -0.0336 -0.0296 -0.2030
   34TPM     C3 6843   8.875  11.281  12.465 -0.0310 -0.0529 -0.1879
   34TPM     C4 6844   8.968  11.329  12.377 -0.0504  0.0128 -0.1731
   34TPM     S1 6845   8.913  11.309  12.206 -0.0738  0.1100 -0.1772
   35BDD     C1 6846   9.364  11.317  12.393  0.2339 -0.2875  0.2786
   35BDD     C2 6847   9.326  11.416  12.479  0.2027 -0.1583  0.1158
   35BDD     C3 6848   9.182  11.435  12.485  0.2098 -0.0231 -0.1045
   35BDD     C4 6849   9.113  11.350  12.404  0.2470 -0.0511 -0.1066
   35BDD     S1 6850   9.222  11.240  12.315  0.2747 -0.2489  0.1672
   35BDD     C5 6851   9.421  11.497  12.558  0.1652 -0.1543  0.1569
   35BDD     C6 6852   9.119  11.537  12.571  0.1802  0.1290 -0.3051
   35BDD     O1 6853   8.995  11.554  12.577  0.1864  0.2456 -0.4951
   35BDD     O2 6854   9.545  11.481  12.553  0.1588 -0.2708  0.3469
   35BDD     C7 6855   9.214  11.619  12.651  0.1426  0.1330 -0.2640
   35BDD     C8 6856   9.358  11.600  12.644  0.1354 -0.0024 -0.0436
   35BDD     C9 6857   9.428  11.685  12.725  0.0982  0.0257 -0.0416
   35BDD     S2 6858   9.318  11.795  12.815  0.0705  0.2234 -0.3154
   35BDD    C10 6859   9.176  11.718  12.736  0.1111  0.2620 -0.4268
   35BDD    C11 6860   9.051  11.795  12.786 -0.7141  0.0492  0.1850
   35BDD    C12 6861   8.994  11.745  12.927  1.2416 -0.0758  0.7880
   35BDD    C13 6862   8.871  11.646  12.926  0.4686 -0.3138 -1.4399
   35BDD    C14 6863   8.864  11.504  12.858 -0.8760 -1.1914  1.5483
   35BDD    C15 6864   8.971  11.394  12.884  0.0006  0.4490  0.0068
   35BDD    C16 6865   8.937  11.352  13.039  0.3775 -0.2076 -0.6957
   35BDD    C17 6866   8.946  11.865  13.024 -0.2553  0.5937  0.5644
   35BDD    C18 6867   8.890  11.832  13.168  0.6511 -0.1989 -1.2873
   35BDD    C19 6868   9.580  11.704  12.726  0.5764  0.4407 -1.2725
   35BDD    C20 6869   9.642  11.599  12.828  0.3419 -1.4121  0.8261
   35BDD    C21 6870   9.587  11.585  12.976 -1.5178  0.2385  0.0770
   35BDD    C22 6871   9.609  11.465  13.069 -0.7616  1.4404 -1.2648
   35BDD    C23 6872   9.545  11.311  13.038  0.1500 -0.4731 -1.3428
   35BDD    C24 6873   9.542  11.247  12.902  0.2082  0.2672  0.9218
   35BDD    C25 6874   9.785  11.576  12.805 -0.4935  0.8233 -0.3460
   35BDD    C26 6875   9.874  11.696  12.767  0.8214  1.1828  0.2014
   36TPM     C1 6876   9.483  11.259  12.365  0.9103 -1.2599  0.9565
   36TPM     C2 6877   9.563  11.203  12.460  1.4031 -1.8623  0.2114
   36TPM     C3 6878   9.654  11.104  12.408  1.1277 -1.5776 -0.8711
   36TPM     C4 6879   9.643  11.084  12.274  0.4248 -0.7575 -0.9514
   36TPM     S1 6880   9.516  11.190  12.201  0.0536 -0.2782  0.3440
   37BDTP    C1 6881  10.092  10.750  11.986  0.3066  0.3197 -0.2671
   37BDTP    C2 6882  10.051  10.844  11.886  0.1290  0.2260 -0.2837
   37BDTP    C3 6883   9.952  10.938  11.907 -0.0615  0.0300 -0.3060
   37BDTP    C4 6884   9.888  10.940  12.033 -0.0784 -0.0789 -0.3123
   37BDTP    C5 6885   9.929  10.847  12.133  0.0992  0.0143 -0.2958
   37BDTP    C6 6886  10.029  10.753  12.111  0.2898  0.2104 -0.2735
   37BDTP    C7 6887   9.783  11.028  12.078 -0.2597 -0.2836 -0.3344
   37BDTP    C8 6888   9.742  11.006  12.205 -0.2267 -0.3479 -0.3352
   37BDTP    S1 6889   9.832  10.870  12.286  0.0379 -0.1574 -0.3081
   37BDTP    C9 6890  10.198  10.662  11.940  0.4880  0.5245 -0.2451
   37BDTP   C10 6891  10.238  10.685  11.813  0.4551  0.5879 -0.2443
   37BDTP    S2 6892  10.148  10.821  11.733  0.1907  0.3982 -0.2713
   38FTM     S1 6893   9.961  11.212  11.863 -0.0077  0.7005  0.2654
   38FTM     C1 6894   9.934  11.270  11.695 -0.6714  0.4080  0.2638
   38FTM     C2 6895   9.906  11.165  11.614 -0.2811  0.1771  0.4229
   38FTM     C3 6896   9.903  11.036  11.676  0.5376  0.2124  0.5525
   38FTM     C4 6897   9.930  11.043  11.810  0.7827  0.4791  0.4907
   38FTM     F1 6898   9.881  11.178  11.478 -0.6428 -0.0801  0.4605
   38FTM     C5 6899   9.933  11.426  11.673  0.2976  0.2171  0.1914
   38FTM     C6 6900  10.060  11.525  11.682  0.1371  0.4689 -0.0287
   38FTM     C7 6901  10.169  11.500  11.784 -0.9162  0.5682 -0.0237
   38FTM     C8 6902  10.289  11.411  11.726  0.7379  0.6426 -0.2330
   38FTM     C9 6903  10.280  11.377  11.571 -0.5764  0.0224 -0.2856
   38FTM    C10 6904  10.398  11.310  11.511 -0.9813  0.9073  0.3751
   38FTM    C11 6905  10.024  11.676  11.671  0.1958 -0.1572 -0.2437
   38FTM    C12 6906  10.125  11.778  11.654 -0.3267 -0.0691 -0.4627
   39FTM     S1 6907  10.197  10.627  12.314  0.1033  0.1797  0.2570
   39FTM     C1 6908  10.160  10.455  12.353  0.0182  0.1821  0.1844
   39FTM     C2 6909  10.050  10.415  12.283 -0.1149  0.3221  0.3113
   39FTM     C3 6910   9.990  10.513  12.198 -0.1574  0.4344  0.4689
   39FTM     C4 6911  10.055  10.632  12.202 -0.0538  0.3773  0.4626
   39FTM     F1 6912   9.998  10.287  12.293 -0.2053  0.3579  0.2922
   39FTM     C5 6913  10.203  10.387  12.471 -0.0377 -0.3318 -0.0252
   39FTM     C6 6914  10.167  10.450  12.611  0.2615  1.8491  0.5370
   39FTM     C7 6915  10.089  10.574  12.635  1.7585 -0.4731 -0.4765
   39FTM     C8 6916   9.958  10.613  12.567  0.8657  0.8072 -0.8471
   39FTM     C9 6917   9.819  10.584  12.622 -0.2269 -0.8579  0.7348
   39FTM    C10 6918   9.785  10.445  12.574  0.4430 -0.0055 -1.0566
   39FTM    C11 6919  10.134  10.351  12.719  0.7464 -0.2434 -2.0232
   39FTM    C12 6920  10.145  10.391  12.878 -1.1345  0.8499  0.3145
   40TPM     C1 6921  10.336  10.617  11.738  0.4003  0.3760 -0.1455
   40TPM     C2 6922  10.362  10.635  11.605  1.4939  0.6993  0.0904
   40TPM     C3 6923  10.466  10.550  11.554  1.9124  0.8147  0.7279
   40TPM     C4 6924  10.520  10.467  11.648  1.1378  0.5789  0.9780
   40TPM     S1 6925  10.443  10.490  11.809 -0.1898  0.1906  0.4236
   41BDD     C1 6926  10.665  10.108  11.565 -0.0884 -0.0538 -0.1460
   41BDD     C2 6927  10.762  10.198  11.530 -0.0782 -0.0372 -0.0750
   41BDD     C3 6928  10.724  10.336  11.555  0.0205 -0.0639  0.2350
   41BDD     C4 6929  10.598  10.349  11.608  0.0848 -0.1005  0.3959
   41BDD     S1 6930  10.519  10.190  11.631  0.0255 -0.1040  0.1703
   41BDD     C5 6931  10.893  10.161  11.473 -0.1593  0.0036 -0.2894
   41BDD     C6 6932  10.813  10.450  11.525  0.0482 -0.0522  0.3604
   41BDD     O1 6933  10.780  10.569  11.546  0.1335 -0.0749  0.6277
   41BDD     O2 6934  10.925  10.042  11.451 -0.2446  0.0265 -0.5567
   41BDD     C7 6935  10.944  10.412  11.467 -0.0329 -0.0110  0.1460
   41BDD     C8 6936  10.982  10.274  11.443 -0.1316  0.0157 -0.1640
   41BDD     C9 6937  11.107  10.261  11.389 -0.1957  0.0522 -0.3249
   41BDD     S2 6938  11.186  10.421  11.366 -0.1365  0.0558 -0.0993
   41BDD    C10 6939  11.041  10.502  11.433 -0.0229  0.0057  0.2170
   41BDD    C11 6940  11.026  10.648  11.392 -0.5364  0.9422  0.8047
   41BDD    C12 6941  10.949  10.679  11.261 -0.0699  0.5293 -0.3690
   41BDD    C13 6942  10.979  10.611  11.135 -1.2341  0.2682 -0.3282
   41BDD    C14 6943  11.117  10.629  11.048  1.1291  0.8057 -0.0777
   41BDD    C15 6944  11.228  10.738  11.043 -0.7726 -0.7704  0.3878
   41BDD    C16 6945  11.318  10.738  11.165  0.1408 -0.6079  0.9008
   41BDD    C17 6946  10.913  10.822  11.239 -1.1805 -0.2417 -0.8008
   41BDD    C18 6947  10.849  10.892  11.369 -0.4668 -0.1803 -1.2962
   41BDD    C19 6948  11.192  10.141  11.348  0.5608 -0.6721 -0.2769
   41BDD    C20 6949  11.252  10.125  11.208 -1.1259  0.0738 -0.4464
   41BDD    C21 6950  11.363  10.015  11.188  0.3022  0.8077  0.1229
   41BDD    C22 6951  11.521  10.052  11.152 -0.1041 -0.3701  0.0191
   41BDD    C23 6952  11.565  10.147  11.271  0.3889 -0.5526  0.9402
   41BDD    C24 6953  11.691  10.136  11.349 -1.9161 -0.1939  0.1563
   41BDD    C25 6954  11.174  10.168  11.080 -0.8432  0.1743 -0.2951
   41BDD    C26 6955  11.273  10.210  10.963 -0.1780  0.0709 -0.0687
   42TPM     C1 6956  10.655   9.960  11.562 -0.3737 -0.5228  1.0857
   42TPM     C2 6957  10.749   9.888  11.630 -0.6249 -0.8533  1.0860
   42TPM     C3 6958  10.768   9.755  11.578 -0.3626 -0.5713  0.4346
   42TPM     C4 6959  10.688   9.726  11.471  0.0885 -0.0255 -0.0624
   42TPM     S1 6960  10.583   9.865  11.427  0.2179  0.1759  0.2564
   43BDTP    C1 6961  10.668   9.261  11.045 -0.1583  0.0439  0.1340
   43BDTP    C2 6962  10.798   9.245  11.101 -0.0548  0.0708 -0.0963
   43BDTP    C3 6963  10.846   9.326  11.203  0.1295  0.1144 -0.2172
   43BDTP    C4 6964  10.763   9.427  11.252  0.2160  0.1323 -0.1066
   43BDTP    C5 6965  10.633   9.444  11.196  0.1121  0.1049  0.1240
   43BDTP    C6 6966  10.584   9.363  11.094 -0.0717  0.0616  0.2450
   43BDTP    C7 6967  10.791   9.523  11.357  0.4051  0.1765 -0.1970
   43BDTP    C8 6968  10.690   9.610  11.382  0.4480  0.1836 -0.0477
   43BDTP    S1 6969  10.545   9.582  11.276  0.2549  0.1354  0.2289
   43BDTP    C9 6970  10.640   9.165  10.940 -0.3476 -0.0005  0.2248
   43BDTP   C10 6971  10.741   9.079  10.915 -0.3905 -0.0074  0.0753
   43BDTP    S2 6972  10.886   9.107  11.020 -0.1973  0.0402 -0.2010
   44FTM     S1 6973  11.095   9.414  11.313 -0.7823  0.0014  0.5176
   44FTM     C1 6974  11.181   9.299  11.421  0.2368  0.5131  0.2816
   44FTM     C2 6975  11.113   9.181  11.427  1.1296 -0.0226  0.2322
   44FTM     C3 6976  10.993   9.174  11.349  1.0767 -0.8435  0.3710
   44FTM     C4 6977  10.968   9.290  11.281  0.1124 -0.9399  0.5320
   44FTM     F1 6978  11.155   9.073  11.502  2.0471  0.1988  0.0582
   44FTM     C5 6979  11.285   9.329  11.516  0.5431  0.0616  0.1130
   44FTM     C6 6980  11.425   9.322  11.471 -1.5495  0.6820 -0.2496
   44FTM     C7 6981  11.515   9.225  11.556 -1.0649 -0.1453 -0.1607
   44FTM     C8 6982  11.497   9.211  11.702  0.1441  0.2210  0.6983
   44FTM     C9 6983  11.605   9.207  11.810  1.0727 -0.1149 -0.3250
   44FTM    C10 6984  11.706   9.091  11.792 -0.2666 -0.4310 -0.3775
   44FTM    C11 6985  11.494   9.429  11.374  1.0779  1.1788  0.3460
   44FTM    C12 6986  11.596   9.361  11.286 -1.0244  0.0615 -1.1913
   45FTM     S1 6987  10.432   9.407  10.856  0.0340 -0.6388 -0.2112
   45FTM     C1 6988  10.259   9.359  10.872 -0.1963  0.2674  0.1380
   45FTM     C2 6989  10.230   9.332  11.002 -0.2224  0.9308  0.2773
   45FTM     C3 6990  10.338   9.346  11.095 -0.0691  0.7784  0.1254
   45FTM     C4 6991  10.453   9.386  11.034  0.0794 -0.0279 -0.1397
   45FTM     F1 6992  10.104   9.292  11.044 -0.3870  1.7149  0.5512
   45FTM     C5 6993  10.166   9.371  10.755 -0.2461  0.2837  0.1761
   45FTM     C6 6994  10.058   9.265  10.741 -0.0565 -1.8752  0.1735
   45FTM     C7 6995   9.924   9.324  10.737  1.2897 -0.4272 -0.8532
   45FTM     C8 6996   9.859   9.344  10.881 -0.0481 -0.8235  0.5692
   45FTM     C9 6997   9.708   9.373  10.870 -0.6277 -0.5138  1.3665
   45FTM    C10 6998   9.633   9.262  10.795 -0.1915 -1.1269  0.1444
   45FTM    C11 6999  10.083   9.148  10.655 -0.5510  0.0541 -0.1363
   45FTM    C12 7000  10.036   9.148  10.518  0.8503 -0.6386  1.0865
   46TPM     C1 7001  10.767   8.993  10.797 -0.0250 -0.5678 -0.4172
   46TPM     C2 7002  10.686   8.968  10.690  0.7317 -0.9291 -0.9227
   46TPM     C3 7003  10.743   8.877  10.594  1.7474 -0.6411 -0.6135
   46TPM     C4 7004  10.868   8.833  10.628  1.7653 -0.0605  0.1276
   46TPM     S1 7005  10.923   8.904  10.784  0.4910  0.1697  0.4955
   47BDD     C1 7006  11.150   8.772  10.367 -0.0413  0.1907 -0.0304
   47BDD     C2 7007  11.051   8.687  10.329 -0.0329  0.1903 -0.0510
   47BDD     C3 7008  10.933   8.693  10.414  0.0303  0.0396  0.0486
   47BDD     C4 7009  10.944   8.783  10.516  0.0690 -0.0722  0.1444
   47BDD     S1 7010  11.103   8.867  10.513  0.0291  0.0029  0.1154
   47BDD     C5 7011  11.061   8.596  10.213 -0.0827  0.3281 -0.1633
   47BDD     C6 7012  10.814   8.609  10.390  0.0501  0.0126  0.0458
   47BDD     O1 7013  10.712   8.614  10.463  0.1047 -0.1171  0.1316
   47BDD     O2 7014  11.162   8.590  10.140 -0.1373  0.4578 -0.2494
   47BDD     C7 7015  10.824   8.518  10.274  0.0005  0.1502 -0.0668
   47BDD     C8 7016  10.941   8.512  10.189 -0.0627  0.3006 -0.1664
   47BDD     C9 7017  10.930   8.421  10.088 -0.1016  0.4127 -0.2623
   47BDD     S2 7018  10.772   8.338  10.091 -0.0615  0.3377 -0.2339
   47BDD    C10 7019  10.725   8.432  10.236  0.0091  0.1497 -0.0880
   47BDD    C11 7020  10.620   8.371  10.312  0.0040 -0.3099 -0.7295
   47BDD    C12 7021  10.475   8.419  10.332  0.1301 -0.6819 -1.0950
   47BDD    C13 7022  10.400   8.422  10.465  0.9840  0.1349  1.2320
   47BDD    C14 7023  10.433   8.514  10.585  0.5974  1.0358  1.1979
   47BDD    C15 7024  10.310   8.547  10.669  0.2331 -0.1547  1.1345
   47BDD    C16 7025  10.305   8.548  10.822  0.4985 -0.4960 -0.4093
   47BDD    C17 7026  10.400   8.390  10.201 -1.4424 -1.8130  0.6557
   47BDD    C18 7027  10.274   8.455  10.144  0.0082 -0.8039 -1.1820
   47BDD    C19 7028  11.028   8.379   9.984  1.2482  0.0538 -0.3827
   47BDD    C20 7029  11.000   8.406   9.839  0.5528  0.0938  1.7743
   47BDD    C21 7030  11.099   8.470   9.745 -0.1108  0.0817 -0.0144
   47BDD    C22 7031  11.241   8.422   9.735 -0.0840  0.2790  0.6697
   47BDD    C23 7032  11.340   8.385   9.859 -1.1626  1.1199  0.6348
   47BDD    C24 7033  11.341   8.225   9.882 -0.1798  0.7210 -0.8673
   47BDD    C25 7034  10.914   8.287   9.758  0.9278  0.1330 -0.0748
   47BDD    C26 7035  10.957   8.240   9.610 -0.0692 -0.6442 -0.4207
   48TPM     C1 7036  11.295   8.791  10.324 -0.3425  0.0672  0.0271
   48TPM     C2 7037  11.385   8.699  10.279 -0.3664  0.1824 -0.2627
   48TPM     C3 7038  11.516   8.754  10.254 -0.3786  0.2475 -0.1848
   48TPM     C4 7039  11.525   8.888  10.279 -0.3633  0.1826  0.1648
   48TPM     S1 7040  11.369   8.956  10.337 -0.3329  0.0323  0.4245
   49BDTP    C1 7041  12.050   9.230  10.313  0.0307 -0.1557  0.0980
   49BDTP    C2 7042  12.084   9.113  10.387 -0.0961 -0.1376  0.1867
   49BDTP    C3 7043  11.996   9.007  10.405 -0.1999 -0.0420  0.2403
   49BDTP    C4 7044  11.868   9.017  10.348 -0.1778  0.0398  0.2041
   49BDTP    C5 7045  11.833   9.134  10.274 -0.0510  0.0210  0.1154
   49BDTP    C6 7046  11.922   9.240  10.256  0.0528 -0.0742  0.0624
   49BDTP    C7 7047  11.760   8.921  10.354 -0.2700  0.1451  0.2465
   49BDTP    C8 7048  11.647   8.959  10.289 -0.2192  0.2062  0.1945
   49BDTP    S1 7049  11.662   9.123  10.211 -0.0475  0.1385  0.0846
   49BDTP    C9 7050  12.158   9.326  10.307  0.1229 -0.2615  0.0558
   49BDTP   C10 7051  12.270   9.288  10.372  0.0721 -0.3223  0.1080
   49BDTP    S2 7052  12.255   9.124  10.450 -0.0996 -0.2548  0.2180
   50FTM     S1 7053  11.947   8.820  10.629 -0.2089  0.1287  0.2748
   50FTM     C1 7054  12.058   8.678  10.628 -0.4321 -0.0442 -0.1192
   50FTM     C2 7055  12.148   8.692  10.527 -0.3024  0.1802  0.0246
   50FTM     C3 7056  12.137   8.810  10.447 -0.0283  0.4928  0.4396
   50FTM     C4 7057  12.034   8.890  10.488  0.0547  0.5080  0.6199
   50FTM     F1 7058  12.246   8.597  10.501 -0.4243  0.1159 -0.2117
   50FTM     C5 7059  12.063   8.581  10.740  1.3958 -0.8758 -0.4929
   50FTM     C6 7060  11.956   8.495  10.769  1.2730  0.3527  0.0412
   50FTM     C7 7061  11.833   8.508  10.672 -0.0043  0.3138 -0.1064
   50FTM     C8 7062  11.703   8.425  10.690 -1.7340 -0.2686  0.6148
   50FTM     C9 7063  11.602   8.430  10.574  0.2580  0.8099 -0.5068
   50FTM    C10 7064  11.645   8.403  10.428 -0.3074 -0.9010  1.6344
   50FTM    C11 7065  11.987   8.346  10.798  0.7821  0.5776  0.2306
   50FTM    C12 7066  12.041   8.251  10.683 -0.7249 -0.8354  0.0492
   51FTM     S1 7067  11.945   9.475  10.081 -0.3120 -0.0079 -0.0551
   51FTM     C1 7068  11.810   9.592  10.101 -0.2255  0.0688  0.0802
   51FTM     C2 7069  11.720   9.546  10.191 -0.1461  0.1338  0.1929
   51FTM     C3 7070  11.750   9.418  10.250 -0.1477  0.1283  0.1802
   51FTM     C4 7071  11.867   9.366  10.202 -0.2309  0.0564  0.0547
   51FTM     F1 7072  11.606   9.615  10.227 -0.0673  0.2022  0.3133
   51FTM     C5 7073  11.784   9.722  10.032  0.4673 -0.6811  0.5669
   51FTM     C6 7074  11.739   9.735   9.877 -0.5005 -0.5808 -1.5946
   51FTM     C7 7075  11.839   9.721   9.755 -1.1611 -0.5079 -0.7722
   51FTM     C8 7076  11.995   9.745   9.769  0.2624  0.2935 -0.1893
   51FTM     C9 7077  12.054   9.865   9.845 -0.2266 -1.2680  0.9360
   51FTM    C10 7078  11.993   9.994   9.800  0.6254 -0.8682  0.5241
   51FTM    C11 7079  11.598   9.673   9.869 -0.7177 -1.9119 -0.2985
   51FTM    C12 7080  11.540   9.693   9.727  0.6517 -0.5132 -0.7334
   52TPM     C1 7081  12.387   9.375  10.404  0.0315 -0.1098 -0.1244
   52TPM     C2 7082  12.513   9.325  10.426  0.0018 -0.0677  0.1523
   52TPM     C3 7083  12.618   9.421  10.401  0.0270 -0.0391  0.3629
   52TPM     C4 7084  12.573   9.543  10.360  0.0760 -0.0591  0.2471
   52TPM     S1 7085  12.393   9.547  10.350  0.0942 -0.1161 -0.1400
   53BDD     C1 7086  12.730   9.766  10.089 -0.2009  0.6329  0.2253
   53BDD     C2 7087  12.828   9.756  10.184 -0.1022  0.5243  0.1135
   53BDD     C3 7088  12.789   9.677  10.299  0.1137  0.1671 -0.0565
   53BDD     C4 7089  12.662   9.627  10.290  0.1765  0.0088 -0.0718
   53BDD     S1 7090  12.582   9.676  10.137 -0.0303  0.2956  0.1254
   53BDD     C5 7091  12.961   9.820  10.173 -0.2027  0.7451  0.1590
   53BDD     C6 7092  12.879   9.653  10.414  0.2498 -0.0041 -0.1976
   53BDD     O1 7093  12.845   9.584  10.513  0.4359 -0.3121 -0.3443
   53BDD     O2 7094  12.995   9.888  10.074 -0.3888  1.0531  0.3057
   53BDD     C7 7095  13.012   9.716  10.402  0.1493  0.2162 -0.1521
   53BDD     C8 7096  13.051   9.796  10.287 -0.0665  0.5739  0.0181
   53BDD     C9 7097  13.178   9.846  10.297 -0.1293  0.7327  0.0336
   53BDD     S2 7098  13.257   9.796  10.450  0.0775  0.4456 -0.1638
   53BDD    C10 7099  13.110   9.707  10.498  0.2480  0.1080 -0.2637
   53BDD    C11 7100  13.127   9.644  10.625  0.5695  0.3842 -0.3544
   53BDD    C12 7101  13.176   9.493  10.630  1.2976 -0.0252 -0.0748
   53BDD    C13 7102  13.120   9.406  10.518  0.8407  0.5707 -0.6734
   53BDD    C14 7103  13.141   9.257  10.495  0.1231 -0.1882 -1.2686
   53BDD    C15 7104  13.093   9.151  10.596 -0.1848 -0.4506  0.6212
   53BDD    C16 7105  13.170   9.027  10.541  0.4202 -0.7191  0.1363
   53BDD    C17 7106  13.334   9.492  10.674  1.3863 -0.0609  0.4383
   53BDD    C18 7107  13.423   9.525  10.562  0.0118  0.7212 -0.8857
   53BDD    C19 7108  13.262   9.942  10.200  0.8311 -0.7175  0.4355
   53BDD    C20 7109  13.334   9.859  10.095  0.1061  0.9500  1.4595
   53BDD    C21 7110  13.446   9.956  10.071  0.2931 -0.4718  0.5906
   53BDD    C22 7111  13.475  10.022   9.937 -0.5537 -0.0919  0.9022
   53BDD    C23 7112  13.374  10.077   9.832  0.2935  0.3426 -0.2444
   53BDD    C24 7113  13.296  10.192   9.880  0.3613  0.1211  0.3097
   53BDD    C25 7114  13.397   9.730  10.108  0.1309  1.0817 -0.0191
   53BDD    C26 7115  13.329   9.594  10.125 -0.3966 -1.2788  0.1126
   54TPM     C1 7116  12.720   9.827   9.959 -1.0253 -0.2557  0.0788
   54TPM     C2 7117  12.802   9.805   9.853 -1.3802 -0.8216 -0.0882
   54TPM     C3 7118  12.766   9.880   9.735 -1.0017 -0.4284  0.0417
   54TPM     C4 7119  12.656   9.959   9.753 -0.3582  0.4367  0.3084
   54TPM     S1 7120  12.590   9.945   9.920 -0.1789  0.8254  0.4159
   55BDTP    C1 7121  12.529  10.330   9.252 -0.3955  0.0188  0.0577
   55BDTP    C2 7122  12.456  10.394   9.356 -0.3749 -0.0298  0.1020
   55BDTP    C3 7123  12.456  10.348   9.487 -0.3035 -0.0587  0.0925
   55BDTP    C4 7124  12.530  10.233   9.517 -0.2498 -0.0389  0.0362
   55BDTP    C5 7125  12.603  10.168   9.413 -0.2705  0.0098 -0.0086
   55BDTP    C6 7126  12.603  10.214   9.282 -0.3419  0.0385  0.0009
   55BDTP    C7 7127  12.544  10.167   9.645 -0.1725 -0.0616  0.0158
   55BDTP    C8 7128  12.623  10.056   9.642 -0.1346 -0.0331 -0.0415
   55BDTP    S1 7129  12.691  10.021   9.477 -0.1915  0.0269 -0.0777
   55BDTP    C9 7130  12.514  10.396   9.124 -0.4729  0.0415  0.0777
   55BDTP   C10 7131  12.435  10.506   9.127 -0.5108  0.0131  0.1349
   55BDTP    S2 7132  12.368  10.541   9.292 -0.4539 -0.0465  0.1709
   56FTM     S1 7133  12.225  10.412   9.642 -0.4904 -0.0721 -0.2927
   56FTM     C1 7134  12.249  10.550   9.755 -0.3578 -0.1315 -0.2487
   56FTM     C2 7135  12.377  10.595   9.747 -0.2861 -0.3173 -0.1597
   56FTM     C3 7136  12.462  10.527   9.654 -0.3288 -0.4225 -0.1214
   56FTM     C4 7137  12.397  10.426   9.589 -0.4368 -0.3130 -0.1831
   56FTM     F1 7138  12.425  10.701   9.822 -0.1774 -0.4034 -0.1075
   56FTM     C5 7139  12.150  10.570   9.859  0.3734 -0.7516 -0.9067
   56FTM     C6 7140  12.002  10.559   9.826  0.0425 -1.0234 -0.6810
   56FTM     C7 7141  11.908  10.552   9.959  0.0762  0.2072 -0.6054
   56FTM     C8 7142  11.850  10.402   9.987 -0.6270 -0.5500 -0.5300
   56FTM     C9 7143  11.950  10.305  10.054 -0.0572  0.7238  0.8238
   56FTM    C10 7144  11.920  10.265  10.196 -0.2254  0.6946  1.1204
   56FTM    C11 7145  11.945  10.637   9.708  0.6592  0.2966  0.2647
   56FTM    C12 7146  11.954  10.792   9.719  0.3286  0.0513 -0.8837
   57FTM     S1 7147  12.592  10.100   9.017 -0.0603 -0.0087  0.2016
   57FTM     C1 7148  12.738  10.005   8.971 -0.1948 -0.3120  0.3951
   57FTM     C2 7149  12.829  10.008   9.072 -0.0907 -0.0298  0.2954
   57FTM     C3 7150  12.791  10.083   9.189  0.0956  0.4282  0.0682
   57FTM     C4 7151  12.668  10.138   9.176  0.1353  0.4996 -0.0088
   57FTM     F1 7152  12.952   9.944   9.065 -0.1578 -0.1700  0.4044
   57FTM     C5 7153  12.731   9.919   8.866  0.2510  0.4963  0.6230
   57FTM     C6 7154  12.772  10.010   8.743  0.6351  1.4070  0.3037
   57FTM     C7 7155  12.691   9.989   8.612 -0.8038  0.6510 -1.2179
   57FTM     C8 7156  12.768   9.878   8.531  0.9721 -1.1718  0.9217
   57FTM     C9 7157  12.775   9.743   8.578 -0.0763  0.9018  0.1360
   57FTM    C10 7158  12.723   9.638   8.473 -0.3369 -1.5165 -0.5286
   57FTM    C11 7159  12.905  10.079   8.731 -0.7940  1.0333  0.3532
   57FTM    C12 7160  12.952  10.158   8.611  0.7716  0.1638  0.2454
   58TPM     C1 7161  12.441  10.609   9.023  0.2304  0.5540 -0.1764
   58TPM     C2 7162  12.410  10.741   9.013 -0.2928  0.4215 -0.3860
   58TPM     C3 7163  12.425  10.795   8.880 -0.9341  0.1729 -0.5665
   58TPM     C4 7164  12.467  10.703   8.789 -0.9000  0.1158 -0.4945
   58TPM     S1 7165  12.492  10.541   8.864 -0.0485  0.3738 -0.1905
   59BDD     C1 7166  12.495  10.866   8.434 -0.0505  0.4951  0.1166
   59BDD     C2 7167  12.623  10.856   8.482 -0.0337  0.3951  0.0515
   59BDD     C3 7168  12.632  10.797   8.614  0.0019  0.2344 -0.0224
   59BDD     C4 7169  12.510  10.762   8.666  0.0118  0.2143 -0.0126
   59BDD     S1 7170  12.376  10.801   8.552 -0.0229  0.3953  0.0896
   59BDD     C5 7171  12.742  10.902   8.407 -0.0498  0.4435  0.0551
   59BDD     C6 7172  12.760  10.777   8.684  0.0249  0.1066 -0.1001
   59BDD     O1 7173  12.767  10.726   8.798  0.0556 -0.0322 -0.1640
   59BDD     O2 7174  12.735  10.953   8.293 -0.0806  0.5817  0.1190
   59BDD     C7 7175  12.879  10.822   8.609  0.0088  0.1547 -0.0968
   59BDD     C8 7176  12.871  10.882   8.477 -0.0268  0.3154 -0.0226
   59BDD     C9 7177  12.993  10.917   8.425 -0.0366  0.3352 -0.0322
   59BDD     S2 7178  13.126  10.878   8.539 -0.0020  0.1544 -0.1347
   59BDD    C10 7179  13.007  10.813   8.657  0.0256  0.0544 -0.1616
   59BDD    C11 7180  13.073  10.748   8.781  0.7858 -0.9158 -0.6483
   59BDD    C12 7181  13.159  10.844   8.870 -0.8849 -0.0696  0.7358
   59BDD    C13 7182  13.317  10.835   8.823  0.4295 -0.5911 -1.1424
   59BDD    C14 7183  13.428  10.895   8.920  1.6433 -1.2575  0.3336
   59BDD    C15 7184  13.441  10.806   9.046  0.9994 -0.0139  0.3646
   59BDD    C16 7185  13.518  10.861   9.172 -0.3699 -1.4336  1.5887
   59BDD    C17 7186  13.124  10.989   8.904 -0.5766  0.3717 -0.8203
   59BDD    C18 7187  12.989  11.004   8.970 -0.0713 -0.9800  1.0878
   59BDD    C19 7188  13.046  10.972   8.299 -0.3590  0.8099 -1.1394
   59BDD    C20 7189  13.179  10.913   8.251  0.2446  2.3877 -0.2721
   59BDD    C21 7190  13.149  10.764   8.210  0.7157 -1.0690 -0.3450
   59BDD    C22 7191  13.071  10.729   8.083 -0.8298 -0.1125  0.4746
   59BDD    C23 7192  13.038  10.573   8.103  0.7652  1.2442  0.5317
   59BDD    C24 7193  12.966  10.521   7.976 -1.5102 -0.1280  0.0746
   59BDD    C25 7194  13.254  11.002   8.158  0.5189 -0.0730 -1.4280
   59BDD    C26 7195  13.290  11.139   8.238  0.0000 -0.3018  0.2954
   60TPM     C1 7196  12.436  10.919   8.311  0.0712  0.3004 -0.2130
   60TPM     C2 7197  12.329  10.856   8.257  0.0343  0.3366 -0.1824
   60TPM     C3 7198  12.272  10.924   8.144 -0.2379  0.5746  0.0947
   60TPM     C4 7199  12.336  11.040   8.112 -0.4085  0.7193  0.2753
   60TPM     S1 7200  12.475  11.072   8.224 -0.2372  0.5657  0.1082
    1BDTP    C1 7201   5.026   8.507   1.711 -0.0038 -0.1264  0.0603
    1BDTP    C2 7202   5.107   8.392   1.735 -0.0194 -0.1349  0.0720
    1BDTP    C3 7203   5.202   8.387   1.836 -0.1357 -0.1974  0.1794
    1BDTP    C4 7204   5.218   8.501   1.917 -0.2414 -0.2544  0.2802
    1BDTP    C5 7205   5.137   8.616   1.894 -0.2258 -0.2456  0.2685
    1BDTP    C6 7206   5.042   8.620   1.793 -0.1098 -0.1828  0.1611
    1BDTP    C7 7207   5.311   8.519   2.027 -0.3709 -0.3243  0.4006
    1BDTP    C8 7208   5.303   8.640   2.087 -0.4524 -0.3676  0.4789
    1BDTP    S1 7209   5.177   8.749   2.012 -0.3763 -0.3266  0.4112
    1BDTP    C9 7210   4.933   8.489   1.601  0.1256 -0.0565 -0.0601
    1BDTP   C10 7211   4.941   8.367   1.541  0.2071 -0.0129 -0.1384
    1BDTP    S2 7212   5.067   8.259   1.617  0.1311 -0.0541 -0.0706
    2FTM     S1 7213   5.272   8.101   1.855 -0.2508  0.6266 -0.3698
    2FTM     C1 7214   5.441   8.069   1.801 -0.3192  0.3433 -0.4187
    2FTM     C2 7215   5.503   8.186   1.770  0.0350  0.2897  0.0604
    2FTM     C3 7216   5.424   8.305   1.785  0.3734  0.4618  0.4844
    2FTM     C4 7217   5.298   8.278   1.830  0.2746  0.6530  0.3249
    2FTM     F1 7218   5.634   8.192   1.725  0.0743  0.0818  0.1433
    2FTM     C5 7219   5.501   7.930   1.799  0.3396 -0.8517  0.1109
    2FTM     C6 7220   5.611   7.909   1.896  0.1233 -0.1311 -0.0306
    2FTM     C7 7221   5.686   7.776   1.862 -0.5138  0.4183  0.6933
    2FTM     C8 7222   5.731   7.755   1.715  0.2193  0.3997  0.0552
    2FTM     C9 7223   5.862   7.669   1.695 -0.8003 -0.2756  0.5513
    2FTM    C10 7224   5.841   7.546   1.617  0.3362  0.6241 -0.2130
    2FTM    C11 7225   5.608   7.934   2.047 -1.3463 -0.8854 -1.5530
    2FTM    C12 7226   5.533   7.821   2.122  0.2030 -0.2162 -0.3296
    3FTM     S1 7227   4.797   8.745   1.882 -0.0200 -0.1979 -0.5221
    3FTM     C1 7228   4.769   8.916   1.833  0.2379  0.1444  0.4774
    3FTM     C2 7229   4.873   8.961   1.759  0.4663  0.5434  1.0257
    3FTM     C3 7230   4.979   8.867   1.736  0.4550  0.6058  0.7098
    3FTM     C4 7231   4.955   8.746   1.795  0.2100  0.2424 -0.1072
    3FTM     F1 7232   4.879   9.089   1.707  0.6992  0.8757  1.8464
    3FTM     C5 7233   4.638   8.987   1.842 -0.3392  1.1674  0.3066
    3FTM     C6 7234   4.493   8.911   1.813 -0.1901  0.5914 -0.8193
    3FTM     C7 7235   4.502   8.836   1.682 -0.4809  0.6258  0.7200
    3FTM     C8 7236   4.505   8.698   1.627 -0.1724 -1.7939 -0.2550
    3FTM     C9 7237   4.487   8.592   1.725 -0.4515  0.9546 -0.8867
    3FTM    C10 7238   4.551   8.463   1.677 -0.2907 -0.0231 -0.4090
    3FTM    C11 7239   4.380   9.021   1.814 -0.7484 -0.0280 -0.1160
    3FTM    C12 7240   4.235   8.990   1.806  0.7872 -0.2327 -0.2765
    4TPM     C1 7241   4.847   8.324   1.442  0.0994 -0.0637  0.4949
    4TPM     C2 7242   4.768   8.214   1.456 -1.0289  0.8116  1.5010
    4TPM     C3 7243   4.650   8.216   1.374 -1.2636  1.4603  1.8443
    4TPM     C4 7244   4.638   8.329   1.297 -0.3147  1.0799  1.1001
    4TPM     S1 7245   4.777   8.441   1.323  0.9595 -0.1368 -0.1015
    5BDD     C1 7246   4.335   8.496   1.137 -0.5044 -0.3848 -0.0884
    5BDD     C2 7247   4.366   8.396   1.049 -0.2871 -0.2604 -0.1585
    5BDD     C3 7248   4.480   8.316   1.090  0.0143  0.0827 -0.3173
    5BDD     C4 7249   4.535   8.357   1.208  0.0218  0.2148 -0.3661
    5BDD     S1 7250   4.448   8.498   1.276 -0.3474 -0.0811 -0.2165
    5BDD     C5 7251   4.290   8.369   0.924 -0.3480 -0.4520 -0.0819
    5BDD     C6 7252   4.530   8.202   1.010  0.2832  0.2670 -0.4149
    5BDD     O1 7253   4.628   8.133   1.045  0.5430  0.5629 -0.5518
    5BDD     O2 7254   4.192   8.438   0.889 -0.6078 -0.7479  0.0550
    5BDD     C7 7255   4.455   8.175   0.886  0.2224  0.0753 -0.3384
    5BDD     C8 7256   4.340   8.255   0.845 -0.0788 -0.2675 -0.1795
    5BDD     C9 7257   4.285   8.214   0.727 -0.0863 -0.3994 -0.1308
    5BDD     S2 7258   4.372   8.073   0.658  0.2829 -0.1034 -0.2803
    5BDD    C10 7259   4.485   8.075   0.798  0.4401  0.2003 -0.4084
    5BDD    C11 7260   4.590   7.974   0.797 -0.9990 -0.5687  0.2670
    5BDD    C12 7261   4.721   8.026   0.751 -3.4677 -0.0923  1.2065
    5BDD    C13 7262   4.805   8.143   0.814  0.1608 -1.1366  1.7039
    5BDD    C14 7263   4.904   8.111   0.924  0.4292 -1.8232 -1.8199
    5BDD    C15 7264   4.966   8.249   0.953 -0.4829 -1.0915  1.1618
    5BDD    C16 7265   5.097   8.254   1.021 -1.7972 -0.8969  0.1461
    5BDD    C17 7266   4.815   7.950   0.650 -0.6071 -0.2182 -0.2277
    5BDD    C18 7267   4.817   7.977   0.508 -0.5698 -0.4533  0.9723
    5BDD    C19 7268   4.175   8.283   0.640 -0.5617 -0.2269  1.2045
    5BDD    C20 7269   4.043   8.260   0.710 -0.0591  1.0366 -0.9446
    5BDD    C21 7270   3.941   8.375   0.709  0.7021 -0.8089  0.2909
    5BDD    C22 7271   3.825   8.363   0.813  0.0669  0.4024 -1.2723
    5BDD    C23 7272   3.860   8.365   0.962  0.5241  0.2504  0.5362
    5BDD    C24 7273   3.748   8.445   1.032 -0.4716 -0.2690 -0.7639
    5BDD    C25 7274   3.996   8.107   0.717  1.7184  0.4531 -0.4106
    5BDD    C26 7275   3.885   8.047   0.614 -0.8572 -0.0734 -1.4627
    6TPM     C1 7276   4.226   8.590   1.142 -0.9068 -1.6227 -0.4926
    6TPM     C2 7277   4.140   8.598   1.248 -1.4267 -1.9410 -0.8831
    6TPM     C3 7278   4.029   8.687   1.226 -0.5665 -0.7660 -0.6573
    6TPM     C4 7279   4.030   8.747   1.104  0.6094  0.4478 -0.0946
    6TPM     S1 7280   4.173   8.696   1.006  0.7223  0.1999  0.1960
    7BDTP    C1 7281   3.486   8.992   0.927 -0.1155 -0.0367 -0.1781
    7BDTP    C2 7282   3.541   8.945   0.804 -0.0644  0.0439 -0.1860
    7BDTP    C3 7283   3.667   8.887   0.795 -0.0286  0.1204 -0.1846
    7BDTP    C4 7284   3.742   8.874   0.913 -0.0440  0.1175 -0.1751
    7BDTP    C5 7285   3.688   8.920   1.036 -0.0952  0.0372 -0.1671
    7BDTP    C6 7286   3.562   8.979   1.045 -0.1308 -0.0391 -0.1685
    7BDTP    C7 7287   3.874   8.817   0.928 -0.0139  0.1886 -0.1718
    7BDTP    C8 7288   3.921   8.818   1.055 -0.0396  0.1652 -0.1621
    7BDTP    S1 7289   3.804   8.892   1.174 -0.1056  0.0505 -0.1555
    7BDTP    C9 7290   3.354   9.049   0.912 -0.1456 -0.1075 -0.1813
    7BDTP   C10 7291   3.307   9.047   0.785 -0.1199 -0.0844 -0.1912
    7BDTP    S2 7292   3.424   8.973   0.667 -0.0538  0.0304 -0.1977
    8FTM     S1 7293   3.832   8.709   0.628  0.9333  0.1265  0.3960
    8FTM     C1 7294   3.828   8.751   0.452  0.6283 -0.3923  0.2749
    8FTM     C2 7295   3.757   8.866   0.433 -0.0040 -0.8214 -0.0271
    8FTM     C3 7296   3.703   8.927   0.551 -0.2831 -0.7732 -0.1791
    8FTM     C4 7297   3.733   8.856   0.664  0.1497 -0.2923  0.0127
    8FTM     F1 7298   3.738   8.922   0.308 -0.3676 -1.2822 -0.1839
    8FTM     C5 7299   3.854   8.643   0.350  1.2770 -0.8977  1.0277
    8FTM     C6 7300   3.764   8.517   0.347  0.6581 -0.7338 -1.1460
    8FTM     C7 7301   3.814   8.414   0.253 -0.0868  0.0671  2.2578
    8FTM     C8 7302   3.871   8.302   0.327 -0.4212  0.4405  0.6510
    8FTM     C9 7303   3.888   8.165   0.244  0.7458  0.1100 -0.6947
    8FTM    C10 7304   3.779   8.051   0.261 -0.8752 -0.6694  0.3985
    8FTM    C11 7305   3.606   8.543   0.365  0.3462  0.1320  0.1809
    8FTM    C12 7306   3.563   8.525   0.517 -0.0536  0.3603  0.6273
    9FTM     S1 7307   3.418   8.845   1.256 -0.5212 -0.4443  0.1294
    9FTM     C1 7308   3.376   8.945   1.400 -0.3888 -0.1826 -0.0119
    9FTM     C2 7309   3.424   9.071   1.384  0.0634 -0.3550 -0.0476
    9FTM     C3 7310   3.494   9.097   1.263  0.3281 -0.6924  0.0308
    9FTM     C4 7311   3.501   8.988   1.182  0.0701 -0.7820  0.1298
    9FTM     F1 7312   3.406   9.171   1.479  0.2644 -0.2170 -0.1535
    9FTM     C5 7313   3.287   8.896   1.514 -0.5125  0.6004 -0.3764
    9FTM     C6 7314   3.138   8.843   1.500  0.2170  1.1263  0.9010
    9FTM     C7 7315   3.135   8.696   1.570  0.1567  0.1445  1.1372
    9FTM     C8 7316   3.207   8.579   1.504 -0.4153 -0.4614 -0.4436
    9FTM     C9 7317   3.151   8.439   1.504  0.2804 -0.9640  0.0400
    9FTM    C10 7318   3.260   8.361   1.436  1.1606  1.4267  0.3630
    9FTM    C11 7319   3.009   8.923   1.501  0.5938 -0.1534 -0.7455
    9FTM    C12 7320   2.932   8.933   1.368 -0.4489  0.5100  0.5224
   10TPM     C1 7321   3.177   9.103   0.755  0.1096  0.9901  0.0348
   10TPM     C2 7322   3.124   9.089   0.630 -0.0504  1.2395  0.0723
   10TPM     C3 7323   2.981   9.076   0.629 -0.0106  0.7598  0.2692
   10TPM     C4 7324   2.924   9.079   0.753  0.1800  0.1445  0.3819
   10TPM     S1 7325   3.048   9.101   0.882  0.3248  0.1231  0.2470
   11BDD     C1 7326   2.547   9.184   0.696 -0.2709  0.2088 -0.4121
   11BDD     C2 7327   2.619   9.300   0.695 -0.2778  0.2148 -0.2653
   11BDD     C3 7328   2.760   9.281   0.722 -0.3511  0.2410  0.1434
   11BDD     C4 7329   2.794   9.150   0.744 -0.3993  0.2547  0.3023
   11BDD     S1 7330   2.651   9.042   0.731 -0.3560  0.2358 -0.0488
   11BDD     C5 7331   2.561   9.434   0.668 -0.2170  0.1969 -0.4953
   11BDD     C6 7332   2.857   9.392   0.726 -0.3709  0.2515  0.3615
   11BDD     O1 7333   2.979   9.375   0.750 -0.4342  0.2739  0.7139
   11BDD     O2 7334   2.439   9.451   0.645 -0.1538  0.1745 -0.8478
   11BDD     C7 7335   2.799   9.526   0.700 -0.3101  0.2337  0.1314
   11BDD     C8 7336   2.658   9.545   0.672 -0.2367  0.2077 -0.2773
   11BDD     C9 7337   2.624   9.676   0.651 -0.1886  0.1941 -0.4362
   11BDD     S2 7338   2.767   9.784   0.663 -0.2319  0.2131 -0.0851
   11BDD    C10 7339   2.871   9.642   0.699 -0.3169  0.2396  0.2782
   11BDD    C11 7340   3.006   9.702   0.739 -0.5580 -0.3009  1.0497
   11BDD    C12 7341   3.044   9.742   0.895 -0.0674 -0.8292  1.0270
   11BDD    C13 7342   2.933   9.833   0.985 -0.6540  0.2684  1.2405
   11BDD    C14 7343   2.934   9.810   1.123 -0.2879 -0.2124  0.3747
   11BDD    C15 7344   2.817   9.861   1.204 -0.6311  0.5107  0.2087
   11BDD    C16 7345   2.839   9.982   1.283  0.0589 -0.7138 -0.0088
   11BDD    C17 7346   3.198   9.784   0.900  0.1426 -1.9122  0.4571
   11BDD    C18 7347   3.217   9.916   0.833 -0.6282 -0.8082  0.2076
   11BDD    C19 7348   2.498   9.761   0.625 -0.2478 -0.4628  1.0189
   11BDD    C20 7349   2.399   9.724   0.512  1.3595 -1.1019 -0.7799
   11BDD    C21 7350   2.260   9.792   0.516  0.6222 -1.0192  2.5396
   11BDD    C22 7351   2.202   9.844   0.654  1.3024 -0.5202 -0.6079
   11BDD    C23 7352   2.266   9.962   0.724  0.3066  1.1802  0.4448
   11BDD    C24 7353   2.177  10.004   0.844  0.1210 -0.4818  0.5995
   11BDD    C25 7354   2.445   9.666   0.385  0.0523  0.8888 -0.6053
   11BDD    C26 7355   2.378   9.564   0.302  0.9673  0.1976  0.0384
   12TPM     C1 7356   2.406   9.139   0.694 -0.8404 -0.1908 -0.7410
   12TPM     C2 7357   2.308   9.203   0.624 -1.7166 -0.6850 -0.0107
   12TPM     C3 7358   2.186   9.128   0.614 -1.6170 -1.0850  1.3813
   12TPM     C4 7359   2.190   9.007   0.676 -0.6651 -0.8959  1.7125
   12TPM     S1 7360   2.351   8.978   0.753  0.1863 -0.1920  0.2808
   13BDTP    C1 7361   1.679   8.669   0.556 -0.0747 -0.0744 -0.1338
   13BDTP    C2 7362   1.782   8.576   0.521 -0.1035 -0.1123 -0.1186
   13BDTP    C3 7363   1.917   8.604   0.540 -0.0924 -0.1304 -0.1715
   13BDTP    C4 7364   1.952   8.728   0.596 -0.0510 -0.1104 -0.2428
   13BDTP    C5 7365   1.849   8.820   0.631 -0.0222 -0.0722 -0.2579
   13BDTP    C6 7366   1.715   8.793   0.612 -0.0333 -0.0540 -0.2050
   13BDTP    C7 7367   2.085   8.779   0.624 -0.0323 -0.1229 -0.3064
   13BDTP    C8 7368   2.087   8.903   0.678  0.0086 -0.0968 -0.3679
   13BDTP    S1 7369   1.920   8.973   0.700  0.0292 -0.0520 -0.3538
   13BDTP    C9 7370   1.547   8.618   0.527 -0.0934 -0.0618 -0.0701
   13BDTP   C10 7371   1.545   8.494   0.473 -0.1343 -0.0880 -0.0086
   13BDTP    S2 7372   1.712   8.423   0.451 -0.1549 -0.1326 -0.0227
   14FTM     S1 7373   2.173   8.535   0.431  0.1608 -0.2871  0.8759
   14FTM     C1 7374   2.224   8.364   0.456 -0.8007 -0.6655  0.3260
   14FTM     C2 7375   2.122   8.294   0.513 -1.2783 -0.3393 -0.1055
   14FTM     C3 7376   2.002   8.367   0.540 -0.9340  0.2117 -0.0364
   14FTM     C4 7377   2.012   8.498   0.502 -0.1679  0.3103  0.4643
   14FTM     F1 7378   2.132   8.159   0.544 -2.0553 -0.5202 -0.5886
   14FTM     C5 7379   2.337   8.337   0.361 -0.0485 -0.0639  0.4694
   14FTM     C6 7380   2.465   8.300   0.440  0.6388  0.5644  0.7712
   14FTM     C7 7381   2.544   8.357   0.555  0.6872  0.0228  0.2074
   14FTM     C8 7382   2.474   8.325   0.695  0.8601  0.0782  0.3433
   14FTM     C9 7383   2.432   8.441   0.792 -2.2463  0.1895  0.8974
   14FTM    C10 7384   2.359   8.551   0.724  1.0855  0.0579 -0.0920
   14FTM    C11 7385   2.569   8.242   0.337  0.7204 -0.0920 -0.1556
   14FTM    C12 7386   2.659   8.123   0.354  0.6901 -1.7288  0.5017
   15FTM     S1 7387   1.452   8.837   0.709  0.1545 -0.3974 -0.5369
   15FTM     C1 7388   1.386   9.004   0.687  0.0754 -0.3322  0.1697
   15FTM     C2 7389   1.479   9.082   0.626 -0.0223 -0.0699  0.3564
   15FTM     C3 7390   1.603   9.020   0.593 -0.0411  0.0927 -0.0292
   15FTM     C4 7391   1.606   8.889   0.630  0.0449 -0.0499 -0.5275
   15FTM     F1 7392   1.456   9.216   0.596 -0.1004  0.0393  0.8876
   15FTM     C5 7393   1.251   9.041   0.758  0.2232  0.0277  0.9412
   15FTM     C6 7394   1.162   9.173   0.728  0.0903 -0.3150  0.0678
   15FTM     C7 7395   1.139   9.198   0.570  0.0806  0.1017  0.0274
   15FTM     C8 7396   1.009   9.277   0.542 -0.0106  0.4571  0.2648
   15FTM     C9 7397   1.020   9.361   0.406 -0.4506 -0.2941 -0.2153
   15FTM    C10 7398   0.903   9.443   0.372 -0.2269 -0.1175 -0.5900
   15FTM    C11 7399   1.232   9.306   0.790  1.5904  0.1504  1.3898
   15FTM    C12 7400   1.289   9.309   0.923  2.0341  0.2015  0.2573
   16TPM     C1 7401   1.426   8.411   0.445  0.5629 -0.5670 -0.3905
   16TPM     C2 7402   1.349   8.349   0.539  0.6680 -0.1347 -0.0123
   16TPM     C3 7403   1.226   8.295   0.487  0.3780  0.0448  0.4748
   16TPM     C4 7404   1.209   8.316   0.353  0.0519 -0.2507  0.4681
   16TPM     S1 7405   1.348   8.406   0.282  0.0860 -0.7828 -0.1590
   17BDD     C1 7406   0.872   8.153   0.216  0.1323  0.0308  0.1318
   17BDD     C2 7407   0.889   8.268   0.143  0.1353  0.0188  0.1142
   17BDD     C3 7408   1.008   8.342   0.180  0.1491  0.0098  0.0876
   17BDD     C4 7409   1.080   8.284   0.281  0.1564  0.0149  0.0855
   17BDD     S1 7410   1.004   8.131   0.336  0.1465  0.0315  0.1164
   17BDD     C5 7411   0.797   8.313   0.037  0.1256  0.0153  0.1211
   17BDD     C6 7412   1.047   8.469   0.115  0.1545 -0.0033  0.0654
   17BDD     O1 7413   1.149   8.533   0.147  0.1664 -0.0110  0.0425
   17BDD     O2 7414   0.695   8.248   0.005  0.1137  0.0231  0.1440
   17BDD     C7 7415   0.954   8.514   0.008  0.1448 -0.0067  0.0722
   17BDD     C8 7416   0.836   8.439  -0.029  0.1310  0.0021  0.0987
   17BDD     C9 7417   0.764   8.498  -0.130  0.1237 -0.0029  0.1011
   17BDD     S2 7418   0.840   8.651  -0.185  0.1336 -0.0192  0.0701
   17BDD    C10 7419   0.972   8.628  -0.065  0.1478 -0.0184  0.0546
   17BDD    C11 7420   1.087   8.730  -0.061  0.3789 -0.6324  0.7400
   17BDD    C12 7421   1.054   8.869  -0.009  0.0092 -0.8674 -0.4719
   17BDD    C13 7422   1.197   8.934  -0.041 -0.2980  0.1094  0.5551
   17BDD    C14 7423   1.335   8.908   0.030  1.0147  0.0364 -0.9610
   17BDD    C15 7424   1.444   8.964  -0.053  0.2375  1.4718 -0.0152
   17BDD    C16 7425   1.582   8.939  -0.027 -1.2310 -1.1234 -1.1754
   17BDD    C17 7426   1.019   8.868   0.151  0.3280 -0.3739  0.4086
   17BDD    C18 7427   1.022   8.994   0.222 -0.8603 -1.3254 -0.5536
   17BDD    C19 7428   0.644   8.476  -0.214 -0.2085  0.0811  1.7580
   17BDD    C20 7429   0.509   8.503  -0.151 -0.3178  0.6826  0.5690
   17BDD    C21 7430   0.396   8.492  -0.245 -0.5696  0.0341 -0.6029
   17BDD    C22 7431   0.376   8.353  -0.293 -1.5451  0.2252  0.1951
   17BDD    C23 7432   0.246   8.288  -0.293  0.1207  1.5500 -0.0996
   17BDD    C24 7433   0.225   8.193  -0.167  0.7750  2.0453  0.7821
   17BDD    C25 7434   0.467   8.546  -0.010 -0.3315  0.0297 -0.5870
   17BDD    C26 7435   0.393   8.435   0.080 -0.0589 -0.8369  0.9058
   18TPM     C1 7436   0.785   8.036   0.205 -0.2412  0.3548  0.4353
   18TPM     C2 7437   0.838   7.910   0.209 -0.2332  0.3692  1.0506
   18TPM     C3 7438   0.743   7.806   0.181 -0.1138  0.2649  1.0296
   18TPM     C4 7439   0.617   7.852   0.156 -0.0307  0.1712  0.3984
   18TPM     S1 7440   0.609   8.032   0.166 -0.0974  0.2074 -0.2234
   19BDTP    C1 7441   0.061   7.596   0.006 -0.3372  0.0432 -0.1862
   19BDTP    C2 7442   0.032   7.653   0.134 -0.3137 -0.0054 -0.1590
   19BDTP    C3 7443   0.127   7.719   0.210 -0.3111  0.0067 -0.1724
   19BDTP    C4 7444   0.257   7.729   0.158 -0.3328  0.0694 -0.2148
   19BDTP    C5 7445   0.286   7.673   0.031 -0.3564  0.1179 -0.2418
   19BDTP    C6 7446   0.191   7.607  -0.046 -0.3589  0.1059 -0.2283
   19BDTP    C7 7447   0.372   7.793   0.219 -0.3348  0.0934 -0.2358
   19BDTP    C8 7448   0.485   7.787   0.144 -0.3584  0.1565 -0.2770
   19BDTP    S1 7449   0.461   7.700  -0.014 -0.3815  0.1948 -0.2947
   19BDTP    C9 7450  -0.055   7.532  -0.055 -0.3352  0.0191 -0.1650
   19BDTP   C10 7451  -0.167   7.538   0.020 -0.3116 -0.0441 -0.1240
   19BDTP    S2 7452  -0.143   7.626   0.178 -0.2883 -0.0823 -0.1062
   20FTM     S1 7453   0.212   7.681   0.481 -0.6826 -0.5218  0.0332
   20FTM     C1 7454   0.110   7.763   0.605 -0.5190 -0.4318  0.1089
   20FTM     C2 7455   0.010   7.833   0.544 -0.2712 -0.0221  0.1628
   20FTM     C3 7456   0.007   7.827   0.401 -0.1952  0.2407  0.1488
   20FTM     C4 7457   0.107   7.750   0.351 -0.3912  0.0251  0.0820
   20FTM     F1 7458  -0.084   7.906   0.615 -0.0982  0.1394  0.2280
   20FTM     C5 7459   0.188   7.744   0.740  1.5338 -0.2573 -0.4457
   20FTM     C6 7460   0.311   7.834   0.730  0.0883  0.8304 -0.1918
   20FTM     C7 7461   0.429   7.789   0.824  1.2035  0.3758  0.7417
   20FTM     C8 7462   0.561   7.755   0.754  0.3014  0.5009  0.7107
   20FTM     C9 7463   0.530   7.641   0.653  0.3634 -0.5307 -1.0300
   20FTM    C10 7464   0.649   7.616   0.554  0.6638 -0.3438 -0.0440
   20FTM    C11 7465   0.322   7.984   0.714  0.8557 -0.5001 -1.1976
   20FTM    C12 7466   0.312   8.052   0.583 -0.9687  0.5163  0.6419
   21FTM     S1 7467   0.230   7.376  -0.182 -0.2307 -0.0205  0.1867
   21FTM     C1 7468   0.285   7.389  -0.353  0.4408 -0.9706  0.3103
   21FTM     C2 7469   0.289   7.519  -0.390  1.2545 -1.1294 -0.1926
   21FTM     C3 7470   0.252   7.615  -0.290  1.4019 -0.5362 -0.6924
   21FTM     C4 7471   0.218   7.556  -0.173  0.6774  0.0973 -0.5686
   21FTM     F1 7472   0.328   7.560  -0.517  1.9142 -1.8214 -0.2301
   21FTM     C5 7473   0.272   7.262  -0.416 -0.2285 -0.6919  0.8125
   21FTM     C6 7474   0.402   7.187  -0.418  0.7650  0.0837  0.1535
   21FTM     C7 7475   0.374   7.037  -0.445  0.4778 -1.1963 -0.3426
   21FTM     C8 7476   0.245   6.956  -0.380 -0.2702 -0.1873 -0.7101
   21FTM     C9 7477   0.274   6.803  -0.414 -0.6633  0.3140 -0.8012
   21FTM    C10 7478   0.206   6.709  -0.325  0.0171 -0.0041 -0.4437
   21FTM    C11 7479   0.529   7.255  -0.475 -0.8456 -0.4453  1.1291
   21FTM    C12 7480   0.538   7.285  -0.636  0.9213 -0.5409 -0.1542
   22TPM     C1 7481  -0.284   7.460  -0.007 -0.0693 -0.1869 -0.1230
   22TPM     C2 7482  -0.311   7.385  -0.118 -0.2446  0.8104 -0.7803
   22TPM     C3 7483  -0.448   7.342  -0.127 -0.4153  1.4347 -1.3132
   22TPM     C4 7484  -0.526   7.384  -0.023 -0.3702  0.9132 -1.0619
   22TPM     S1 7485  -0.431   7.482   0.095 -0.1063 -0.4169 -0.1257
   23BDD     C1 7486  -0.866   7.183   0.002 -0.1510  0.1962 -0.1600
   23BDD     C2 7487  -0.900   7.315   0.011 -0.1488  0.1860 -0.0013
   23BDD     C3 7488  -0.787   7.405   0.004 -0.1147  0.1810  0.4209
   23BDD     C4 7489  -0.667   7.340  -0.011 -0.0914  0.1877  0.5780
   23BDD     S1 7490  -0.688   7.162  -0.016 -0.1104  0.2004  0.2083
   23BDD     C5 7491  -1.039   7.363   0.027 -0.1781  0.1802 -0.2321
   23BDD     C6 7492  -0.801   7.551   0.012 -0.1068  0.1699  0.6531
   23BDD     O1 7493  -0.703   7.629   0.006 -0.0775  0.1658  1.0172
   23BDD     O2 7494  -1.137   7.285   0.034 -0.2074  0.1844 -0.5961
   23BDD     C7 7495  -0.940   7.600   0.028 -0.1359  0.1644  0.4224
   23BDD     C8 7496  -1.053   7.509   0.035 -0.1698  0.1692  0.0002
   23BDD     C9 7497  -1.173   7.574   0.050 -0.1931  0.1626 -0.1570
   23BDD     S2 7498  -1.151   7.752   0.056 -0.1746  0.1498  0.2128
   23BDD    C10 7499  -0.974   7.732   0.037 -0.1338  0.1540  0.5810
   23BDD    C11 7500  -0.887   7.863   0.040  0.7005 -0.1098 -0.8854
   23BDD    C12 7501  -0.855   7.936   0.172  0.3263  0.2684  0.3112
   23BDD    C13 7502  -0.752   8.041   0.155 -0.4186 -1.2948  0.6306
   23BDD    C14 7503  -0.726   8.160   0.260  0.9834  0.8986 -0.2697
   23BDD    C15 7504  -0.599   8.237   0.245 -0.6205 -0.4227 -0.8397
   23BDD    C16 7505  -0.473   8.155   0.221 -0.4536 -0.0356 -0.3412
   23BDD    C17 7506  -0.839   7.850   0.298  0.2293 -0.4610  0.3375
   23BDD    C18 7507  -0.730   7.741   0.302 -0.2374 -0.0519  0.2560
   23BDD    C19 7508  -1.316   7.537   0.096 -2.9287 -0.8936 -0.3564
   23BDD    C20 7509  -1.320   7.447   0.224 -0.2861 -0.3171 -0.6886
   23BDD    C21 7510  -1.444   7.372   0.250 -0.0206 -0.1565  1.0160
   23BDD    C22 7511  -1.491   7.269   0.150  0.6273 -0.2029  0.1218
   23BDD    C23 7512  -1.580   7.148   0.136  0.3588 -1.9177 -1.0552
   23BDD    C24 7513  -1.575   7.046   0.251 -0.2372 -0.0014  0.1404
   23BDD    C25 7514  -1.252   7.489   0.354  1.0740 -0.0696  0.6703
   23BDD    C26 7515  -1.335   7.609   0.424 -0.3897  0.4685  0.2982
   24TPM     C1 7516  -0.937   7.065   0.017 -0.5095  0.2956 -0.3368
   24TPM     C2 7517  -1.049   7.040  -0.057 -0.8340  0.1353  0.1976
   24TPM     C3 7518  -1.092   6.902  -0.053 -0.6828  0.0957  0.4897
   24TPM     C4 7519  -1.012   6.823   0.024 -0.2433  0.2255  0.1782
   24TPM     S1 7520  -0.877   6.916   0.098  0.0160  0.4095 -0.5139
   25BDTP    C1 7521  -1.128   6.213   0.065 -0.2401 -0.1136 -0.3557
   25BDTP    C2 7522  -1.201   6.260   0.178  0.0248 -0.1328 -0.1757
   25BDTP    C3 7523  -1.203   6.394   0.215  0.1187 -0.1403 -0.1431
   25BDTP    C4 7524  -1.130   6.486   0.137 -0.0575 -0.1284 -0.2950
   25BDTP    C5 7525  -1.057   6.438   0.024 -0.3223 -0.1091 -0.4749
   25BDTP    C6 7526  -1.055   6.304  -0.013 -0.4159 -0.1015 -0.5075
   25BDTP    C7 7527  -1.117   6.629   0.156 -0.0057 -0.1331 -0.2952
   25BDTP    C8 7528  -1.039   6.690   0.064 -0.2162 -0.1184 -0.4645
   25BDTP    S1 7529  -0.971   6.576  -0.060 -0.5100 -0.0966 -0.6475
   25BDTP    C9 7530  -1.141   6.070   0.046 -0.2918 -0.1088 -0.3554
   25BDTP   C10 7531  -1.219   6.008   0.139 -0.0811 -0.1235 -0.1861
   25BDTP    S2 7532  -1.287   6.123   0.262  0.2124 -0.1454 -0.0032
   26FTM     S1 7533  -1.387   6.556   0.333 -0.0666 -0.8351  0.0664
   26FTM     C1 7534  -1.367   6.604   0.506  0.4254  0.0494 -0.2260
   26FTM     C2 7535  -1.261   6.538   0.560  0.8726  0.6807 -0.3088
   26FTM     C3 7536  -1.191   6.448   0.473  0.8600  0.5192 -0.1537
   26FTM     C4 7537  -1.245   6.445   0.348  0.3877 -0.2615  0.0547
   26FTM     F1 7538  -1.221   6.555   0.691  1.3196  1.4424 -0.5299
   26FTM     C5 7539  -1.454   6.721   0.560 -0.4556  0.3157 -0.8737
   26FTM     C6 7540  -1.489   6.773   0.705  0.4342  0.2859  0.3789
   26FTM     C7 7541  -1.565   6.669   0.789 -0.0009  0.3340 -0.6017
   26FTM     C8 7542  -1.689   6.587   0.728 -1.3448  0.4455  0.0673
   26FTM     C9 7543  -1.761   6.517   0.845  0.7927 -1.0999  0.4259
   26FTM    C10 7544  -1.870   6.608   0.913  0.1476  0.7591  0.2409
   26FTM    C11 7545  -1.373   6.845   0.770  0.2364  0.5690 -1.8298
   26FTM    C12 7546  -1.293   6.950   0.704 -1.2706 -1.0355  0.3015
   27FTM     S1 7547  -0.862   6.179  -0.179 -0.2651 -0.5273 -0.3685
   27FTM     C1 7548  -0.901   6.175  -0.355 -0.2948  0.3669 -0.3937
   27FTM     C2 7549  -1.022   6.231  -0.377 -0.1290  0.8342 -0.1416
   27FTM     C3 7550  -1.091   6.280  -0.262  0.0269  0.5332  0.0813
   27FTM     C4 7551  -1.020   6.260  -0.147 -0.0209 -0.1885 -0.0033
   27FTM     F1 7552  -1.079   6.242  -0.504 -0.1092  1.5628 -0.0975
   27FTM     C5 7553  -0.805   6.121  -0.450 -0.8197  1.2091 -0.1457
   27FTM     C6 7554  -0.658   6.097  -0.412 -0.2770 -0.2795  0.7606
   27FTM     C7 7555  -0.563   6.182  -0.309  0.7189  1.7734  0.1111
   27FTM     C8 7556  -0.408   6.223  -0.339  0.7768  0.7522 -0.2642
   27FTM     C9 7557  -0.291   6.261  -0.245 -0.8251  0.4162  0.6232
   27FTM    C10 7558  -0.314   6.389  -0.180 -0.9371 -0.8031 -0.0374
   27FTM    C11 7559  -0.627   5.943  -0.441 -0.0204 -0.2976 -0.1096
   27FTM    C12 7560  -0.682   5.854  -0.548 -0.3653  0.8770  1.1838
   28TPM     C1 7561  -1.256   5.877   0.169  0.1982  0.6751  0.0260
   28TPM     C2 7562  -1.363   5.812   0.222  0.0877  1.2516  0.5394
   28TPM     C3 7563  -1.336   5.674   0.254 -0.5097  1.0896  0.3663
   28TPM     C4 7564  -1.209   5.634   0.225 -0.8550  0.3894 -0.2791
   28TPM     S1 7565  -1.112   5.769   0.155 -0.4488 -0.1235 -0.7217
   29BDD     C1 7566  -1.081   5.282   0.107 -0.2302 -0.5579 -0.2398
   29BDD     C2 7567  -1.144   5.258   0.226 -0.2475 -0.3997 -0.2162
   29BDD     C3 7568  -1.209   5.375   0.282 -0.2928 -0.3353 -0.4026
   29BDD     C4 7569  -1.195   5.487   0.205 -0.3092 -0.4454 -0.5656
   29BDD     S1 7570  -1.100   5.453   0.057 -0.2694 -0.6374 -0.4970
   29BDD     C5 7571  -1.146   5.126   0.293 -0.2227 -0.3017 -0.0215
   29BDD     C6 7572  -1.282   5.372   0.410 -0.3178 -0.1668 -0.4122
   29BDD     O1 7573  -1.339   5.473   0.458 -0.3569 -0.1113 -0.5729
   29BDD     O2 7574  -1.090   5.025   0.245 -0.1838 -0.3573  0.1392
   29BDD     C7 7575  -1.285   5.240   0.477 -0.2933 -0.0689 -0.2174
   29BDD     C8 7576  -1.219   5.123   0.421 -0.2480 -0.1333 -0.0310
   29BDD     C9 7577  -1.233   5.011   0.499 -0.2310 -0.0232  0.1320
   29BDD     S2 7578  -1.329   5.045   0.647 -0.2712  0.1688  0.0634
   29BDD    C10 7579  -1.347   5.216   0.596 -0.3102  0.0893 -0.1938
   29BDD    C11 7580  -1.419   5.285   0.706  0.4231 -1.4062  0.2908
   29BDD    C12 7581  -1.340   5.343   0.825  0.1337 -0.1341  1.3547
   29BDD    C13 7582  -1.207   5.426   0.785  0.8378  2.0149 -0.9752
   29BDD    C14 7583  -1.211   5.558   0.717  0.1010  0.0553 -0.5007
   29BDD    C15 7584  -1.066   5.591   0.718 -1.1400 -0.0481 -0.9067
   29BDD    C16 7585  -1.067   5.713   0.636  0.0850 -0.4077  0.3308
   29BDD    C17 7586  -1.438   5.436   0.900 -0.3314 -0.7148  1.1909
   29BDD    C18 7587  -1.510   5.373   1.007  0.4035 -0.0367  0.1132
   29BDD    C19 7588  -1.176   4.881   0.497 -0.6874  0.8724 -0.0490
   29BDD    C20 7589  -1.049   4.837   0.587 -1.0227  0.4032 -0.3135
   29BDD    C21 7590  -0.976   4.713   0.521  1.0589 -0.0678  0.2446
   29BDD    C22 7591  -1.014   4.562   0.549  1.1959  0.5990  0.0791
   29BDD    C23 7592  -1.155   4.513   0.516  0.6080 -0.8066  0.3681
   29BDD    C24 7593  -1.173   4.356   0.519 -1.1987  0.8967  1.2886
   29BDD    C25 7594  -1.073   4.855   0.745 -1.0157  0.2357  0.7813
   29BDD    C26 7595  -0.949   4.864   0.838 -0.5255 -0.0502  0.2574
   30TPM     C1 7596  -0.990   5.210   0.017  0.4066  0.3924 -0.8546
   30TPM     C2 7597  -0.942   5.270  -0.096  0.3347 -0.1277 -1.1683
   30TPM     C3 7598  -0.872   5.180  -0.184 -0.4191 -0.7079 -1.1973
   30TPM     C4 7599  -0.867   5.052  -0.138 -0.9223 -0.6304 -0.9058
   30TPM     S1 7600  -0.951   5.034   0.020 -0.4792  0.1879 -0.5695
   31BDTP    C1 7601  -0.481   4.603  -0.348  0.1283  0.2028  0.1116
   31BDTP    C2 7602  -0.496   4.690  -0.460  0.2878  0.1842  0.0761
   31BDTP    C3 7603  -0.580   4.800  -0.459  0.3154  0.2067 -0.0489
   31BDTP    C4 7604  -0.654   4.826  -0.342  0.1795  0.2491 -0.1435
   31BDTP    C5 7605  -0.639   4.740  -0.230  0.0200  0.2677 -0.1082
   31BDTP    C6 7606  -0.555   4.629  -0.231 -0.0077  0.2455  0.0169
   31BDTP    C7 7607  -0.747   4.934  -0.318  0.1778  0.2787 -0.2792
   31BDTP    C8 7608  -0.803   4.933  -0.195  0.0269  0.3179 -0.3464
   31BDTP    S1 7609  -0.745   4.795  -0.092 -0.1347  0.3232 -0.2480
   31BDTP    C9 7610  -0.388   4.495  -0.372  0.1299  0.1736  0.2470
   31BDTP   C10 7611  -0.332   4.496  -0.495  0.2809  0.1341  0.3147
   31BDTP    S2 7612  -0.390   4.635  -0.598  0.4425  0.1291  0.2157
   32FTM     S1 7613  -0.559   5.052  -0.563  0.3261 -0.1415 -0.3099
   32FTM     C1 7614  -0.599   5.085  -0.735  0.3344 -0.4164 -0.3639
   32FTM     C2 7615  -0.639   4.970  -0.796  0.7405 -0.5985 -0.2918
   32FTM     C3 7616  -0.641   4.852  -0.714  1.0622 -0.5369 -0.1929
   32FTM     C4 7617  -0.601   4.878  -0.586  0.8966 -0.3000 -0.1889
   32FTM     F1 7618  -0.676   4.964  -0.930  0.8454 -0.8317 -0.3119
   32FTM     C5 7619  -0.562   5.210  -0.803 -0.8140 -0.8709  0.2623
   32FTM     C6 7620  -0.562   5.326  -0.713  0.4512  0.3357 -0.3165
   32FTM     C7 7621  -0.700   5.359  -0.638 -1.0667 -1.2655 -0.6551
   32FTM     C8 7622  -0.839   5.357  -0.695  2.0608  0.9014 -0.6588
   32FTM     C9 7623  -0.889   5.371  -0.847  0.6099  0.2556  0.2174
   32FTM    C10 7624  -0.841   5.479  -0.948 -0.8597  0.6764  0.0900
   32FTM    C11 7625  -0.437   5.403  -0.668 -0.1267 -0.6932  0.0266
   32FTM    C12 7626  -0.393   5.375  -0.525  0.4674  0.9918  0.3006
   33FTM     S1 7627  -0.673   4.470  -0.008  0.1408  0.0626  0.0628
   33FTM     C1 7628  -0.554   4.414   0.115 -0.2057 -0.8950 -0.0244
   33FTM     C2 7629  -0.429   4.449   0.078  0.0494 -1.7620 -0.0367
   33FTM     C3 7630  -0.417   4.521  -0.045  0.5183 -1.7353  0.0196
   33FTM     C4 7631  -0.538   4.541  -0.105  0.6261 -0.8178  0.0765
   33FTM     F1 7632  -0.316   4.419   0.154 -0.1264 -2.6317 -0.0994
   33FTM     C5 7633  -0.573   4.323   0.236  0.4585  0.2581  0.0160
   33FTM     C6 7634  -0.724   4.273   0.267 -0.3638 -1.6020  1.4952
   33FTM     C7 7635  -0.812   4.228   0.136 -0.5479 -0.0124 -1.5919
   33FTM     C8 7636  -0.960   4.239   0.149  0.3742  0.0459 -0.9797
   33FTM     C9 7637  -1.031   4.248   0.023 -0.0120  0.6682  0.2593
   33FTM    C10 7638  -1.150   4.165   0.069 -1.1960  1.0518 -0.2228
   33FTM    C11 7639  -0.742   4.190   0.388 -2.0835 -0.0793 -0.2132
   33FTM    C12 7640  -0.717   4.259   0.517  0.0656 -0.6443  1.4137
   34TPM     C1 7641  -0.251   4.402  -0.554  0.1577  1.0388  0.5241
   34TPM     C2 7642  -0.234   4.272  -0.520 -0.0417  0.9598  0.3321
   34TPM     C3 7643  -0.134   4.204  -0.598 -0.5043  0.7757 -0.1135
   34TPM     C4 7644  -0.075   4.283  -0.692 -0.6582  0.7145 -0.2618
   34TPM     S1 7645  -0.142   4.450  -0.689 -0.2272  0.8859  0.1534
   35BDD     C1 7646   0.216   4.061  -0.836 -0.1020 -0.1098  0.5634
   35BDD     C2 7647   0.239   4.188  -0.881 -0.1413 -0.1540  0.4172
   35BDD     C3 7648   0.134   4.282  -0.847 -0.1862 -0.1544  0.2801
   35BDD     C4 7649   0.031   4.225  -0.776 -0.1805 -0.1104  0.3243
   35BDD     S1 7650   0.060   4.050  -0.748 -0.1185 -0.0654  0.5403
   35BDD     C5 7651   0.360   4.229  -0.957 -0.1389 -0.1976  0.3974
   35BDD     C6 7652   0.138   4.424  -0.885 -0.2331 -0.1984  0.1104
   35BDD     O1 7653   0.047   4.505  -0.856 -0.2719 -0.1987 -0.0076
   35BDD     O2 7654   0.451   4.148  -0.987 -0.1002 -0.1974  0.5157
   35BDD     C7 7655   0.258   4.465  -0.961 -0.2308 -0.2420  0.0911
   35BDD     C8 7656   0.364   4.371  -0.996 -0.1859 -0.2416  0.2279
   35BDD     C9 7657   0.466   4.428  -1.066 -0.1916 -0.2857  0.1838
   35BDD     S2 7658   0.437   4.603  -1.095 -0.2536 -0.3306 -0.0324
   35BDD    C10 7659   0.281   4.592  -1.006 -0.2701 -0.2863 -0.0556
   35BDD    C11 7660   0.210   4.729  -1.004 -0.0749  0.4311  0.1402
   35BDD    C12 7661   0.079   4.727  -1.069  1.0404 -0.1201 -1.0523
   35BDD    C13 7662   0.016   4.879  -1.087  0.2566 -0.0642  0.4530
   35BDD    C14 7663  -0.013   4.946  -0.958  0.8348  0.6785  0.6698
   35BDD    C15 7664  -0.082   4.864  -0.837 -0.6559  0.4975  0.1973
   35BDD    C16 7665  -0.177   4.928  -0.747  0.6388  0.1123  2.3185
   35BDD    C17 7666   0.067   4.642  -1.207 -0.8980 -1.7322 -1.1285
   35BDD    C18 7667  -0.070   4.606  -1.228  0.9160 -1.0322  0.5809
   35BDD    C19 7668   0.594   4.382  -1.138  1.0142  0.3884 -0.1059
   35BDD    C20 7669   0.571   4.305  -1.272  0.8195 -0.2751 -0.5493
   35BDD    C21 7670   0.601   4.157  -1.269  0.6868  1.4244 -0.2633
   35BDD    C22 7671   0.524   4.035  -1.345  0.3535 -1.1473  0.2109
   35BDD    C23 7672   0.549   3.907  -1.273  0.4657 -0.9527 -0.0316
   35BDD    C24 7673   0.420   3.836  -1.239 -1.2350 -0.6326 -0.0137
   35BDD    C25 7674   0.584   4.394  -1.396  2.1483  0.4361 -1.2112
   35BDD    C26 7675   0.469   4.382  -1.518 -0.8014 -0.4447  0.0918
   36TPM     C1 7676   0.274   3.932  -0.845  0.3273 -0.2432  0.2280
   36TPM     C2 7677   0.198   3.819  -0.840  0.2412 -0.1584  0.9217
   36TPM     C3 7678   0.273   3.697  -0.860  0.0791 -0.3166  1.2445
   36TPM     C4 7679   0.406   3.718  -0.882  0.0416 -0.5222  0.7969
   36TPM     S1 7680   0.447   3.894  -0.878  0.2095 -0.5320 -0.0737
   37BDTP    C1 7681   0.798   3.258  -1.054  0.1050  0.1698  0.0494
   37BDTP    C2 7682   0.874   3.376  -1.079  0.0606  0.1456 -0.2089
   37BDTP    C3 7683   0.825   3.504  -1.054  0.1217  0.1693 -0.2091
   37BDTP    C4 7684   0.695   3.515  -1.001  0.2317  0.2195  0.0575
   37BDTP    C5 7685   0.619   3.397  -0.977  0.2760  0.2437  0.3157
   37BDTP    C6 7686   0.668   3.270  -1.002  0.2149  0.2198  0.3154
   37BDTP    C7 7687   0.622   3.636  -0.967  0.3107  0.2516  0.1114
   37BDTP    C8 7688   0.498   3.614  -0.919  0.4110  0.2983  0.3932
   37BDTP    S1 7689   0.454   3.438  -0.909  0.4194  0.3080  0.6304
   37BDTP    C9 7690   0.870   3.137  -1.088  0.0259  0.1376 -0.0045
   37BDTP   C10 7691   0.995   3.159  -1.137 -0.0744  0.0910 -0.2863
   37BDTP    S2 7692   1.039   3.335  -1.146 -0.0828  0.0812 -0.5238
   38FTM     S1 7693   0.862   3.702  -1.259 -0.4031  0.2315  0.0560
   38FTM     C1 7694   0.999   3.815  -1.226  0.4715 -0.6815 -0.3426
   38FTM     C2 7695   1.059   3.782  -1.108  0.9598 -1.4092 -0.7713
   38FTM     C3 7696   1.003   3.671  -1.038  0.6902 -1.3037 -0.8149
   38FTM     C4 7697   0.897   3.616  -1.104 -0.0280 -0.4679 -0.4063
   38FTM     F1 7698   1.167   3.852  -1.057  1.6799 -2.2141 -1.1494
   38FTM     C5 7699   1.056   3.919  -1.331 -0.0119  1.3627 -0.0764
   38FTM     C6 7700   1.117   4.043  -1.297 -1.3186 -0.6352 -2.1493
   38FTM     C7 7701   1.194   4.128  -1.400  0.8194  0.1712  0.8643
   38FTM     C8 7702   1.131   4.128  -1.533  1.4070 -0.3072  0.8630
   38FTM     C9 7703   1.081   4.260  -1.595 -1.2334  0.0472  0.6526
   38FTM    C10 7704   0.963   4.298  -1.505 -1.4049  0.5091  0.5188
   38FTM    C11 7705   1.022   4.127  -1.207  0.0710  1.3899 -0.6122
   38FTM    C12 7706   1.066   4.258  -1.147 -0.4567  0.3725 -0.6447
   39FTM     S1 7707   0.531   3.024  -1.093 -0.3807  0.0415 -0.3575
   39FTM     C1 7708   0.447   2.934  -0.961  0.2362  0.1131  0.0921
   39FTM     C2 7709   0.462   2.999  -0.843  0.4171  0.4138 -0.0951
   39FTM     C3 7710   0.538   3.121  -0.847  0.0947  0.6024 -0.5875
   39FTM     C4 7711   0.582   3.150  -0.973 -0.3474  0.4408 -0.7839
   39FTM     F1 7712   0.409   2.953  -0.724  0.8852  0.5362  0.1686
   39FTM     C5 7713   0.368   2.804  -0.989 -1.0880  1.2046  0.0591
   39FTM     C6 7714   0.447   2.684  -1.055  0.1876 -0.0486 -1.4282
   39FTM     C7 7715   0.470   2.708  -1.202 -0.3933  0.6996  0.8366
   39FTM     C8 7716   0.408   2.593  -1.294  1.5625 -0.9629 -0.9842
   39FTM     C9 7717   0.447   2.599  -1.436  0.0022  0.0944  1.5317
   39FTM    C10 7718   0.412   2.471  -1.496 -0.7845  1.1411  0.1803
   39FTM    C11 7719   0.567   2.639  -0.979 -0.1270 -0.4574 -0.7544
   39FTM    C12 7720   0.516   2.570  -0.854 -1.2795  0.3448 -1.8739
   40TPM     C1 7721   1.115   3.068  -1.185  0.5558 -0.5784 -0.2878
   40TPM     C2 7722   1.098   2.933  -1.179  1.0635 -0.6565 -0.5350
   40TPM     C3 7723   1.221   2.859  -1.194  1.3986 -0.1592 -0.3021
   40TPM     C4 7724   1.331   2.938  -1.211  1.1464  0.2981  0.1228
   40TPM     S1 7725   1.288   3.113  -1.210  0.4607  0.1348  0.2630
   41BDD     C1 7726   1.674   2.755  -1.175  0.0119 -0.5046  0.2670
   41BDD     C2 7727   1.669   2.805  -1.303 -0.0399 -0.5702  0.2432
   41BDD     C3 7728   1.545   2.873  -1.333 -0.1169 -0.7263  0.2065
   41BDD     C4 7729   1.457   2.874  -1.229 -0.1227 -0.7772  0.2023
   41BDD     S1 7730   1.524   2.791  -1.085 -0.0321 -0.6335  0.2446
   41BDD     C5 7731   1.779   2.791  -1.401 -0.0206 -0.4919  0.2537
   41BDD     C6 7732   1.518   2.934  -1.465 -0.1820 -0.8190  0.1762
   41BDD     O1 7733   1.411   2.993  -1.491 -0.2484 -0.9535  0.1442
   41BDD     O2 7734   1.886   2.732  -1.375  0.0458 -0.3573  0.2856
   41BDD     C7 7735   1.627   2.921  -1.563 -0.1627 -0.7406  0.1869
   41BDD     C8 7736   1.752   2.852  -1.533 -0.0857 -0.5847  0.2239
   41BDD     C9 7737   1.840   2.851  -1.637 -0.0800 -0.5336  0.2275
   41BDD     S2 7738   1.773   2.935  -1.781 -0.1706 -0.6772  0.1852
   41BDD    C10 7739   1.622   2.970  -1.691 -0.2146 -0.8063  0.1628
   41BDD    C11 7740   1.517   3.018  -1.797 -0.4026  0.9490 -1.0044
   41BDD    C12 7741   1.537   3.150  -1.860  0.6076 -1.3176 -1.5429
   41BDD    C13 7742   1.465   3.180  -1.990  0.4028 -0.4850 -1.2072
   41BDD    C14 7743   1.466   3.092  -2.111 -0.6331  0.5715  0.0220
   41BDD    C15 7744   1.546   2.961  -2.116 -0.3542  0.0913 -1.0841
   41BDD    C16 7745   1.584   2.900  -2.246  0.2051 -0.0420  0.9695
   41BDD    C17 7746   1.509   3.264  -1.755  1.0465 -0.1183  0.5150
   41BDD    C18 7747   1.573   3.403  -1.763 -0.4035 -0.1399  0.5106
   41BDD    C19 7748   1.967   2.773  -1.670 -0.1365 -0.1041 -1.5538
   41BDD    C20 7749   2.093   2.828  -1.620  0.0761  0.3034  0.5113
   41BDD    C21 7750   2.144   2.919  -1.726  0.1980  0.1594 -0.3360
   41BDD    C22 7751   2.264   2.999  -1.712 -1.5517  0.6602 -0.8902
   41BDD    C23 7752   2.298   3.117  -1.812 -0.0995 -1.1937 -0.3238
   41BDD    C24 7753   2.179   3.202  -1.841  1.2457 -0.1451 -0.4171
   41BDD    C25 7754   2.178   2.711  -1.555  0.5628  1.0393 -0.5486
   41BDD    C26 7755   2.241   2.610  -1.657 -0.3269 -0.2036 -0.5749
   42TPM     C1 7756   1.775   2.700  -1.085  0.5137  0.5363 -0.3664
   42TPM     C2 7757   1.771   2.732  -0.952  0.3900  0.9788 -0.4721
   42TPM     C3 7758   1.893   2.701  -0.882  0.2601  1.0445 -0.2179
   42TPM     C4 7759   1.989   2.645  -0.960  0.2848  0.6520  0.0814
   42TPM     S1 7760   1.934   2.628  -1.131  0.4755  0.1653  0.0656
   43BDTP    C1 7761   2.462   2.484  -0.588 -0.2229  0.0170  0.0186
   43BDTP    C2 7762   2.430   2.361  -0.652 -0.3495  0.0253  0.0658
   43BDTP    C3 7763   2.330   2.350  -0.748 -0.2580  0.1215 -0.0401
   43BDTP    C4 7764   2.259   2.466  -0.783 -0.0309  0.2141 -0.2005
   43BDTP    C5 7765   2.291   2.589  -0.719  0.0958  0.2058 -0.2477
   43BDTP    C6 7766   2.391   2.600  -0.623  0.0042  0.1095 -0.1415
   43BDTP    C7 7767   2.152   2.479  -0.880  0.1002  0.3225 -0.3319
   43BDTP    C8 7768   2.103   2.605  -0.892  0.3164  0.3950 -0.4735
   43BDTP    S1 7769   2.185   2.724  -0.782  0.3843  0.3362 -0.4601
   43BDTP    C9 7770   2.569   2.471  -0.491 -0.3540 -0.0914  0.1502
   43BDTP   C10 7771   2.618   2.345  -0.479 -0.5702 -0.1639  0.2913
   43BDTP    S2 7772   2.536   2.226  -0.589 -0.6382 -0.1052  0.2785
   44FTM     S1 7773   2.426   2.133  -0.916  0.2606  0.5062 -0.1012
   44FTM     C1 7774   2.330   1.981  -0.901  0.8231  0.0807 -0.7061
   44FTM     C2 7775   2.219   2.004  -0.825  0.9230 -0.7203 -0.3030
   44FTM     C3 7776   2.202   2.137  -0.775  0.5766 -1.0442  0.4821
   44FTM     C4 7777   2.304   2.219  -0.814  0.1991 -0.4726  0.6863
   44FTM     F1 7778   2.127   1.904  -0.796  1.3341 -1.2077 -0.6206
   44FTM     C5 7779   2.377   1.848  -0.953 -0.0712 -0.6977 -0.5258
   44FTM     C6 7780   2.459   1.859  -1.080  0.0844 -0.5004 -0.6368
   44FTM     C7 7781   2.562   1.756  -1.123 -0.0457 -0.1879 -1.2419
   44FTM     C8 7782   2.668   1.728  -1.009  0.3686  0.6803  0.7686
   44FTM     C9 7783   2.809   1.685  -1.059 -0.1700  0.5656 -0.8165
   44FTM    C10 7784   2.855   1.551  -0.984 -0.5390 -2.0765 -0.8800
   44FTM    C11 7785   2.362   1.861  -1.209 -0.6963  0.1085 -0.4754
   44FTM    C12 7786   2.274   1.997  -1.222  0.8747 -0.6281  0.4298
   45FTM     S1 7787   2.473   2.775  -0.413 -0.2178  0.3149  0.1751
   45FTM     C1 7788   2.561   2.920  -0.474 -0.6708  0.5697  0.1194
   45FTM     C2 7789   2.557   2.923  -0.610 -0.3174  0.2716  0.1009
   45FTM     C3 7790   2.487   2.815  -0.673  0.3119 -0.1625  0.1278
   45FTM     C4 7791   2.436   2.727  -0.583  0.4448 -0.1980  0.1689
   45FTM     F1 7792   2.616   3.023  -0.685 -0.5428  0.3741  0.0577
   45FTM     C5 7793   2.655   3.007  -0.380  2.6616  0.7028  0.5937
   45FTM     C6 7794   2.593   3.130  -0.320  0.7630 -0.0206  0.7786
   45FTM     C7 7795   2.606   3.148  -0.169  0.6173  0.7445  0.9414
   45FTM     C8 7796   2.607   3.033  -0.067 -1.7437  0.5473  1.4372
   45FTM     C9 7797   2.561   3.077   0.077  1.3348 -0.1373  1.0435
   45FTM    C10 7798   2.675   3.156   0.161  0.4714  0.4894 -0.4764
   45FTM    C11 7799   2.458   3.198  -0.370 -0.6183  0.0108  0.1837
   45FTM    C12 7800   2.435   3.346  -0.357 -0.0401  0.8043 -0.1913
   46TPM     C1 7801   2.734   2.314  -0.410  0.0908 -0.1520 -0.1029
   46TPM     C2 7802   2.773   2.189  -0.372  0.5196 -0.2058 -0.6969
   46TPM     C3 7803   2.901   2.186  -0.307  0.6143 -0.1065 -0.8748
   46TPM     C4 7804   2.959   2.308  -0.294  0.2576  0.0228 -0.4166
   46TPM     S1 7805   2.856   2.438  -0.365 -0.2293  0.0293  0.2802
   47BDD     C1 7806   3.349   2.407  -0.253  0.4108  0.0252  0.0506
   47BDD     C2 7807   3.336   2.292  -0.182  0.3130  0.0016 -0.0057
   47BDD     C3 7808   3.199   2.243  -0.177  0.2397  0.2154  0.1264
   47BDD     C4 7809   3.110   2.321  -0.245  0.2827  0.3989  0.2817
   47BDD     S1 7810   3.192   2.463  -0.320  0.4178  0.3168  0.2730
   47BDD     C5 7811   3.448   2.222  -0.115  0.2833 -0.2184 -0.1831
   47BDD     C6 7812   3.161   2.119  -0.105  0.1296  0.2297  0.0942
   47BDD     O1 7813   3.044   2.077  -0.101  0.0665  0.4141  0.2084
   47BDD     O2 7814   3.565   2.265  -0.119  0.3465 -0.4027 -0.2971
   47BDD     C7 7815   3.274   2.050  -0.038  0.1001  0.0098 -0.0830
   47BDD     C8 7816   3.410   2.099  -0.043  0.1734 -0.2040 -0.2155
   47BDD     C9 7817   3.499   2.020   0.025  0.1304 -0.3875 -0.3707
   47BDD     S2 7818   3.417   1.879   0.100 -0.0047 -0.3054 -0.3618
   47BDD    C10 7819   3.260   1.934   0.033  0.0023 -0.0139 -0.1395
   47BDD    C11 7820   3.148   1.826   0.043 -1.2616  1.2684  0.0138
   47BDD    C12 7821   3.056   1.831   0.160  0.3530 -0.3576 -0.5342
   47BDD    C13 7822   3.117   1.872   0.296 -0.2763  1.3144  0.4547
   47BDD    C14 7823   3.106   2.018   0.314  1.3449  0.3596 -0.4045
   47BDD    C15 7824   2.987   2.086   0.400  0.9676  0.7212  1.4892
   47BDD    C16 7825   3.019   2.166   0.518  0.1362  0.1513 -0.0818
   47BDD    C17 7826   2.980   1.697   0.170 -0.7839 -0.5951  0.6872
   47BDD    C18 7827   2.883   1.651   0.043 -0.2268  0.3058 -0.2965
   47BDD    C19 7828   3.642   2.028   0.028 -1.4676  0.1381  1.0740
   47BDD    C20 7829   3.725   1.976  -0.085  1.2653 -0.0835 -1.7602
   47BDD    C21 7830   3.677   1.854  -0.159 -0.5080  0.3352 -1.0423
   47BDD    C22 7831   3.701   1.723  -0.074 -0.1079 -0.5505 -1.3244
   47BDD    C23 7832   3.735   1.588  -0.152 -0.1520 -2.5414  0.1686
   47BDD    C24 7833   3.799   1.583  -0.300  0.4901 -0.7473  0.1680
   47BDD    C25 7834   3.870   1.990  -0.055  0.0411  1.5228  0.4566
   47BDD    C26 7835   3.962   2.096  -0.087  0.1663 -0.7616  0.3900
   48TPM     C1 7836   3.452   2.519  -0.268  0.2949 -0.4076 -0.9968
   48TPM     C2 7837   3.452   2.604  -0.374  0.7285  0.3164 -0.4351
   48TPM     C3 7838   3.574   2.680  -0.388  0.6384  0.7263  0.7985
   48TPM     C4 7839   3.667   2.652  -0.292  0.1362  0.3148  1.1772
   48TPM     S1 7840   3.607   2.528  -0.176 -0.2650 -0.6296 -0.0037
   49BDTP    C1 7841   4.232   2.791  -0.057 -0.4760 -0.2452  0.1941
   49BDTP    C2 7842   4.255   2.664  -0.118 -0.1718 -0.0902 -0.0229
   49BDTP    C3 7843   4.157   2.597  -0.191 -0.0064 -0.1903 -0.1540
   49BDTP    C4 7844   4.032   2.659  -0.205 -0.1471 -0.4555 -0.0679
   49BDTP    C5 7845   4.009   2.786  -0.144 -0.4513 -0.6105  0.1488
   49BDTP    C6 7846   4.107   2.852  -0.071 -0.6166 -0.5105  0.2801
   49BDTP    C7 7847   3.915   2.609  -0.276 -0.0213 -0.6023 -0.1730
   49BDTP    C8 7848   3.808   2.692  -0.271 -0.2139 -0.8567 -0.0472
   49BDTP    S1 7849   3.839   2.844  -0.177 -0.5817 -0.9462  0.2222
   49BDTP    C9 7850   4.349   2.841   0.013 -0.6019 -0.0984  0.2995
   49BDTP   C10 7851   4.456   2.758   0.009 -0.4092  0.1560  0.1733
   49BDTP    S2 7852   4.425   2.606  -0.086 -0.0415  0.2455 -0.0957
   50FTM     S1 7853   4.188   2.325  -0.171  0.5989 -0.1933 -0.0548
   50FTM     C1 7854   4.239   2.234  -0.318  0.1066 -0.4210 -0.0884
   50FTM     C2 7855   4.260   2.320  -0.421 -0.3316 -0.5893 -0.3240
   50FTM     C3 7856   4.238   2.459  -0.393 -0.3121 -0.5523 -0.4890
   50FTM     C4 7857   4.199   2.480  -0.264  0.1569 -0.3491 -0.3757
   50FTM     F1 7858   4.300   2.278  -0.547 -0.7769 -0.7868 -0.4046
   50FTM     C5 7859   4.268   2.079  -0.324  0.2235 -0.8113  0.8001
   50FTM     C6 7860   4.173   2.012  -0.431  0.1619 -0.6914 -0.6157
   50FTM     C7 7861   4.017   2.033  -0.419 -0.8743 -1.1680 -0.5867
   50FTM     C8 7862   3.941   2.062  -0.539  0.2087 -0.5512  1.0331
   50FTM     C9 7863   3.824   2.170  -0.505  0.0436 -0.2379  0.9235
   50FTM    C10 7864   3.877   2.317  -0.470  0.1237  0.3858 -0.6990
   50FTM    C11 7865   4.216   1.877  -0.466 -0.4258 -0.3367  0.5801
   50FTM    C12 7866   4.282   1.878  -0.606  0.0083  1.6988 -0.4809
   51FTM     S1 7867   4.059   3.112  -0.148  0.8054  0.0865  0.1949
   51FTM     C1 7868   3.941   3.196  -0.042 -0.0674  0.0149 -0.6891
   51FTM     C2 7869   3.918   3.122   0.070 -1.1654 -0.1804 -1.0157
   51FTM     C3 7870   3.990   2.998   0.079 -1.3895 -0.2835 -0.6082
   51FTM     C4 7871   4.070   2.977  -0.029 -0.4319 -0.1634  0.0518
   51FTM     F1 7872   3.832   3.162   0.171 -2.0326 -0.2770 -1.7028
   51FTM     C5 7873   3.859   3.299  -0.090  0.3079  0.0627  1.6103
   51FTM     C6 7874   3.750   3.270  -0.205  0.5312 -1.2945 -1.0116
   51FTM     C7 7875   3.790   3.210  -0.340 -0.2606  0.7037 -0.5154
   51FTM     C8 7876   3.867   3.258  -0.463  0.5654  0.9462  0.7424
   51FTM     C9 7877   3.807   3.354  -0.558 -1.2088 -1.3811  0.7102
   51FTM    C10 7878   3.926   3.406  -0.637 -0.2035 -0.8018  0.6629
   51FTM    C11 7879   3.659   3.159  -0.149 -0.0067 -0.5974 -0.0494
   51FTM    C12 7880   3.508   3.183  -0.173 -0.7153 -0.0078 -0.0769
   52TPM     C1 7881   4.589   2.768   0.071  0.9011 -0.0379 -0.7220
   52TPM     C2 7882   4.616   2.693   0.182  1.8880 -1.0034 -1.5636
   52TPM     C3 7883   4.712   2.753   0.271  1.8620 -1.2348 -1.3775
   52TPM     C4 7884   4.759   2.873   0.228  0.8555 -0.4458 -0.3940
   52TPM     S1 7885   4.685   2.921   0.070 -0.1457  0.6594  0.3794
   53BDD     C1 7886   5.031   3.019   0.475 -0.0201 -0.0710  0.2678
   53BDD     C2 7887   5.102   2.957   0.376 -0.0437  0.0187  0.1941
   53BDD     C3 7888   5.019   2.900   0.272 -0.0596  0.2987  0.0506
   53BDD     C4 7889   4.885   2.919   0.294 -0.0479  0.4184  0.0170
   53BDD     S1 7890   4.855   3.010   0.445 -0.0160  0.1888  0.1627
   53BDD     C5 7891   5.250   2.948   0.374 -0.0528 -0.1497  0.2528
   53BDD     C6 7892   5.074   2.828   0.156 -0.0859  0.4373 -0.0479
   53BDD     O1 7893   5.002   2.778   0.066 -0.0997  0.6788 -0.1716
   53BDD     O2 7894   5.322   2.997   0.463 -0.0391 -0.3911  0.3765
   53BDD     C7 7895   5.222   2.819   0.153 -0.0948  0.2689  0.0108
   53BDD     C8 7896   5.305   2.876   0.257 -0.0789 -0.0111  0.1542
   53BDD     C9 7897   5.439   2.857   0.236 -0.0907 -0.1308  0.1878
   53BDD     S2 7898   5.469   2.765   0.084 -0.1224  0.0987  0.0421
   53BDD    C10 7899   5.293   2.757   0.054 -0.1184  0.3586 -0.0629
   53BDD    C11 7900   5.222   2.652  -0.044  1.5717  0.1866 -1.1475
   53BDD    C12 7901   5.243   2.687  -0.193  1.3164 -0.2710 -0.8906
   53BDD    C13 7902   5.149   2.799  -0.232 -0.5688  0.5481 -1.6102
   53BDD    C14 7903   5.160   2.955  -0.227  0.0015  0.3049  0.5812
   53BDD    C15 7904   5.026   3.015  -0.194 -0.3506 -2.0607  0.9158
   53BDD    C16 7905   4.895   2.946  -0.262 -0.2526  0.2379 -0.8230
   53BDD    C17 7906   5.388   2.725  -0.248 -0.2875 -0.5865  0.3514
   53BDD    C18 7907   5.483   2.600  -0.234  0.3370 -0.6024 -0.1063
   53BDD    C19 7908   5.563   2.896   0.326  0.0330 -0.7408  1.2508
   53BDD    C20 7909   5.652   3.015   0.294 -1.2963 -0.5705  1.0515
   53BDD    C21 7910   5.681   3.064   0.150  1.5868  0.5725 -1.4767
   53BDD    C22 7911   5.787   2.994   0.063  0.7450  2.2008 -1.7207
   53BDD    C23 7912   5.925   2.970   0.092 -1.7470  0.3749  0.6345
   53BDD    C24 7913   5.952   2.856   0.175  0.3403  0.7743 -0.3057
   53BDD    C25 7914   5.627   3.143   0.376 -1.6709 -0.2221  0.5514
   53BDD    C26 7915   5.618   3.140   0.523 -1.1581  0.7380  0.4858
   54TPM     C1 7916   5.051   3.096   0.588 -0.3321  0.1500 -0.4228
   54TPM     C2 7917   5.117   3.056   0.701 -1.5743 -1.1625 -0.0966
   54TPM     C3 7918   5.092   3.140   0.815 -1.9156 -1.7943  0.3065
   54TPM     C4 7919   5.007   3.244   0.789 -0.9338 -0.9635  0.2878
   54TPM     S1 7920   4.952   3.243   0.618  0.5096  0.6941 -0.2446
   55BDTP    C1 7921   5.077   3.733   1.158  0.1715 -0.0088 -0.3393
   55BDTP    C2 7922   5.070   3.790   1.028  0.2763 -0.1721 -0.4185
   55BDTP    C3 7923   5.040   3.716   0.914  0.1256 -0.2717 -0.3155
   55BDTP    C4 7924   5.017   3.578   0.929 -0.1414 -0.2073 -0.1255
   55BDTP    C5 7925   5.024   3.520   1.059 -0.2462 -0.0440 -0.0464
   55BDTP    C6 7926   5.053   3.595   1.173 -0.0953  0.0555 -0.1494
   55BDTP    C7 7927   4.985   3.481   0.826 -0.3359 -0.2870  0.0088
   55BDTP    C8 7928   4.968   3.355   0.872 -0.5783 -0.1927  0.1827
   55BDTP    S1 7929   4.990   3.341   1.052 -0.5947  0.0104  0.2008
   55BDTP    C9 7930   5.109   3.829   1.260  0.3660  0.0709 -0.4736
   55BDTP   C10 7931   5.126   3.956   1.214  0.6086 -0.0234 -0.6475
   55BDTP    S2 7932   5.104   3.970   1.034  0.6249 -0.2265 -0.6656
   56FTM     S1 7933   5.158   3.873   0.713 -0.0488 -0.0679  0.3901
   56FTM     C1 7934   5.066   3.868   0.558  0.0287 -0.2328  0.3492
   56FTM     C2 7935   4.950   3.800   0.575  0.0371 -0.2453  0.3549
   56FTM     C3 7936   4.926   3.748   0.707 -0.0153 -0.1302  0.3905
   56FTM     C4 7937   5.027   3.778   0.793 -0.0652 -0.0261  0.4129
   56FTM     F1 7938   4.859   3.780   0.473  0.0925 -0.3618  0.3282
   56FTM     C5 7939   5.137   3.936   0.440 -0.2454  0.1618 -1.0915
   56FTM     C6 7940   5.121   4.080   0.422  0.8886 -0.1589 -0.9929
   56FTM     C7 7941   5.028   4.148   0.317  0.7024 -0.3053  0.1996
   56FTM     C8 7942   5.028   4.088   0.176  0.2771  1.6189 -0.6583
   56FTM     C9 7943   4.883   4.051   0.144 -0.6985  0.5710  0.4177
   56FTM    C10 7944   4.825   3.914   0.134 -1.6368  0.5202  1.0014
   56FTM    C11 7945   5.221   4.149   0.495 -0.0293  0.1502 -1.7777
   56FTM    C12 7946   5.213   4.282   0.589  0.7959  0.3083  0.2007
   57FTM     S1 7947   5.178   3.512   1.420  0.1496  0.1077  0.0606
   57FTM     C1 7948   5.060   3.490   1.555 -0.1068 -0.2932 -0.2254
   57FTM     C2 7949   4.933   3.498   1.507 -0.0250 -0.8899 -0.5626
   57FTM     C3 7950   4.920   3.522   1.366  0.2357 -1.0675 -0.6179
   57FTM     C4 7951   5.041   3.532   1.304  0.3575 -0.5913 -0.3129
   57FTM     F1 7952   4.821   3.485   1.587 -0.1817 -1.3108 -0.8414
   57FTM     C5 7953   5.109   3.488   1.693 -1.4724 -0.5238  0.2386
   57FTM     C6 7954   5.114   3.611   1.780 -0.8094 -0.4944 -0.9075
   57FTM     C7 7955   4.979   3.664   1.834 -1.4573  0.9593  1.1831
   57FTM     C8 7956   4.869   3.717   1.742  0.7433  0.6493 -1.1412
   57FTM     C9 7957   4.726   3.737   1.780 -0.4060 -1.1101  0.5753
   57FTM    C10 7958   4.664   3.632   1.872 -1.5193 -0.8109  1.2562
   57FTM    C11 7959   5.231   3.726   1.750  1.2977  0.1710 -0.3725
   57FTM    C12 7960   5.186   3.831   1.647  0.1529  0.0145 -0.1204
   58TPM     C1 7961   5.158   4.078   1.277  0.3326  0.6187 -0.8780
   58TPM     C2 7962   5.095   4.194   1.243  0.7787  0.7627 -1.2245
   58TPM     C3 7963   5.132   4.306   1.325  0.6453  0.6981 -1.0770
   58TPM     C4 7964   5.222   4.275   1.423  0.0974  0.5050 -0.6179
   58TPM     S1 7965   5.268   4.101   1.418 -0.2957  0.3888 -0.3342
   59BDD     C1 7966   5.318   4.466   1.756  0.0155 -0.1154  0.0836
   59BDD     C2 7967   5.369   4.538   1.651 -0.0159 -0.1311  0.0574
   59BDD     C3 7968   5.338   4.481   1.521 -0.1363 -0.0975  0.0716
   59BDD     C4 7969   5.263   4.367   1.529 -0.1950 -0.0566  0.1085
   59BDD     S1 7970   5.226   4.323   1.699 -0.1036 -0.0575  0.1279
   59BDD     C5 7971   5.449   4.661   1.667  0.0640 -0.1779  0.0183
   59BDD     C6 7972   5.383   4.542   1.395 -0.1887 -0.1073  0.0481
   59BDD     O1 7973   5.356   4.493   1.283 -0.2925 -0.0783  0.0604
   59BDD     O2 7974   5.476   4.710   1.779  0.1678 -0.2068  0.0060
   59BDD     C7 7975   5.463   4.665   1.410 -0.1088 -0.1537  0.0090
   59BDD     C8 7976   5.494   4.722   1.540  0.0116 -0.1874 -0.0052
   59BDD     C9 7977   5.569   4.836   1.533  0.0705 -0.2284 -0.0421
   59BDD     S2 7978   5.606   4.881   1.363 -0.0210 -0.2275 -0.0615
   59BDD    C10 7979   5.514   4.737   1.306 -0.1402 -0.1696 -0.0172
   59BDD    C11 7980   5.530   4.704   1.160  0.4737 -0.2651 -0.5474
   59BDD    C12 7981   5.549   4.810   1.035  0.2862 -0.6954 -0.8055
   59BDD    C13 7982   5.555   4.759   0.892  0.4846 -0.0779 -0.2024
   59BDD    C14 7983   5.446   4.707   0.805  1.2261  1.6280 -0.2558
   59BDD    C15 7984   5.498   4.651   0.669 -0.0265 -1.0551 -0.4672
   59BDD    C16 7985   5.501   4.745   0.550 -1.0756  0.4816  0.2951
   59BDD    C17 7986   5.453   4.917   1.018 -1.0449  0.0383 -0.9949
   59BDD    C18 7987   5.415   5.058   1.078 -0.3404  0.2459  0.4185
   59BDD    C19 7988   5.641   4.911   1.645  0.0135 -0.3119 -0.8526
   59BDD    C20 7989   5.576   5.038   1.698  0.1014 -1.5554 -0.7292
   59BDD    C21 7990   5.590   5.110   1.840  0.4290  0.7903 -0.3841
   59BDD    C22 7991   5.500   5.024   1.940 -0.5040 -0.3220  0.0809
   59BDD    C23 7992   5.476   5.032   2.089 -0.7671  0.5280  0.8145
   59BDD    C24 7993   5.377   4.917   2.139 -1.1713 -0.5042  0.2634
   59BDD    C25 7994   5.565   5.152   1.583 -0.3980  0.4346 -0.3979
   59BDD    C26 7995   5.704   5.213   1.534  0.2466 -0.2519  0.5041
   60TPM     C1 7996   5.319   4.464   1.904 -0.2967 -0.8170 -0.2537
   60TPM     C2 7997   5.201   4.505   1.957 -0.1149  0.1471 -0.5615
   60TPM     C3 7998   5.210   4.543   2.096 -0.0027  0.9261 -0.7721
   60TPM     C4 7999   5.335   4.530   2.148 -0.0989  0.5562 -0.6249
   60TPM     S1 8000   5.452   4.469   2.025 -0.3404 -0.8156 -0.2056
    1BDTP    C1 8001   5.558  11.226  10.042 -0.4474 -0.1431  0.1252
    1BDTP    C2 8002   5.608  11.175   9.919 -0.0921 -0.2775  0.3250
    1BDTP    C3 8003   5.701  11.244   9.842  0.1401 -0.3669  0.5221
    1BDTP    C4 8004   5.746  11.369   9.888  0.0168 -0.3223  0.5229
    1BDTP    C5 8005   5.696  11.420  10.011 -0.3383 -0.1881  0.3231
    1BDTP    C6 8006   5.603  11.351  10.088 -0.5705 -0.0987  0.1259
    1BDTP    C7 8007   5.842  11.458   9.826  0.2084 -0.3972  0.7070
    1BDTP    C8 8008   5.865  11.572   9.895  0.0166 -0.3266  0.6554
    1BDTP    S1 8009   5.769  11.583  10.049 -0.4334 -0.1554  0.3674
    1BDTP    C9 8010   5.462  11.137  10.105 -0.6388 -0.0684 -0.0584
    1BDTP   C10 8011   5.439  11.023  10.036 -0.4472 -0.1390 -0.0076
    1BDTP    S2 8012   5.535  11.012   9.882  0.0029 -0.3104  0.2810
    2FTM     S1 8013   5.844  11.011   9.732 -0.0164 -0.2188  0.0020
    2FTM     C1 8014   5.883  11.024   9.557  0.7501  0.6111  0.2190
    2FTM     C2 8015   5.837  11.141   9.507  1.0173  0.8733  0.5779
    2FTM     C3 8016   5.769  11.227   9.600  0.6512  0.4554  0.7033
    2FTM     C4 8017   5.764  11.173   9.725  0.0851 -0.1469  0.4313
    2FTM     F1 8018   5.853  11.179   9.374  1.6094  1.5073  0.8142
    2FTM     C5 8019   5.901  10.890   9.479 -0.5571 -1.2962  1.5891
    2FTM     C6 8020   5.811  10.766   9.474 -0.1196  0.3844 -0.9226
    2FTM     C7 8021   5.908  10.649   9.400 -0.3455 -1.7400  0.5644
    2FTM     C8 8022   5.844  10.571   9.289 -0.3144 -0.2278 -1.3651
    2FTM     C9 8023   5.931  10.471   9.238 -0.1449 -0.3780  0.3098
    2FTM    C10 8024   5.963  10.520   9.098  0.1656 -0.5737  0.5202
    2FTM    C11 8025   5.760  10.708   9.603  0.6246  0.7423 -1.6207
    2FTM    C12 8026   5.644  10.603   9.615 -0.1952  0.5860  1.4265
    3FTM     S1 8027   5.696  11.366  10.341 -0.1220 -0.6652 -0.2381
    3FTM     C1 8028   5.603  11.458  10.464  0.6098 -0.5003  0.2062
    3FTM     C2 8029   5.484  11.499  10.412  0.7529  0.3626  0.5233
    3FTM     C3 8030   5.460  11.462  10.275  0.3127  0.9346  0.4420
    3FTM     C4 8031   5.563  11.391  10.222 -0.1834  0.4955  0.0500
    3FTM     F1 8032   5.391  11.572  10.484  1.2909  0.6859  0.9058
    3FTM     C5 8033   5.658  11.493  10.592 -0.6874  0.6116  0.5134
    3FTM     C6 8034   5.743  11.399  10.692  0.5717  1.3131  0.3528
    3FTM     C7 8035   5.671  11.269  10.752 -1.2433 -0.7684 -0.6244
    3FTM     C8 8036   5.579  11.318  10.853  0.9326  0.4504  0.2708
    3FTM     C9 8037   5.491  11.239  10.950  0.0382  1.8021  1.1251
    3FTM    C10 8038   5.559  11.119  11.008  0.6829  0.6167  0.6061
    3FTM    C11 8039   5.843  11.485  10.773 -0.9308 -0.8457 -1.1265
    3FTM    C12 8040   5.935  11.432  10.898  0.3583 -1.5405 -0.2224
    4TPM     C1 8041   5.385  10.891  10.084  0.1554 -0.5861  0.3037
    4TPM     C2 8042   5.335  10.788  10.010  0.6965 -0.9189  0.3903
    4TPM     C3 8043   5.304  10.671  10.088  0.9804 -0.8950  0.5434
    4TPM     C4 8044   5.330  10.685  10.221  0.6553 -0.5446  0.5731
    4TPM     S1 8045   5.397  10.848  10.259 -0.0392 -0.2143  0.4093
    5BDD     C1 8046   5.124  10.399  10.393  0.5604  0.1853  0.7606
    5BDD     C2 8047   5.049  10.512  10.406  0.3259  0.0658  0.4807
    5BDD     C3 8048   5.109  10.629  10.344 -0.0081 -0.0010  0.0265
    5BDD     C4 8049   5.229  10.603  10.283 -0.0233  0.0682 -0.0341
    5BDD     S1 8050   5.275  10.430  10.301  0.3796  0.2222  0.4740
    5BDD     C5 8051   4.920  10.518  10.477  0.4001  0.0088  0.6213
    5BDD     C6 8052   5.045  10.762  10.346 -0.3000 -0.1316 -0.3312
    5BDD     O1 8053   5.097  10.863  10.292 -0.5881 -0.1891 -0.7229
    5BDD     O2 8054   4.868  10.417  10.531  0.6880  0.0663  1.0130
    5BDD     C7 8055   4.916  10.767  10.417 -0.2259 -0.1884 -0.1905
    5BDD     C8 8056   4.856  10.651  10.480  0.1080 -0.1216  0.2637
    5BDD     C9 8057   4.736  10.677  10.540  0.1233 -0.1912  0.3245
    5BDD     S2 8058   4.690  10.849  10.523 -0.2795 -0.3452 -0.1834
    5BDD    C10 8059   4.840  10.881  10.431 -0.4605 -0.3080 -0.4697
    5BDD    C11 8060   4.862  11.020  10.409 -0.0765 -2.1024  1.7910
    5BDD    C12 8061   4.784  11.106  10.294 -0.6654  0.2676  1.1508
    5BDD    C13 8062   4.751  11.014  10.164 -0.4815  0.9796  0.7410
    5BDD    C14 8063   4.843  11.033  10.042 -0.2418  0.3406  0.4934
    5BDD    C15 8064   4.918  10.902   9.995 -1.9456 -1.6599 -0.1724
    5BDD    C16 8065   4.899  10.860   9.852 -0.3189  0.4758 -0.5779
    5BDD    C17 8066   4.813  11.257  10.270 -0.7562  0.6195  0.2367
    5BDD    C18 8067   4.798  11.360  10.385  0.3106  0.4777 -0.8220
    5BDD    C19 8068   4.617  10.576  10.576 -0.4278 -0.0014  0.6028
    5BDD    C20 8069   4.575  10.570  10.728 -0.4624 -0.8363  1.4892
    5BDD    C21 8070   4.689  10.552  10.832  0.4171 -0.9042  1.2163
    5BDD    C22 8071   4.654  10.543  10.973 -0.7208 -0.8732 -0.4736
    5BDD    C23 8072   4.747  10.614  11.075 -0.6129  0.2853  0.3848
    5BDD    C24 8073   4.869  10.527  11.122  0.9117 -0.8517  2.0227
    5BDD    C25 8074   4.450  10.485  10.729 -0.9787 -0.2989 -0.0195
    5BDD    C26 8075   4.456  10.330  10.736 -0.6216 -0.1577  0.2944
    6TPM     C1 8076   5.104  10.258  10.417 -0.2706 -0.0294  0.6293
    6TPM     C2 8077   5.032  10.199  10.516 -0.9834 -0.5496 -0.1690
    6TPM     C3 8078   5.044  10.056  10.519 -1.1364 -0.5856 -0.9139
    6TPM     C4 8079   5.125  10.005  10.422 -0.5403 -0.0925 -0.6832
    6TPM     S1 8080   5.193  10.136  10.318  0.2672  0.4596  0.5013
    7BDTP    C1 8081   5.300   9.395  10.370  0.3555  0.0453  0.2260
    7BDTP    C2 8082   5.416   9.464  10.325  0.3924 -0.0546  0.1688
    7BDTP    C3 8083   5.425   9.602  10.323  0.5058 -0.0622  0.1509
    7BDTP    C4 8084   5.314   9.676  10.368  0.5864  0.0336  0.1917
    7BDTP    C5 8085   5.198   9.607  10.414  0.5494  0.1338  0.2487
    7BDTP    C6 8086   5.189   9.469  10.416  0.4360  0.1410  0.2665
    7BDTP    C7 8087   5.300   9.820  10.376  0.7084  0.0460  0.1834
    7BDTP    C8 8088   5.181   9.862  10.425  0.7639  0.1493  0.2310
    7BDTP    S1 8089   5.070   9.725  10.468  0.6695  0.2451  0.2933
    7BDTP    C9 8090   5.314   9.251  10.363  0.2335  0.0331  0.2339
    7BDTP   C10 8091   5.433   9.209  10.314  0.1781 -0.0699  0.1864
    7BDTP    S2 8092   5.544   9.346  10.271  0.2723 -0.1661  0.1245
    8FTM     S1 8093   5.521   9.837  10.185 -0.1911  0.3235  0.1261
    8FTM     C1 8094   5.700   9.853  10.191 -0.2179  0.5432  0.4185
    8FTM     C2 8095   5.755   9.738  10.239 -0.1584  0.6304  0.5610
    8FTM     C3 8096   5.663   9.634  10.273 -0.0902  0.5343  0.4544
    8FTM     C4 8097   5.533   9.670  10.251 -0.0975  0.3678  0.2223
    8FTM     F1 8098   5.892   9.721  10.254 -0.1624  0.8028  0.7968
    8FTM     C5 8099   5.770   9.982  10.146  0.8689 -0.8110  0.7588
    8FTM     C6 8100   5.892  10.042  10.230  0.4538  0.1657 -0.8607
    8FTM     C7 8101   5.870  10.096  10.371 -0.6786  0.2200 -0.1751
    8FTM     C8 8102   5.788  10.030  10.490 -0.7291 -1.1001  1.3497
    8FTM     C9 8103   5.830   9.897  10.540 -0.0965  1.5111 -0.1802
    8FTM    C10 8104   5.713   9.817  10.603 -0.5580 -0.1450 -0.0683
    8FTM    C11 8105   6.038  10.017  10.215  0.1174  1.0765  0.2072
    8FTM    C12 8106   6.094   9.991  10.074  0.3686 -0.0811 -1.5056
    9FTM     S1 8107   5.016   9.236  10.424  0.2649 -0.3095 -0.3899
    9FTM     C1 8108   4.935   9.206  10.582 -0.4016  0.1002 -0.6459
    9FTM     C2 8109   4.962   9.308  10.668 -0.3059  0.0513 -0.6177
    9FTM     C3 8110   5.046   9.413  10.618  0.2773 -0.2992 -0.4013
    9FTM     C4 8111   5.084   9.391  10.489  0.6400 -0.5264 -0.2587
    9FTM     F1 8112   4.913   9.312  10.798 -0.7408  0.3211 -0.7870
    9FTM     C5 8113   4.859   9.088  10.630 -0.1985  0.7713  0.4554
    9FTM     C6 8114   4.939   8.953  10.614  0.1195  0.7443 -0.4433
    9FTM     C7 8115   5.065   8.921  10.695  1.3115 -0.3792 -0.9851
    9FTM     C8 8116   5.196   8.964  10.632  1.5984 -0.1988  0.6846
    9FTM     C9 8117   5.285   8.898  10.530 -1.2187 -0.6893  0.3904
    9FTM    C10 8118   5.214   8.811  10.425 -0.2519 -0.1548  1.0343
    9FTM    C11 8119   4.840   8.839  10.670 -1.1925 -0.1266  1.2094
    9FTM    C12 8120   4.707   8.810  10.605 -0.0810  0.0774 -0.1438
   10TPM     C1 8121   5.495   9.078  10.313  0.2706  0.0543 -0.7550
   10TPM     C2 8122   5.460   8.991  10.215  0.2236 -0.6104 -0.1600
   10TPM     C3 8123   5.526   8.863  10.224 -0.3517 -0.8495  1.1108
   10TPM     C4 8124   5.612   8.854  10.329 -0.7433 -0.3669  1.4843
   10TPM     S1 8125   5.616   9.006  10.425 -0.4132  0.4329  0.2507
   11BDD     C1 8126   5.938   8.645  10.350 -0.4240  0.0136 -0.0746
   11BDD     C2 8127   5.838   8.556  10.323 -0.4190  0.0212 -0.1187
   11BDD     C3 8128   5.709   8.619  10.302 -0.3562  0.0517 -0.4244
   11BDD     C4 8129   5.712   8.755  10.313 -0.3142  0.0670 -0.6097
   11BDD     S1 8130   5.878   8.814  10.351 -0.3505  0.0441 -0.4137
   11BDD     C5 8131   5.858   8.410  10.315 -0.4717  0.0007  0.1192
   11BDD     C6 8132   5.587   8.541  10.271 -0.3400  0.0646 -0.5217
   11BDD     O1 8133   5.476   8.595  10.253 -0.2859  0.0913 -0.7854
   11BDD     O2 8134   5.970   8.356  10.333 -0.5258 -0.0257  0.3829
   11BDD     C7 8135   5.607   8.395  10.263 -0.3927  0.0443 -0.2837
   11BDD     C8 8136   5.736   8.332  10.284 -0.4555  0.0138  0.0219
   11BDD     C9 8137   5.733   8.196  10.273 -0.4975 -0.0017  0.2069
   11BDD     S2 8138   5.568   8.137  10.235 -0.4612  0.0214  0.0113
   11BDD    C10 8139   5.507   8.306  10.236 -0.3877  0.0517 -0.3276
   11BDD    C11 8140   5.358   8.307  10.212  0.6123  0.5696  0.0299
   11BDD    C12 8141   5.288   8.214  10.312  1.3835 -0.6634 -0.4655
   11BDD    C13 8142   5.314   8.241  10.469  0.4167 -0.4723 -0.2151
   11BDD    C14 8143   5.279   8.363  10.559 -0.4151  1.8289  0.7169
   11BDD    C15 8144   5.395   8.389  10.661 -0.3473  1.1837 -0.9500
   11BDD    C16 8145   5.350   8.324  10.802  1.9042 -0.4860  0.8747
   11BDD    C17 8146   5.152   8.151  10.264 -0.2451  1.5790  0.2918
   11BDD    C18 8147   5.054   8.254  10.228 -0.4030  0.2491 -0.0763
   11BDD    C19 8148   5.822   8.080  10.304 -0.5212 -1.1143  0.2550
   11BDD    C20 8149   5.814   8.005  10.432  0.2072 -0.7283 -0.8565
   11BDD    C21 8150   5.870   8.095  10.558 -0.3956 -0.1508 -0.5909
   11BDD    C22 8151   6.028   8.106  10.558  0.2847  1.3527  0.9311
   11BDD    C23 8152   6.064   8.224  10.620  0.8994 -0.4395 -0.6955
   11BDD    C24 8153   6.218   8.220  10.635  0.0339 -0.0385 -0.2826
   11BDD    C25 8154   5.803   7.851  10.430 -0.0670 -0.8998 -0.3148
   11BDD    C26 8155   5.681   7.827  10.520 -0.2142 -0.3708 -0.0248
   12TPM     C1 8156   6.082   8.640  10.395  0.5871 -0.1144 -0.3423
   12TPM     C2 8157   6.138   8.530  10.454  0.8169 -0.1609 -0.6452
   12TPM     C3 8158   6.277   8.546  10.484  0.6759  0.2282 -0.1712
   12TPM     C4 8159   6.328   8.668  10.449  0.3388  0.5713  0.4934
   12TPM     S1 8160   6.202   8.773  10.374  0.1718  0.4285  0.5719
   13BDTP    C1 8161   6.952   8.764  10.492 -0.1553 -0.2239  0.1898
   13BDTP    C2 8162   6.898   8.895  10.493 -0.0165 -0.1650  0.0422
   13BDTP    C3 8163   6.762   8.921  10.485  0.0125 -0.0284 -0.0274
   13BDTP    C4 8164   6.675   8.811  10.476 -0.1006  0.0541  0.0517
   13BDTP    C5 8165   6.729   8.679  10.475 -0.2396 -0.0048  0.1993
   13BDTP    C6 8166   6.865   8.654  10.483 -0.2686 -0.1412  0.2691
   13BDTP    C7 8167   6.530   8.812  10.466 -0.0967  0.1985  0.0027
   13BDTP    C8 8168   6.474   8.689  10.459 -0.2242  0.2499  0.1049
   13BDTP    S1 8169   6.596   8.554  10.462 -0.3673  0.1230  0.2778
   13BDTP    C9 8170   7.097   8.762  10.501 -0.1594 -0.3681  0.2389
   13BDTP   C10 8171   7.153   8.885  10.509 -0.0319 -0.4194  0.1366
   13BDTP    S2 8172   7.031   9.020  10.506  0.1114 -0.2927 -0.0362
   14FTM     S1 8173   6.642   9.159  10.608 -0.2748 -0.1777  0.1243
   14FTM     C1 8174   6.582   9.283  10.492 -0.5407 -0.2135  0.2225
   14FTM     C2 8175   6.610   9.244  10.364 -0.3430  0.0060  0.1972
   14FTM     C3 8176   6.678   9.119  10.350  0.0187  0.2105  0.1020
   14FTM     C4 8177   6.703   9.060  10.470  0.1006  0.1456  0.0530
   14FTM     F1 8178   6.575   9.320  10.253 -0.4777  0.0348  0.2587
   14FTM     C5 8179   6.513   9.407  10.530 -0.5294  0.4376 -0.7591
   14FTM     C6 8180   6.419   9.501  10.459  0.0155 -1.0266  0.1916
   14FTM     C7 8181   6.285   9.441  10.410 -0.6696 -1.8430  0.3340
   14FTM     C8 8182   6.163   9.422  10.507  0.0142 -0.6431 -0.3472
   14FTM     C9 8183   6.068   9.529  10.463 -0.4895  0.3127 -0.5817
   14FTM    C10 8184   5.931   9.475  10.424  0.6027 -0.1225 -1.7308
   14FTM    C11 8185   6.499   9.583  10.359  1.0897  1.1429 -0.5434
   14FTM    C12 8186   6.614   9.677  10.399  0.1514  0.8236 -0.9877
   15FTM     S1 8187   7.032   8.438  10.376  0.0976 -0.5326  0.4427
   15FTM     C1 8188   7.016   8.277  10.456 -0.2591 -0.3162  0.8115
   15FTM     C2 8189   6.930   8.287  10.561 -0.5568  0.0229  0.5450
   15FTM     C3 8190   6.874   8.416  10.586 -0.5265  0.1328  0.0501
   15FTM     C4 8191   6.917   8.509  10.496 -0.1946 -0.1310 -0.0663
   15FTM     F1 8192   6.899   8.179  10.642 -0.8745  0.2542  0.7336
   15FTM     C5 8193   7.078   8.146  10.412  0.8812 -1.7659 -0.3188
   15FTM     C6 8194   7.145   8.139  10.277 -1.4069  0.8033  0.1878
   15FTM     C7 8195   7.080   8.213  10.158 -1.3213 -1.0070  1.0149
   15FTM     C8 8196   6.940   8.213  10.109  0.7071 -0.1272 -1.2774
   15FTM     C9 8197   6.899   8.069  10.081  0.1396  0.0542  0.0380
   15FTM    C10 8198   6.777   8.046  10.000  0.3617 -1.6517  0.1057
   15FTM    C11 8199   7.309   8.116  10.271 -1.7314 -0.7793  0.3254
   15FTM    C12 8200   7.367   8.059  10.143 -0.5675 -0.7917 -0.6811
   16TPM     C1 8201   7.285   8.922  10.473  0.6524 -0.5080  0.1141
   16TPM     C2 8202   7.402   8.858  10.500  0.9403  0.0570  0.2530
   16TPM     C3 8203   7.516   8.911  10.430  0.7774  0.6411  0.4239
   16TPM     C4 8204   7.486   9.017  10.349  0.3656  0.5209  0.4155
   16TPM     S1 8205   7.310   9.057  10.355  0.1496 -0.3456  0.1889
   17BDD     C1 8206   7.644   9.063   9.987  0.0123 -0.1716 -0.0679
   17BDD     C2 8207   7.748   9.077  10.075  0.0705 -0.1557 -0.1402
   17BDD     C3 8208   7.709   9.065  10.214  0.1903 -0.2935 -0.1175
   17BDD     C4 8209   7.575   9.042  10.231  0.2217 -0.4127 -0.0288
   17BDD     S1 8210   7.489   9.034  10.073  0.1035 -0.3610  0.0331
   17BDD     C5 8211   7.888   9.102  10.033  0.0182 -0.0124 -0.2322
   17BDD     C6 8212   7.806   9.077  10.325  0.2692 -0.3018 -0.1853
   17BDD     O1 8213   7.772   9.067  10.445  0.3724 -0.4208 -0.1659
   17BDD     O2 8214   7.922   9.112   9.913 -0.0849  0.1066 -0.2515
   17BDD     C7 8215   7.945   9.102  10.284  0.2170 -0.1593 -0.2773
   17BDD     C8 8216   7.985   9.114  10.144  0.0972 -0.0212 -0.2997
   17BDD     C9 8217   8.118   9.137  10.127  0.0658  0.0980 -0.3886
   17BDD     S2 8218   8.204   9.145  10.285  0.1841  0.0460 -0.4502
   17BDD    C10 8219   8.050   9.116  10.371  0.2751 -0.1433 -0.3495
   17BDD    C11 8220   8.063   9.116  10.519  0.8569  0.4581 -0.4167
   17BDD    C12 8221   8.049   8.985  10.593  0.3356  0.4794 -0.2505
   17BDD    C13 8222   8.181   8.901  10.578  1.5791 -0.1791  1.0514
   17BDD    C14 8223   8.188   8.747  10.612 -0.2353  1.3637  0.7771
   17BDD    C15 8224   8.085   8.650  10.573  1.3731 -1.6438 -0.1719
   17BDD    C16 8225   8.107   8.516  10.636  0.9003 -0.4069 -0.8056
   17BDD    C17 8226   8.010   9.025  10.744  1.0210  1.0976  0.4015
   17BDD    C18 8227   7.981   8.906  10.828  0.4488 -0.2595 -0.2320
   17BDD    C19 8228   8.211   9.165  10.015 -0.0819  0.4376  0.0718
   17BDD    C20 8229   8.180   9.263   9.903  0.5584 -0.5292 -1.6688
   17BDD    C21 8230   8.120   9.403   9.935  1.3302  0.1109 -0.1038
   17BDD    C22 8231   8.176   9.512  10.026 -0.4643  0.0844 -1.3279
   17BDD    C23 8232   8.291   9.615   9.994  0.4329  1.2712 -0.6164
   17BDD    C24 8233   8.251   9.748  10.044 -0.3167  0.5411  0.2031
   17BDD    C25 8234   8.277   9.240   9.782 -0.9956  0.5749 -0.3865
   17BDD    C26 8235   8.270   9.313   9.649 -0.8110 -0.0098 -0.6755
   18TPM     C1 8236   7.619   9.059   9.839 -0.8362 -0.7009  0.3286
   18TPM     C2 8237   7.674   8.965   9.757 -0.9454 -1.2374  0.8547
   18TPM     C3 8238   7.602   8.947   9.633 -0.5908 -1.3654  0.6652
   18TPM     C4 8239   7.492   9.027   9.621 -0.2112 -0.9271 -0.0054
   18TPM     S1 8240   7.471   9.133   9.766 -0.2727 -0.3134 -0.4532
   19BDTP    C1 8241   6.967   9.086   9.282 -0.0826  0.2754  0.2129
   19BDTP    C2 8242   6.991   8.946   9.275 -0.0882  0.2789  0.1097
   19BDTP    C3 8243   7.100   8.885   9.336 -0.0379  0.2422 -0.0167
   19BDTP    C4 8244   7.191   8.967   9.406  0.0206  0.1998 -0.0429
   19BDTP    C5 8245   7.167   9.107   9.412  0.0261  0.1962  0.0606
   19BDTP    C6 8246   7.058   9.168   9.352 -0.0242  0.2329  0.1873
   19BDTP    C7 8247   7.311   8.927   9.477  0.0792  0.1571 -0.1664
   19BDTP    C8 8248   7.378   9.030   9.535  0.1278  0.1223 -0.1605
   19BDTP    S1 8249   7.298   9.191   9.508  0.1062  0.1388  0.0026
   19BDTP    C9 8250   6.847   9.126   9.211 -0.1411  0.3183  0.3366
   19BDTP   C10 8251   6.780   9.023   9.153 -0.1898  0.3529  0.3304
   19BDTP    S2 8252   6.860   8.862   9.179 -0.1682  0.3368  0.1677
   20FTM     S1 8253   7.049   8.622   9.418  0.5392  0.3194  0.5069
   20FTM     C1 8254   7.130   8.493   9.321  0.1479 -0.0529  0.6637
   20FTM     C2 8255   7.212   8.550   9.228 -0.1715 -0.4086  0.1588
   20FTM     C3 8256   7.215   8.693   9.226 -0.1329 -0.4134 -0.3684
   20FTM     C4 8257   7.134   8.748   9.321  0.2283 -0.0496 -0.2633
   20FTM     F1 8258   7.288   8.476   9.139 -0.5184 -0.7515  0.1435
   20FTM     C5 8259   7.110   8.349   9.311 -0.9749  1.0371 -0.6694
   20FTM     C6 8260   6.975   8.284   9.306  0.3073 -0.0634 -1.2888
   20FTM     C7 8261   6.894   8.234   9.436 -1.2360 -0.2483 -0.5051
   20FTM     C8 8262   6.811   8.318   9.539 -0.8717 -0.0448 -0.0035
   20FTM     C9 8263   6.705   8.243   9.610  1.4085 -0.6221  0.6496
   20FTM    C10 8264   6.588   8.180   9.527 -0.3246  0.7114 -0.2651
   20FTM    C11 8265   6.993   8.145   9.252  0.1410  0.1000  0.5773
   20FTM    C12 8266   7.043   8.118   9.098 -1.3986 -0.4574 -0.9915
   21FTM     S1 8267   6.984   9.364   9.566  0.0216  0.1547  0.3406
   21FTM     C1 8268   6.946   9.528   9.503  0.1077 -0.0222 -0.1920
   21FTM     C2 8269   6.956   9.530   9.368 -0.7530 -0.6986 -0.2849
   21FTM     C3 8270   6.994   9.407   9.306 -1.5132 -1.1103  0.0439
   21FTM     C4 8271   7.013   9.307   9.396 -1.2254 -0.7373  0.4009
   21FTM     F1 8272   6.932   9.644   9.292 -0.9035 -0.9849 -0.6735
   21FTM     C5 8273   6.851   9.609   9.594  1.1567 -0.5885 -0.6416
   21FTM     C6 8274   6.747   9.568   9.704  0.7518 -0.2962  0.7338
   21FTM     C7 8275   6.621   9.496   9.659  0.1566 -0.5462  0.3396
   21FTM     C8 8276   6.632   9.368   9.587 -1.3234  1.0998 -0.9538
   21FTM     C9 8277   6.541   9.335   9.479  0.3365 -0.2355  0.0672
   21FTM    C10 8278   6.390   9.308   9.499 -0.9816  1.2030  0.3993
   21FTM    C11 8279   6.766   9.507   9.840 -0.2088  0.4199  0.4307
   21FTM    C12 8280   6.781   9.612   9.951 -1.0253  0.1577 -1.2542
   22TPM     C1 8281   6.644   9.026   9.108 -0.1329  0.3932  0.4620
   22TPM     C2 8282   6.555   9.120   9.151 -0.2667  0.2952  0.3994
   22TPM     C3 8283   6.427   9.112   9.086 -0.1293  0.3176  0.1242
   22TPM     C4 8284   6.419   9.012   8.993  0.1091  0.4327 -0.0233
   22TPM     S1 8285   6.573   8.920   8.981  0.1795  0.5228  0.1756
   23BDD     C1 8286   6.070   8.932   8.829  0.1122 -0.1202 -0.2448
   23BDD     C2 8287   6.151   8.969   8.725  0.0963 -0.2186 -0.2928
   23BDD     C3 8288   6.286   9.004   8.767  0.0519 -0.0064 -0.3242
   23BDD     C4 8289   6.305   8.993   8.902  0.0345  0.2503 -0.3000
   23BDD     S1 8290   6.156   8.939   8.986  0.0724  0.2449 -0.2363
   23BDD     C5 8291   6.108   8.974   8.584  0.1216 -0.5114 -0.3107
   23BDD     C6 8292   6.390   9.047   8.672  0.0283 -0.0665 -0.3767
   23BDD     O1 8293   6.506   9.077   8.708 -0.0101  0.1163 -0.4039
   23BDD     O2 8294   5.992   8.944   8.548  0.1600 -0.6945 -0.2835
   23BDD     C7 8295   6.347   9.051   8.530  0.0536 -0.3595 -0.3948
   23BDD     C8 8296   6.213   9.016   8.488  0.0982 -0.5717 -0.3633
   23BDD     C9 8297   6.193   9.027   8.354  0.1156 -0.8285 -0.3877
   23BDD     S2 8298   6.342   9.082   8.270  0.0776 -0.8229 -0.4509
   23BDD    C10 8299   6.429   9.088   8.427  0.0378 -0.4575 -0.4427
   23BDD    C11 8300   6.579   9.083   8.408 -0.1947  1.4294  1.0200
   23BDD    C12 8301   6.672   9.202   8.416 -1.2468 -0.2484  0.3395
   23BDD    C13 8302   6.813   9.172   8.379 -1.1289 -0.4401  1.1860
   23BDD    C14 8303   6.907   9.090   8.471  0.7297 -1.6107  0.3889
   23BDD    C15 8304   7.048   9.101   8.427 -0.0287  0.3716 -0.0164
   23BDD    C16 8305   7.094   8.998   8.324  0.6944 -0.2661  0.8772
   23BDD    C17 8306   6.641   9.322   8.333  1.1491 -0.6636  0.5193
   23BDD    C18 8307   6.702   9.464   8.359  0.8994 -0.7640  0.4121
   23BDD    C19 8308   6.061   9.022   8.289  1.1082  0.0719 -0.0848
   23BDD    C20 8309   6.003   9.169   8.271 -0.3561 -0.9293 -0.4566
   23BDD    C21 8310   6.082   9.259   8.186  0.9861  0.1455  0.5788
   23BDD    C22 8311   6.092   9.260   8.023 -0.7439  0.3624  1.3260
   23BDD    C23 8312   5.951   9.284   7.978  0.7977 -0.9875 -0.8173
   23BDD    C24 8313   5.911   9.278   7.836  1.1672 -0.9928 -0.2092
   23BDD    C25 8314   5.867   9.200   8.314  0.4774 -0.4988 -0.0334
   23BDD    C26 8315   5.737   9.139   8.241 -0.2454 -0.8272  0.9654
   24TPM     C1 8316   5.931   8.886   8.842 -0.5731  0.7963 -0.2612
   24TPM     C2 8317   5.874   8.798   8.756 -0.4543  0.5939 -0.1347
   24TPM     C3 8318   5.746   8.747   8.801 -0.0479 -0.0837  0.2866
   24TPM     C4 8319   5.707   8.797   8.921  0.1432 -0.3979  0.4816
   24TPM     S1 8320   5.828   8.913   8.988 -0.1778  0.1423  0.1450
   25BDTP    C1 8321   5.141   8.611   9.110  0.0403  0.3521  0.2248
   25BDTP    C2 8322   5.148   8.742   9.165  0.2493  0.3436  0.2224
   25BDTP    C3 8323   5.257   8.827   9.145  0.4281  0.1340  0.3042
   25BDTP    C4 8324   5.364   8.779   9.067  0.3997 -0.0768  0.3924
   25BDTP    C5 8325   5.357   8.648   9.013  0.1909 -0.0679  0.3943
   25BDTP    C6 8326   5.249   8.564   9.032  0.0119  0.1414  0.3130
   25BDTP    C7 8327   5.487   8.848   9.033  0.5608 -0.3142  0.4863
   25BDTP    C8 8328   5.572   8.776   8.957  0.4835 -0.4821  0.5579
   25BDTP    S1 8329   5.508   8.610   8.916  0.1963 -0.3631  0.5169
   25BDTP    C9 8330   5.019   8.542   9.144 -0.1205  0.5896  0.1311
   25BDTP   C10 8331   4.934   8.615   9.221 -0.0434  0.7579  0.0594
   25BDTP    S2 8332   4.997   8.780   9.261  0.2439  0.6383  0.1004
   26FTM     S1 8333   5.412   9.027   9.284  0.1645 -0.2686 -0.0592
   26FTM     C1 8334   5.332   9.189   9.294  0.5926 -0.0297 -0.4130
   26FTM     C2 8335   5.202   9.178   9.256  0.7083  0.3490 -0.9477
   26FTM     C3 8336   5.157   9.047   9.219  0.4765  0.4733 -1.1113
   26FTM     C4 8337   5.257   8.954   9.227  0.1734  0.1805 -0.6874
   26FTM     F1 8338   5.115   9.286   9.254  1.0309  0.6051 -1.3211
   26FTM     C5 8339   5.382   9.299   9.383 -0.3958  0.3873  0.4599
   26FTM     C6 8340   5.437   9.256   9.511  0.7582 -0.9589  0.4522
   26FTM     C7 8341   5.581   9.305   9.519  0.4690  0.2735 -0.4488
   26FTM     C8 8342   5.617   9.461   9.544 -0.7476  0.4749  0.4252
   26FTM     C9 8343   5.621   9.563   9.432  0.5715 -0.5880 -1.8344
   26FTM    C10 8344   5.641   9.702   9.493  0.5255  0.9945 -0.6529
   26FTM    C11 8345   5.350   9.282   9.640 -1.0406 -0.2501  0.0524
   26FTM    C12 8346   5.208   9.214   9.629  1.0025  0.5937  0.5606
   27FTM     S1 8347   5.121   8.339   8.896  0.0258  0.0804 -0.1391
   27FTM     C1 8348   5.223   8.199   8.847 -0.2271 -0.4166  0.7241
   27FTM     C2 8349   5.352   8.219   8.885 -0.2631 -0.6058  0.9563
   27FTM     C3 8350   5.379   8.343   8.952 -0.1000 -0.3815  0.4890
   27FTM     C4 8351   5.267   8.419   8.967  0.0662 -0.0084 -0.1214
   27FTM     F1 8352   5.453   8.128   8.860 -0.4457 -0.9935  1.6062
   27FTM     C5 8353   5.166   8.073   8.806  0.2253 -0.1533 -0.3577
   27FTM     C6 8354   5.237   7.967   8.722 -0.2974  1.2709  0.4055
   27FTM     C7 8355   5.294   8.010   8.586 -0.5906 -0.6240  0.4174
   27FTM     C8 8356   5.407   7.937   8.531 -1.8329  1.0207 -0.2269
   27FTM     C9 8357   5.468   8.031   8.422 -0.4163 -0.6619  0.0410
   27FTM    C10 8358   5.608   7.993   8.381 -1.4659  0.6017 -1.1971
   27FTM    C11 8359   5.153   7.841   8.737 -0.1871 -0.8880  0.4633
   27FTM    C12 8360   5.145   7.727   8.634  0.0126 -0.4787 -0.6507
   28TPM     C1 8361   4.800   8.567   9.254 -0.2802  0.3417  0.2958
   28TPM     C2 8362   4.701   8.641   9.312  0.1146  0.1194  1.3003
   28TPM     C3 8363   4.590   8.563   9.359  0.3277 -0.0467  1.5254
   28TPM     C4 8364   4.604   8.429   9.338  0.0955  0.0484  0.6933
   28TPM     S1 8365   4.760   8.391   9.256 -0.4144  0.3581 -0.4491
   29BDD     C1 8366   4.357   8.291   9.602  0.0188 -0.4635 -0.1487
   29BDD     C2 8367   4.321   8.229   9.486  0.0005 -0.3872 -0.1841
   29BDD     C3 8368   4.407   8.262   9.373 -0.0226 -0.3059 -0.1788
   29BDD     C4 8369   4.508   8.348   9.406 -0.0218 -0.3217 -0.1394
   29BDD     S1 8370   4.502   8.394   9.579  0.0081 -0.4394 -0.1063
   29BDD     C5 8371   4.205   8.138   9.473  0.0036 -0.3860 -0.2241
   29BDD     C6 8372   4.386   8.206   9.238 -0.0447 -0.2153 -0.2127
   29BDD     O1 8373   4.460   8.234   9.141 -0.0646 -0.1452 -0.2081
   29BDD     O2 8374   4.131   8.110   9.570  0.0235 -0.4559 -0.2289
   29BDD     C7 8375   4.270   8.115   9.226 -0.0416 -0.2143 -0.2525
   29BDD     C8 8376   4.184   8.082   9.338 -0.0185 -0.2954 -0.2580
   29BDD     C9 8377   4.083   7.996   9.306 -0.0194 -0.2799 -0.2975
   29BDD     S2 8378   4.089   7.950   9.133 -0.0493 -0.1621 -0.3306
   29BDD    C10 8379   4.234   8.053   9.110 -0.0597 -0.1378 -0.2880
   29BDD    C11 8380   4.302   8.052   8.961 -0.6660 -0.6008 -0.8082
   29BDD    C12 8381   4.423   7.945   8.929 -0.8269 -0.2399  0.8294
   29BDD    C13 8382   4.533   7.936   9.043 -0.3851 -0.2093  0.1837
   29BDD    C14 8383   4.670   8.011   9.027  0.4679  1.6870 -0.5785
   29BDD    C15 8384   4.744   8.013   9.160  0.8671 -0.1255  0.6257
   29BDD    C16 8385   4.857   8.112   9.144 -1.3356  0.0453  0.3937
   29BDD    C17 8386   4.440   7.863   8.801  0.3361  0.0063  0.4470
   29BDD    C18 8387   4.516   7.739   8.830  0.7320  1.7787  0.6610
   29BDD    C19 8388   3.962   7.936   9.379 -1.0061  0.1907 -0.1363
   29BDD    C20 8389   3.950   7.773   9.405  0.2485 -0.5162 -1.2470
   29BDD    C21 8390   3.991   7.704   9.544 -1.9155  1.3505 -0.0142
   29BDD    C22 8391   4.122   7.760   9.600 -0.1196  0.4269 -1.0750
   29BDD    C23 8392   4.141   7.770   9.759 -0.0444  0.7782 -0.2019
   29BDD    C24 8393   4.270   7.808   9.834  0.2341  1.1018  0.6932
   29BDD    C25 8394   3.943   7.668   9.303  0.7266  1.1169 -0.1358
   29BDD    C26 8395   3.842   7.706   9.197 -0.4153 -0.2009  0.1400
   30TPM     C1 8396   4.286   8.319   9.729 -0.4064 -1.0549 -0.4742
   30TPM     C2 8397   4.366   8.315   9.839 -0.0196 -2.0738 -0.7653
   30TPM     C3 8398   4.293   8.306   9.963  0.3431 -1.7822 -0.5250
   30TPM     C4 8399   4.157   8.304   9.947  0.2327 -0.5409 -0.0503
   30TPM     S1 8400   4.111   8.312   9.772 -0.3419  0.3625  0.1311
   31BDTP    C1 8401   3.735   8.165  10.386  0.4096  0.0620 -0.0913
   31BDTP    C2 8402   3.652   8.205  10.277  0.3544  0.2122  0.0057
   31BDTP    C3 8403   3.704   8.251  10.156  0.2951  0.2353 -0.0107
   31BDTP    C4 8404   3.844   8.258  10.142  0.2900  0.1044 -0.1283
   31BDTP    C5 8405   3.927   8.217  10.251  0.3452 -0.0455 -0.2253
   31BDTP    C6 8406   3.875   8.171  10.371  0.4045 -0.0688 -0.2088
   31BDTP    C7 8407   3.920   8.302  10.027  0.2336  0.0996 -0.1672
   31BDTP    C8 8408   4.054   8.297  10.044  0.2438 -0.0451 -0.2875
   31BDTP    S1 8409   4.103   8.235  10.208  0.3262 -0.1955 -0.3684
   31BDTP    C9 8410   3.659   8.120  10.501  0.4659  0.0668 -0.0522
   31BDTP   C10 8411   3.525   8.125  10.484  0.4558  0.2112  0.0684
   31BDTP    S2 8412   3.476   8.187  10.320  0.3734  0.3620  0.1490
   32FTM     S1 8413   3.569   8.464  10.051  0.4030 -0.2299  0.1908
   32FTM     C1 8414   3.478   8.446   9.897 -0.1536  0.1406  0.4671
   32FTM     C2 8415   3.484   8.317   9.855 -0.8276  0.1063  0.4511
   32FTM     C3 8416   3.558   8.226   9.938 -0.9491 -0.2024  0.2284
   32FTM     C4 8417   3.610   8.289  10.048 -0.3488 -0.4115  0.0692
   32FTM     F1 8418   3.423   8.272   9.739 -1.3742  0.3526  0.6366
   32FTM     C5 8419   3.429   8.581   9.847  0.3611  0.3849  0.0717
   32FTM     C6 8420   3.275   8.594   9.808 -1.0690  0.5494 -0.7937
   32FTM     C7 8421   3.240   8.742   9.778  0.3773  0.2797 -0.3751
   32FTM     C8 8422   3.094   8.805   9.725 -0.9343  0.9723  0.2036
   32FTM     C9 8423   2.988   8.758   9.819 -0.2940 -0.1007  0.3909
   32FTM    C10 8424   2.866   8.778   9.732 -0.7631  1.3938 -0.0697
   32FTM    C11 8425   3.235   8.495   9.695  0.1440 -0.2021 -1.4785
   32FTM    C12 8426   3.282   8.482   9.546  0.6425 -0.3479  0.6455
   33FTM     S1 8427   4.101   8.034  10.462 -0.4271 -0.5962  0.5968
   33FTM     C1 8428   4.152   8.062  10.633 -0.2834 -0.3415  0.5138
   33FTM     C2 8429   4.066   8.149  10.693 -0.1093 -0.0863  0.3932
   33FTM     C3 8430   3.959   8.198  10.612 -0.0780 -0.0744  0.3586
   33FTM     C4 8431   3.962   8.147  10.485 -0.2330 -0.3281  0.4562
   33FTM     F1 8432   4.080   8.190  10.825  0.0318  0.1514  0.3068
   33FTM     C5 8433   4.297   8.021  10.653  0.0474 -1.0132  0.5076
   33FTM     C6 8434   4.357   7.924  10.759 -0.3827 -0.0235  0.6553
   33FTM     C7 8435   4.295   7.937  10.903 -0.4821  0.0566  0.1193
   33FTM     C8 8436   4.335   8.079  10.966  0.6861  0.1646  0.1864
   33FTM     C9 8437   4.261   8.137  11.080  0.2273 -0.4731 -1.0503
   33FTM    C10 8438   4.250   8.050  11.204 -0.6527 -0.8725  0.2587
   33FTM    C11 8439   4.344   7.773  10.735  0.3504 -1.3420  0.0806
   33FTM    C12 8440   4.418   7.728  10.611 -1.0084  1.8696 -0.0668
   34TPM     C1 8441   3.442   8.104  10.600 -0.6517 -0.0204 -0.2634
   34TPM     C2 8442   3.447   8.155  10.726  0.3901 -0.4799 -0.0992
   34TPM     C3 8443   3.353   8.095  10.817  0.9199 -0.5949  0.3831
   34TPM     C4 8444   3.276   7.998  10.760  0.2822 -0.2230  0.5867
   34TPM     S1 8445   3.317   7.975  10.586 -1.0474  0.3052  0.1817
   35BDD     C1 8446   3.083   7.701  10.924  0.3261 -0.0541 -0.3262
   35BDD     C2 8447   2.988   7.797  10.904  0.2932 -0.0858 -0.3235
   35BDD     C3 8448   3.042   7.920  10.850  0.2493 -0.0700 -0.3312
   35BDD     C4 8449   3.177   7.917  10.830  0.2493 -0.0262 -0.3392
   35BDD     S1 8450   3.246   7.758  10.877  0.3044 -0.0019 -0.3383
   35BDD     C5 8451   2.844   7.779  10.934  0.3008 -0.1318 -0.3142
   35BDD     C6 8452   2.957   8.038  10.820  0.2087 -0.0987 -0.3297
   35BDD     O1 8453   3.003   8.144  10.774  0.1709 -0.0849 -0.3362
   35BDD     O2 8454   2.798   7.672  10.981  0.3387 -0.1454 -0.3078
   35BDD     C7 8455   2.813   8.020  10.850  0.2165 -0.1450 -0.3202
   35BDD     C8 8456   2.760   7.896  10.904  0.2605 -0.1607 -0.3126
   35BDD     C9 8457   2.624   7.900  10.925  0.2605 -0.2043 -0.3047
   35BDD     S2 8458   2.555   8.059  10.877  0.2053 -0.2288 -0.3059
   35BDD    C10 8459   2.718   8.116  10.830  0.1837 -0.1767 -0.3178
   35BDD    C11 8460   2.728   8.244  10.745  0.4891 -0.1089  0.5067
   35BDD    C12 8461   2.684   8.363  10.832 -0.0831 -0.3783 -0.3270
   35BDD    C13 8462   2.617   8.483  10.757 -0.0884  0.5175  0.5090
   35BDD    C14 8463   2.500   8.456  10.657  0.1966 -1.0896  0.4730
   35BDD    C15 8464   2.479   8.587  10.557 -0.5052 -0.4227 -0.0884
   35BDD    C16 8465   2.457   8.525  10.416  0.7053 -0.4914  0.5311
   35BDD    C17 8466   2.799   8.415  10.922 -0.0222 -0.4601 -1.3026
   35BDD    C18 8467   2.818   8.552  11.000  1.5871  0.5879  0.3087
   35BDD    C19 8468   2.514   7.829  11.006  0.2515  0.7070 -0.6368
   35BDD    C20 8469   2.468   7.689  10.968  0.7875  0.6047 -0.7601
   35BDD    C21 8470   2.415   7.652  10.836  0.7733 -0.0468 -0.5690
   35BDD    C22 8471   2.507   7.605  10.720 -1.2468  0.1242 -1.2885
   35BDD    C23 8472   2.465   7.527  10.587  0.7693 -1.0194 -0.8428
   35BDD    C24 8473   2.594   7.473  10.503 -1.4174  0.8124  0.1710
   35BDD    C25 8474   2.361   7.679  11.080 -0.5534 -0.5779  0.8370
   35BDD    C26 8475   2.344   7.550  11.145  0.2412 -0.4755  0.2065
   36TPM     C1 8476   3.079   7.554  10.954  0.3976 -0.4171 -0.5141
   36TPM     C2 8477   3.153   7.513  11.061  0.0256  0.2548  0.0172
   36TPM     C3 8478   3.118   7.382  11.109 -0.2358  0.6076  0.8261
   36TPM     C4 8479   3.017   7.323  11.039 -0.0630  0.2045  0.9116
   36TPM     S1 8480   2.958   7.429  10.905  0.4471 -0.6585 -0.0302
   37BDTP    C1 8481   2.870   6.712  11.136 -0.1862 -0.1578 -0.2236
   37BDTP    C2 8482   2.844   6.729  10.998 -0.0618 -0.0573 -0.2351
   37BDTP    C3 8483   2.858   6.852  10.934 -0.0470 -0.0010 -0.1245
   37BDTP    C4 8484   2.900   6.962  11.010 -0.1599 -0.0457  0.0036
   37BDTP    C5 8485   2.927   6.944  11.149 -0.2843 -0.1460  0.0150
   37BDTP    C6 8486   2.913   6.822  11.213 -0.2992 -0.2025 -0.0961
   37BDTP    C7 8487   2.922   7.098  10.966 -0.1689 -0.0022  0.1325
   37BDTP    C8 8488   2.963   7.182  11.064 -0.2923 -0.0643  0.2389
   37BDTP    S1 8489   2.980   7.101  11.225 -0.4147 -0.1867  0.1903
   37BDTP    C9 8490   2.848   6.575  11.181 -0.1773 -0.2013 -0.3529
   37BDTP   C10 8491   2.807   6.491  11.083 -0.0538 -0.1392 -0.4592
   37BDTP    S2 8492   2.790   6.572  10.921  0.0686 -0.0170 -0.4108
   38FTM     S1 8493   2.760   6.965  10.667  0.0960 -0.3458  0.2960
   38FTM     C1 8494   2.859   6.919  10.524  0.4540  0.8906  0.1217
   38FTM     C2 8495   2.964   6.842  10.563  0.5128  0.7766 -0.2539
   38FTM     C3 8496   2.974   6.814  10.703  0.2885 -0.2542 -0.4253
   38FTM     C4 8497   2.873   6.872  10.774  0.0502 -0.9524 -0.1726
   38FTM     F1 8498   3.058   6.791  10.474  0.7733  1.5992 -0.4652
   38FTM     C5 8499   2.835   6.984  10.399  0.3742  0.2147  1.7869
   38FTM     C6 8500   2.894   7.126  10.354 -0.2347  1.5671  0.9139
   38FTM     C7 8501   3.036   7.118  10.369 -0.9169  1.0717  0.2619
   38FTM     C8 8502   3.118   7.150  10.487  0.6886 -0.0974 -0.2522
   38FTM     C9 8503   3.115   7.285  10.511  0.2410 -0.2989 -0.4379
   38FTM    C10 8504   3.186   7.276  10.638  0.3891 -0.2859 -0.9843
   38FTM    C11 8505   2.855   7.161  10.204  0.0056  1.0099 -0.3752
   38FTM    C12 8506   2.870   7.302  10.191  0.3413 -0.6197  0.2525
   39FTM     S1 8507   2.808   6.886  11.477  0.2015 -0.6177 -0.2138
   39FTM     C1 8508   2.925   6.859  11.612  0.2780  0.3621 -0.0711
   39FTM     C2 8509   3.040   6.804  11.563  0.5481  0.7159  0.1600
   39FTM     C3 8510   3.044   6.780  11.422  0.7082  0.2578  0.2382
   39FTM     C4 8511   2.928   6.818  11.360  0.5557 -0.4705  0.0613
   39FTM     F1 8512   3.148   6.773  11.644  0.6663  1.4756  0.3144
   39FTM     C5 8513   2.936   6.871  11.767  1.7884 -0.1783  0.7468
   39FTM     C6 8514   2.811   6.903  11.855 -0.0022  0.5185  0.4064
   39FTM     C7 8515   2.816   7.050  11.908 -0.3848  0.3565  0.0690
   39FTM     C8 8516   2.912   7.053  12.029  0.1529 -1.5217  0.5138
   39FTM     C9 8517   2.972   7.177  12.069 -0.6745 -0.5740 -0.5056
   39FTM    C10 8518   3.067   7.239  11.967 -0.5769 -0.9253  0.0636
   39FTM    C11 8519   2.666   6.838  11.817 -0.4600  0.6932  0.9506
   39FTM    C12 8520   2.535   6.879  11.854 -0.3478  0.9588 -0.7792
   40TPM     C1 8521   2.790   6.349  11.082 -0.5577 -0.3488 -0.3106
   40TPM     C2 8522   2.797   6.271  10.970 -0.8039 -0.5096 -0.2141
   40TPM     C3 8523   2.747   6.137  10.990 -0.5069 -0.5693  0.1655
   40TPM     C4 8524   2.702   6.113  11.116 -0.0341 -0.4540  0.3587
   40TPM     S1 8525   2.720   6.259  11.221  0.0734 -0.2596  0.0741
   41BDD     C1 8526   2.771   5.787  11.323  0.0166  0.0755 -0.1467
   41BDD     C2 8527   2.655   5.757  11.257 -0.0054  0.0933 -0.1171
   41BDD     C3 8528   2.612   5.862  11.166 -0.1049  0.1719  0.0210
   41BDD     C4 8529   2.695   5.971  11.165 -0.1575  0.2127  0.0942
   41BDD     S1 8530   2.833   5.949  11.278 -0.0859  0.1557 -0.0043
   41BDD     C5 8531   2.580   5.631  11.274  0.0644  0.0387 -0.2143
   41BDD     C6 8532   2.490   5.851  11.084 -0.1444  0.2033  0.0751
   41BDD     O1 8533   2.452   5.941  11.006 -0.2302  0.2710  0.1941
   41BDD     O2 8534   2.618   5.540  11.352  0.1503 -0.0290 -0.3331
   41BDD     C7 8535   2.415   5.724  11.101 -0.0746  0.1488 -0.0222
   41BDD     C8 8536   2.458   5.619  11.191  0.0250  0.0703 -0.1600
   41BDD     C9 8537   2.375   5.511  11.192  0.0774  0.0294 -0.2334
   41BDD     S2 8538   2.237   5.532  11.080  0.0059  0.0862 -0.1346
   41BDD    C10 8539   2.299   5.694  11.034 -0.0967  0.1665  0.0079
   41BDD    C11 8540   2.243   5.748  10.906 -0.6425  0.3783 -0.4410
   41BDD    C12 8541   2.088   5.764  10.917  1.4617 -1.2196 -0.0762
   41BDD    C13 8542   2.046   5.837  11.045 -0.7342 -0.6218  0.8832
   41BDD    C14 8543   1.931   5.766  11.105 -0.5491 -1.1317 -0.2189
   41BDD    C15 8544   1.966   5.649  11.203 -0.5216 -1.3325 -0.3527
   41BDD    C16 8545   1.877   5.528  11.167 -0.8990 -1.2045 -0.0755
   41BDD    C17 8546   2.019   5.811  10.780 -1.1509  0.6872 -0.4934
   41BDD    C18 8547   2.062   5.926  10.699  0.3606  0.0992  0.7843
   41BDD    C19 8548   2.401   5.370  11.239 -0.6058 -0.4266 -0.0455
   41BDD    C20 8549   2.286   5.324  11.321  0.8506 -0.8588 -1.7924
   41BDD    C21 8550   2.248   5.168  11.307  0.1097 -0.4226 -0.6760
   41BDD    C22 8551   2.161   5.126  11.189 -0.5005  0.7140  0.6105
   41BDD    C23 8552   2.246   5.069  11.073 -0.1972  0.0864 -0.1809
   41BDD    C24 8553   2.227   4.918  11.083  1.9210  0.9342 -0.3654
   41BDD    C25 8554   2.329   5.342  11.462  0.2414  0.0120 -0.8898
   41BDD    C26 8555   2.229   5.365  11.587  1.2833 -0.5816  0.8925
   42TPM     C1 8556   2.858   5.724  11.423  0.2206  0.2136  0.7323
   42TPM     C2 8557   2.910   5.790  11.530 -0.2344 -0.2606  1.2601
   42TPM     C3 8558   2.963   5.703  11.632 -0.2971 -0.7139  0.9119
   42TPM     C4 8559   2.952   5.571  11.602  0.1100 -0.5854  0.1187
   42TPM     S1 8560   2.872   5.545  11.442  0.6080  0.1237 -0.2530
   43BDTP    C1 8561   3.120   5.074  11.947 -0.0787  0.0598  0.2232
   43BDTP    C2 8562   3.135   5.181  12.040  0.1050  0.0731  0.1789
   43BDTP    C3 8563   3.112   5.314  12.006  0.1942  0.0845  0.1627
   43BDTP    C4 8564   3.072   5.343  11.875  0.0979  0.0832  0.1915
   43BDTP    C5 8565   3.057   5.236  11.781 -0.0858  0.0701  0.2359
   43BDTP    C6 8566   3.080   5.103  11.815 -0.1749  0.0583  0.2520
   43BDTP    C7 8567   3.042   5.472  11.817  0.1614  0.0938  0.1823
   43BDTP    C8 8568   3.006   5.468  11.686  0.0361  0.0894  0.2171
   43BDTP    S1 8569   3.004   5.299  11.618 -0.1803  0.0708  0.2665
   43BDTP    C9 8570   3.150   4.945  12.005 -0.1423  0.0491  0.2324
   43BDTP   C10 8571   3.186   4.949  12.135 -0.0169  0.0538  0.1976
   43BDTP    S2 8572   3.188   5.118  12.203  0.1995  0.0720  0.1482
   44FTM     S1 8573   3.150   5.581  12.116 -0.1838 -0.0310  0.2050
   44FTM     C1 8574   3.047   5.624  12.257 -0.4398  0.2791 -0.0710
   44FTM     C2 8575   2.966   5.519  12.288 -0.6126  0.4069 -0.0901
   44FTM     C3 8576   2.978   5.403  12.206 -0.5579  0.2747  0.1041
   44FTM     C4 8577   3.072   5.418  12.109 -0.3358  0.0378  0.2775
   44FTM     F1 8578   2.875   5.523  12.393 -0.8307  0.6512 -0.2846
   44FTM     C5 8579   3.067   5.763  12.311 -0.3496  0.8876  0.0432
   44FTM     C6 8580   3.174   5.871  12.280  1.0182  0.5459 -0.3103
   44FTM     C7 8581   3.308   5.844  12.339  0.8763  0.5488 -0.3206
   44FTM     C8 8582   3.313   5.873  12.487  1.3873  0.0720 -0.5783
   44FTM     C9 8583   3.278   6.012  12.533 -1.0466 -0.1805  0.2963
   44FTM    C10 8584   3.345   6.055  12.662 -0.6314 -0.9286  1.5922
   44FTM    C11 8585   3.169   5.949  12.148 -0.1637 -0.7077  0.2079
   44FTM    C12 8586   3.239   6.079  12.112 -0.2959  1.4979  0.2054
   45FTM     S1 8587   2.839   5.015  11.702  0.0696 -0.0656  0.0198
   45FTM     C1 8588   2.841   4.856  11.618 -0.1019  0.1542 -0.4067
   45FTM     C2 8589   2.967   4.804  11.620 -0.0963  0.1454 -0.8013
   45FTM     C3 8590   3.067   4.882  11.686  0.0385 -0.0290 -0.7962
   45FTM     C4 8591   3.016   4.999  11.736  0.1394 -0.1576 -0.3842
   45FTM     F1 8592   2.998   4.681  11.563 -0.2129  0.2944 -1.1904
   45FTM     C5 8593   2.724   4.822  11.525 -0.4907  0.6630 -0.6964
   45FTM     C6 8594   2.707   4.863  11.370 -0.2269 -0.3301 -0.8792
   45FTM     C7 8595   2.566   4.854  11.315 -0.6578 -0.5843 -0.9706
   45FTM     C8 8596   2.514   4.721  11.325 -0.6242  1.1114  0.2497
   45FTM     C9 8597   2.586   4.627  11.222  0.0122 -0.6294  0.5654
   45FTM    C10 8598   2.587   4.487  11.271  0.2812  1.4255  0.3901
   45FTM    C11 8599   2.801   4.987  11.341  0.0017 -0.9327  0.3213
   45FTM    C12 8600   2.775   5.051  11.209  0.5182  0.3226  0.0255
   46TPM     C1 8601   3.270   4.850  12.178  0.1478 -0.0799 -0.2258
   46TPM     C2 8602   3.394   4.871  12.233  0.6018 -0.4157 -1.0848
   46TPM     C3 8603   3.473   4.751  12.242  0.3787 -0.6229 -1.7133
   46TPM     C4 8604   3.411   4.640  12.195 -0.2455 -0.4451 -1.3334
   46TPM     S1 8605   3.245   4.677  12.134 -0.6025  0.0014 -0.1433
   47BDD     C1 8606   3.491   4.257  12.203  0.2770  0.2074  0.6415
   47BDD     C2 8607   3.608   4.314  12.160  0.2102  0.1744  0.4141
   47BDD     C3 8608   3.602   4.460  12.155  0.1729  0.1678  0.2193
   47BDD     C4 8609   3.482   4.510  12.195  0.2116  0.1960  0.3010
   47BDD     S1 8610   3.367   4.380  12.241  0.2977  0.2326  0.6275
   47BDD     C5 8611   3.728   4.238  12.121  0.1783  0.1475  0.3675
   47BDD     C6 8612   3.717   4.542  12.112  0.1000  0.1341 -0.0408
   47BDD     O1 8613   3.712   4.667  12.108  0.0678  0.1285 -0.2088
   47BDD     O2 8614   3.733   4.113  12.124  0.2106  0.1529  0.5355
   47BDD     C7 8615   3.837   4.466  12.073  0.0681  0.1073 -0.0874
   47BDD     C8 8616   3.843   4.321  12.077  0.1054  0.1137  0.1074
   47BDD     C9 8617   3.963   4.270  12.038  0.0667  0.0856  0.0256
   47BDD     S2 8618   4.078   4.400  11.992 -0.0193  0.0490 -0.3008
   47BDD    C10 8619   3.954   4.524  12.030  0.0014  0.0744 -0.3148
   47BDD    C11 8620   3.986   4.668  12.007  0.0296 -0.3136 -0.1519
   47BDD    C12 8621   3.987   4.735  11.867 -0.2025 -2.3464 -0.9493
   47BDD    C13 8622   4.027   4.886  11.860 -1.0373 -0.3396  0.2137
   47BDD    C14 8623   4.141   4.931  11.954 -0.0751 -0.7136 -0.2285
   47BDD    C15 8624   4.156   5.076  11.947 -1.2886  0.3746 -0.6299
   47BDD    C16 8625   4.286   5.116  12.024  1.2286 -1.5608 -0.5694
   47BDD    C17 8626   3.874   4.703  11.769 -0.2067  0.4854 -0.5491
   47BDD    C18 8627   3.744   4.774  11.734  0.8374  0.9323 -1.3346
   47BDD    C19 8628   4.029   4.141  12.042 -0.3351 -1.0812  0.1727
   47BDD    C20 8629   4.158   4.139  12.138  0.5117 -1.1433  1.0401
   47BDD    C21 8630   4.301   4.143  12.085 -0.1953 -0.0246  0.4208
   47BDD    C22 8631   4.340   4.081  11.943  1.0051  0.2225 -0.0933
   47BDD    C23 8632   4.332   4.176  11.815  0.3423  0.9942  0.6400
   47BDD    C24 8633   4.358   4.085  11.700 -1.3605 -0.0022  1.0552
   47BDD    C25 8634   4.151   4.196  12.278  0.6716  0.3171 -0.3745
   47BDD    C26 8635   4.028   4.183  12.379 -0.6586  0.4752  0.5328
   48TPM     C1 8636   3.432   4.117  12.192 -0.2818  0.0398 -0.4686
   48TPM     C2 8637   3.299   4.092  12.211 -0.2037 -0.0648 -0.0272
   48TPM     C3 8638   3.263   3.953  12.192 -0.0541 -0.2110  0.7260
   48TPM     C4 8639   3.369   3.873  12.160 -0.0181 -0.2176  0.8590
   48TPM     S1 8640   3.523   3.967  12.150 -0.1717 -0.0386  0.0368
   49BDTP    C1 8641   3.444   3.254  12.182 -0.1457  0.0889  0.0117
   49BDTP    C2 8642   3.494   3.287  12.053  0.0435  0.0819  0.0823
   49BDTP    C3 8643   3.495   3.417  12.004  0.1830  0.0894  0.1057
   49BDTP    C4 8644   3.445   3.519  12.087  0.1340  0.1047  0.0573
   49BDTP    C5 8645   3.395   3.486  12.216 -0.0553  0.1117 -0.0133
   49BDTP    C6 8646   3.394   3.356  12.264 -0.1948  0.1042 -0.0366
   49BDTP    C7 8647   3.436   3.661  12.058  0.2540  0.1148  0.0693
   49BDTP    C8 8648   3.383   3.735  12.159  0.1652  0.1288  0.0119
   49BDTP    S1 8649   3.336   3.635  12.303 -0.0830  0.1314 -0.0654
   49BDTP    C9 8650   3.453   3.112  12.210 -0.2658  0.0788 -0.0003
   49BDTP   C10 8651   3.506   3.038  12.110 -0.1770  0.0647  0.0571
   49BDTP    S2 8652   3.553   3.138  11.965  0.0713  0.0622  0.1345
   50FTM     S1 8653   3.617   3.593  11.807  0.5269 -0.1000 -0.2412
   50FTM     C1 8654   3.589   3.544  11.636 -0.4836  0.2257 -0.1836
   50FTM     C2 8655   3.519   3.428  11.632 -0.7642  0.3867  0.0011
   50FTM     C3 8656   3.483   3.371  11.758 -0.2238  0.2695  0.1066
   50FTM     C4 8657   3.527   3.446  11.863  0.4943  0.0102 -0.0009
   50FTM     F1 8658   3.483   3.366  11.513 -1.5272  0.6499  0.0857
   50FTM     C5 8659   3.652   3.608  11.526  0.0286 -0.6321 -0.7365
   50FTM     C6 8660   3.571   3.651  11.396 -0.7208  0.8691 -1.1997
   50FTM     C7 8661   3.648   3.775  11.336 -0.0415 -0.0655  0.5545
   50FTM     C8 8662   3.803   3.790  11.341 -0.4235 -1.3644 -1.3883
   50FTM     C9 8663   3.895   3.689  11.254  0.0803 -0.3826 -0.8532
   50FTM    C10 8664   4.030   3.746  11.208  1.0762  1.2415 -0.3982
   50FTM    C11 8665   3.505   3.544  11.304 -0.6491 -0.0540 -0.8314
   50FTM    C12 8666   3.450   3.570  11.157 -0.1781  0.9131  0.1948
   51FTM     S1 8667   3.184   3.255  12.431  0.0039  0.6565  0.0027
   51FTM     C1 8668   3.228   3.233  12.605 -0.0945 -0.5550 -0.1129
   51FTM     C2 8669   3.352   3.283  12.628 -0.0257 -0.8941  0.2693
   51FTM     C3 8670   3.419   3.340  12.515  0.1045 -0.2482  0.6657
   51FTM     C4 8671   3.344   3.334  12.402  0.1366  0.6137  0.5844
   51FTM     F1 8672   3.412   3.280  12.753 -0.0767 -1.8095  0.2829
   51FTM     C5 8673   3.132   3.170  12.685  0.3068  0.4149 -0.5343
   51FTM     C6 8674   2.979   3.218  12.710 -1.8719 -0.6203 -0.1492
   51FTM     C7 8675   2.864   3.117  12.702 -0.9337  0.1684 -0.0052
   51FTM     C8 8676   2.828   3.027  12.574 -0.0936  1.1536  0.6896
   51FTM     C9 8677   2.672   3.043  12.566  0.6958  0.8632 -0.6036
   51FTM    C10 8678   2.605   3.022  12.424 -0.2367 -0.4215 -1.1996
   51FTM    C11 8679   2.943   3.356  12.771  0.3013 -1.1060 -0.2646
   51FTM    C12 8680   2.948   3.390  12.922  0.0542  1.1209 -0.5691
   52TPM     C1 8681   3.495   2.890  12.093 -0.2014  0.3122 -0.2279
   52TPM     C2 8682   3.600   2.822  12.039  0.0315  0.4867  0.0014
   52TPM     C3 8683   3.593   2.679  12.057  0.4337  0.5031  0.3329
   52TPM     C4 8684   3.482   2.638  12.125  0.5075  0.3409  0.3562
   52TPM     S1 8685   3.377   2.778  12.172  0.0713  0.1535 -0.0417
   53BDD     C1 8686   3.446   2.249  12.161 -0.4649 -0.1755 -0.0121
   53BDD     C2 8687   3.440   2.298  12.289 -0.3333 -0.2350  0.0177
   53BDD     C3 8688   3.450   2.443  12.295  0.0150 -0.2605  0.1018
   53BDD     C4 8689   3.463   2.502  12.172  0.1438 -0.2198  0.1349
   53BDD     S1 8690   3.464   2.380  12.040 -0.1621 -0.1472  0.0631
   53BDD     C5 8691   3.425   2.214  12.409 -0.5228 -0.2707 -0.0300
   53BDD     C6 8692   3.445   2.518  12.422  0.2073 -0.3240  0.1462
   53BDD     O1 8693   3.454   2.643  12.427  0.5076 -0.3459  0.2187
   53BDD     O2 8694   3.416   2.090  12.404 -0.8231 -0.2488 -0.1025
   53BDD     C7 8695   3.430   2.434  12.543  0.0178 -0.3598  0.0985
   53BDD     C8 8696   3.421   2.289  12.537 -0.3305 -0.3344  0.0144
   53BDD     C9 8697   3.407   2.231  12.660 -0.4593 -0.3749 -0.0187
   53BDD     S2 8698   3.406   2.352  12.791 -0.1535 -0.4477  0.0532
   53BDD    C10 8699   3.424   2.484  12.670  0.1494 -0.4193  0.1283
   53BDD    C11 8700   3.414   2.626  12.731 -1.0005  0.0409  0.8526
   53BDD    C12 8701   3.297   2.668  12.823 -0.1468  1.6236 -0.0059
   53BDD    C13 8702   3.175   2.706  12.739  1.3081 -0.8382 -0.5744
   53BDD    C14 8703   3.033   2.706  12.805 -0.0387 -0.0624 -0.9796
   53BDD    C15 8704   2.930   2.610  12.787  0.2106 -0.0028  0.4563
   53BDD    C16 8705   2.965   2.494  12.686 -0.2855 -0.2265 -0.0730
   53BDD    C17 8706   3.322   2.700  12.976 -0.3841  0.2548  1.4611
   53BDD    C18 8707   3.375   2.580  13.049  0.2086 -0.1527 -0.4958
   53BDD    C19 8708   3.398   2.077  12.686 -0.4955 -1.4520 -0.4871
   53BDD    C20 8709   3.276   2.033  12.779 -0.2149 -1.1169  0.3428
   53BDD    C21 8710   3.129   2.065  12.729  0.1089 -0.1986 -0.5583
   53BDD    C22 8711   3.078   2.011  12.597  0.6932 -0.5618 -0.3046
   53BDD    C23 8712   3.001   2.104  12.510  0.6521  0.2690 -0.1559
   53BDD    C24 8713   2.850   2.106  12.538 -1.1357 -0.9773 -0.3743
   53BDD    C25 8714   3.305   1.889  12.820 -0.4739 -0.3731 -0.2174
   53BDD    C26 8715   3.268   1.772  12.717  0.5136 -0.6822  0.3021
   54TPM     C1 8716   3.439   2.121  12.093  0.1309  0.1987 -0.7271
   54TPM     C2 8717   3.325   2.058  12.053  0.2411 -0.2519 -0.3407
   54TPM     C3 8718   3.349   1.948  11.963  0.4364 -0.8194  0.3792
   54TPM     C4 8719   3.481   1.928  11.934  0.4751 -0.8015  0.5417
   54TPM     S1 8720   3.586   2.047  12.019  0.2662 -0.0608 -0.2077
   55BDTP    C1 8721   3.759   1.430  11.664  0.1534  0.1957  0.0477
   55BDTP    C2 8722   3.620   1.395  11.664  0.1798  0.0900  0.0268
   55BDTP    C3 8723   3.522   1.480  11.712  0.1191 -0.0320  0.1197
   55BDTP    C4 8724   3.561   1.605  11.762  0.0280 -0.0510  0.2389
   55BDTP    C5 8725   3.699   1.640  11.762  0.0017  0.0547  0.2598
   55BDTP    C6 8726   3.798   1.555  11.714  0.0623  0.1767  0.1669
   55BDTP    C7 8727   3.477   1.710  11.817 -0.0468 -0.1686  0.3496
   55BDTP    C8 8728   3.545   1.820  11.857 -0.1271 -0.1564  0.4512
   55BDTP    S1 8729   3.724   1.807  11.832 -0.1191  0.0056  0.4211
   55BDTP    C9 8730   3.843   1.325  11.609  0.2284  0.3133 -0.0630
   55BDTP   C10 8731   3.775   1.215  11.568  0.3087  0.3011 -0.1646
   55BDTP    S2 8732   3.595   1.228  11.594  0.3007  0.1391 -0.1345
   56FTM     S1 8733   3.266   1.473  11.831  0.4321  0.1170 -0.2130
   56FTM     C1 8734   3.132   1.399  11.735 -0.1848  0.6013  0.2597
   56FTM     C2 8735   3.179   1.360  11.614 -0.7396  0.3515  0.1232
   56FTM     C3 8736   3.317   1.385  11.588 -0.7192 -0.2179 -0.3459
   56FTM     C4 8737   3.380   1.444  11.693 -0.1297 -0.4104 -0.5762
   56FTM     F1 8738   3.098   1.300  11.518 -1.2987  0.6237  0.4150
   56FTM     C5 8739   2.993   1.383  11.779 -0.2034  0.9003  0.4243
   56FTM     C6 8740   2.907   1.417  11.912 -0.2277  0.6702  0.6064
   56FTM     C7 8741   2.878   1.304  12.014 -0.0489 -0.8396  0.0810
   56FTM     C8 8742   2.796   1.203  11.940 -0.0749  0.8814  0.6535
   56FTM     C9 8743   2.736   1.090  12.004  0.4149 -0.1530  0.3440
   56FTM    C10 8744   2.731   0.984  11.898 -0.9759 -0.0942 -1.0882
   56FTM    C11 8745   2.955   1.556  11.965  1.1495  0.2929 -1.1929
   56FTM    C12 8746   2.854   1.614  12.079 -1.0674  0.2574  0.7037
   57FTM     S1 8747   4.071   1.582  11.787 -0.2587 -0.1963  0.2682
   57FTM     C1 8748   4.177   1.690  11.691 -0.2547 -0.4773 -0.0481
   57FTM     C2 8749   4.108   1.743  11.587 -0.2329 -0.8318 -0.2471
   57FTM     C3 8750   3.970   1.704  11.576 -0.2183 -0.9048 -0.1677
   57FTM     C4 8751   3.934   1.617  11.675 -0.2294 -0.5961  0.1009
   57FTM     F1 8752   4.164   1.831  11.495 -0.2248 -1.1113 -0.5130
   57FTM     C5 8753   4.322   1.731  11.726  1.4060 -0.3428 -0.7659
   57FTM     C6 8754   4.436   1.622  11.718 -0.0543  0.0058 -0.3436
   57FTM     C7 8755   4.446   1.562  11.583  0.6746  1.1551  0.9879
   57FTM     C8 8756   4.518   1.424  11.537  0.6686  0.0065  0.1781
   57FTM     C9 8757   4.614   1.369  11.630 -0.8997  1.5345 -1.1359
   57FTM    C10 8758   4.670   1.232  11.581  0.0362 -0.0927  1.6326
   57FTM    C11 8759   4.564   1.641  11.810  0.1303  0.3322  1.4851
   57FTM    C12 8760   4.622   1.779  11.782 -0.8275  1.0697 -0.3515
   58TPM     C1 8761   3.838   1.095  11.517  0.5541 -0.3124  1.1533
   58TPM     C2 8762   3.759   0.986  11.499  0.5170 -0.1641  0.3409
   58TPM     C3 8763   3.830   0.869  11.453  0.4042  0.2526 -0.9642
   58TPM     C4 8764   3.964   0.890  11.436  0.3553  0.4221 -1.1470
   58TPM     S1 8765   4.010   1.060  11.477  0.4486  0.0656  0.3265
   59BDD     C1 8766   4.216   0.644  11.583  0.3159  0.1696 -0.1638
   59BDD     C2 8767   4.193   0.602  11.456  0.1320  0.0754 -0.1001
   59BDD     C3 8768   4.095   0.683  11.384 -0.3251 -0.2587  0.1345
   59BDD     C4 8769   4.046   0.786  11.459 -0.4831 -0.4145  0.2464
   59BDD     S1 8770   4.117   0.789  11.623 -0.0702 -0.1537  0.0656
   59BDD     C5 8771   4.259   0.485  11.394  0.3695  0.2893 -0.2525
   59BDD     C6 8772   4.055   0.654  11.245 -0.5888 -0.4112  0.2394
   59BDD     O1 8773   3.972   0.724  11.183 -0.9828 -0.6993  0.4418
   59BDD     O2 8774   4.343   0.415  11.456  0.7637  0.5774 -0.4549
   59BDD     C7 8775   4.122   0.538  11.183 -0.3512 -0.1974  0.0868
   59BDD     C8 8776   4.219   0.457  11.255  0.1059  0.1367 -0.1478
   59BDD     C9 8777   4.269   0.354  11.180  0.2639  0.2925 -0.2596
   59BDD     S2 8778   4.198   0.351  11.016 -0.1490  0.0317 -0.0788
   59BDD    C10 8779   4.099   0.495  11.056 -0.5350 -0.2915  0.1504
   59BDD    C11 8780   4.006   0.533  10.948 -0.3131  0.4707 -0.0587
   59BDD    C12 8781   4.037   0.650  10.842  1.5326  0.3572 -0.3476
   59BDD    C13 8782   4.185   0.686  10.808  0.1704 -1.1531  0.3865
   59BDD    C14 8783   4.286   0.590  10.750  1.4785  0.7565  0.4670
   59BDD    C15 8784   4.419   0.644  10.711  0.5358 -0.2526 -0.2825
   59BDD    C16 8785   4.438   0.783  10.670  0.0139 -0.5389  0.4175
   59BDD    C17 8786   3.913   0.640  10.733 -1.3464  0.7663 -1.0971
   59BDD    C18 8787   3.861   0.768  10.657 -0.5425  1.0497  0.0793
   59BDD    C19 8788   4.360   0.238  11.216 -0.1893 -0.2433 -0.2218
   59BDD    C20 8789   4.304   0.111  11.215 -0.2913  0.0840  0.5673
   59BDD    C21 8790   4.285   0.050  11.356 -0.2452  0.2738  0.1357
   59BDD    C22 8791   4.399   0.029  11.464 -0.9470 -2.3874 -0.2589
   59BDD    C23 8792   4.541  -0.025  11.420 -1.0041 -0.8550  1.0137
   59BDD    C24 8793   4.650   0.088  11.409  0.2086  0.0837  0.9314
   59BDD    C25 8794   4.365   0.028  11.096 -0.2557 -1.4129 -0.4618
   59BDD    C26 8795   4.284  -0.096  11.051  0.7697  0.5776 -1.1675
   60TPM     C1 8796   4.279   0.585  11.704 -0.1302 -0.5577  0.2287
   60TPM     C2 8797   4.403   0.531  11.704 -0.0067 -0.2809  0.6004
   60TPM     C3 8798   4.457   0.509  11.836 -0.1980  0.1798  0.7574
   60TPM     C4 8799   4.373   0.547  11.937 -0.4674  0.2544  0.5053
   60TPM     S1 8800   4.218   0.614  11.871 -0.5006 -0.2554  0.0465
    1BDTP    C1 8801   6.563   9.407   0.287 -0.6536 -0.2704  0.1080
    1BDTP    C2 8802   6.459   9.504   0.302 -0.4094 -0.0119  0.1504
    1BDTP    C3 8803   6.475   9.637   0.265 -0.0974 -0.0508  0.1364
    1BDTP    C4 8804   6.598   9.677   0.211 -0.0218 -0.3591  0.0777
    1BDTP    C5 8805   6.702   9.580   0.196 -0.2660 -0.6170  0.0353
    1BDTP    C6 8806   6.687   9.447   0.233 -0.5780 -0.5783  0.0493
    1BDTP    C7 8807   6.638   9.809   0.166  0.2842 -0.4568  0.0528
    1BDTP    C8 8808   6.765   9.816   0.119  0.2819 -0.7727 -0.0055
    1BDTP    S1 8809   6.852   9.656   0.125 -0.1086 -0.9902 -0.0371
    1BDTP    C9 8810   6.524   9.275   0.332 -0.9598 -0.1719  0.1329
    1BDTP   C10 8811   6.397   9.268   0.379 -0.9573  0.1438  0.1912
    1BDTP    S2 8812   6.310   9.428   0.373 -0.5669  0.3610  0.2228
    2FTM     S1 8813   6.364   9.883   0.347 -0.4047  0.2087  0.0507
    2FTM     C1 8814   6.194   9.911   0.292 -0.1584  0.8845 -0.3944
    2FTM     C2 8815   6.153   9.806   0.216 -0.2803  1.1828 -0.7411
    2FTM     C3 8816   6.248   9.701   0.196 -0.5660  0.9105 -0.6830
    2FTM     C4 8817   6.366   9.726   0.259 -0.6659  0.3865 -0.2788
    2FTM     F1 8818   6.027   9.800   0.159 -0.1404  1.7197 -1.1315
    2FTM     C5 8819   6.119  10.046   0.320 -0.0298 -0.7659 -0.9926
    2FTM     C6 8820   6.170  10.127   0.451  1.3489 -0.0782  1.8104
    2FTM     C7 8821   6.087  10.092   0.566  0.6436  1.4668 -1.2106
    2FTM     C8 8822   6.116   9.973   0.664  1.0723 -0.1714 -0.6982
    2FTM     C9 8823   6.038  10.000   0.796  0.0894 -0.1070  0.5003
    2FTM    C10 8824   6.063   9.910   0.907 -0.1647  0.1141  0.5452
    2FTM    C11 8825   6.316  10.169   0.475  0.5258 -0.5277 -0.8223
    2FTM    C12 8826   6.392  10.248   0.383  0.6413 -1.2336  0.0024
    3FTM     S1 8827   6.876   9.288   0.366  0.5797 -0.1082  0.0586
    3FTM     C1 8828   6.966   9.170   0.265 -0.6111 -0.7306 -0.3220
    3FTM     C2 8829   6.932   9.184   0.134 -1.5879 -1.0068 -0.1098
    3FTM     C3 8830   6.835   9.285   0.105 -1.4728 -0.7579  0.3505
    3FTM     C4 8831   6.794   9.351   0.217 -0.3717 -0.2748  0.4955
    3FTM     F1 8832   6.986   9.105   0.033 -2.6443 -1.5018 -0.3197
    3FTM     C5 8833   7.077   9.081   0.332  0.6643  0.4614 -0.5600
    3FTM     C6 8834   7.216   9.134   0.362  0.4031  1.1710 -0.2900
    3FTM     C7 8835   7.263   9.192   0.502 -0.4103  0.7511  0.5499
    3FTM     C8 8836   7.236   9.136   0.647  1.6078 -0.3820 -1.2013
    3FTM     C9 8837   7.172   9.002   0.646  0.4400  1.1990 -0.6891
    3FTM    C10 8838   7.202   8.902   0.749 -0.2648  1.4124 -0.1968
    3FTM    C11 8839   7.321   9.107   0.266  0.0410  0.7846  1.3919
    3FTM    C12 8840   7.369   8.956   0.240 -1.4772 -0.4462  0.0742
    4TPM     C1 8841   6.337   9.138   0.399 -0.7922  0.4952 -0.0473
    4TPM     C2 8842   6.205   9.106   0.401 -0.7367  0.2759  0.3549
    4TPM     C3 8843   6.177   8.979   0.462 -0.3694  0.3443  0.6785
    4TPM     C4 8844   6.288   8.913   0.506 -0.1447  0.6155  0.5231
    4TPM     S1 8845   6.438   9.008   0.474 -0.3819  0.8076 -0.0484
    5BDD     C1 8846   6.403   8.639   0.770 -0.1469 -0.4283  0.1398
    5BDD     C2 8847   6.278   8.601   0.730 -0.1652 -0.3638  0.1346
    5BDD     C3 8848   6.217   8.692   0.635 -0.1642 -0.2677  0.2267
    5BDD     C4 8849   6.296   8.799   0.604 -0.1451 -0.2605  0.3008
    5BDD     S1 8850   6.453   8.793   0.692 -0.1272 -0.3736  0.2603
    5BDD     C5 8851   6.210   8.478   0.777 -0.1844 -0.3879  0.0448
    5BDD     C6 8852   6.082   8.671   0.578 -0.1822 -0.1869  0.2379
    5BDD     O1 8853   6.030   8.750   0.497 -0.1812 -0.1040  0.3174
    5BDD     O2 8854   6.262   8.399   0.859 -0.1854 -0.4709 -0.0346
    5BDD     C7 8855   6.014   8.548   0.626 -0.2011 -0.2108  0.1481
    5BDD     C8 8856   6.075   8.457   0.720 -0.2022 -0.3068  0.0560
    5BDD     C9 8857   5.995   8.350   0.751 -0.2214 -0.3140 -0.0180
    5BDD     S2 8858   5.839   8.356   0.664 -0.2393 -0.2009  0.0224
    5BDD    C10 8859   5.889   8.510   0.585 -0.2195 -0.1462  0.1430
    5BDD    C11 8860   5.776   8.580   0.516  0.6659 -0.4902 -0.5787
    5BDD    C12 8861   5.746   8.542   0.364  1.2233 -0.6187 -0.4807
    5BDD    C13 8862   5.646   8.626   0.293  0.8101 -0.2744  0.0796
    5BDD    C14 8863   5.498   8.566   0.275 -0.8341 -0.2162 -0.3372
    5BDD    C15 8864   5.376   8.599   0.177 -0.7413 -1.5957  0.3076
    5BDD    C16 8865   5.336   8.744   0.223 -1.3118 -0.3393 -0.8280
    5BDD    C17 8866   5.874   8.531   0.281 -0.1619  0.0641  0.4112
    5BDD    C18 8867   5.968   8.404   0.252  0.3821 -0.7127 -1.1421
    5BDD    C19 8868   6.001   8.226   0.827  0.0444  0.0725 -0.5400
    5BDD    C20 8869   5.885   8.239   0.932 -0.8251 -1.0565  0.2854
    5BDD    C21 8870   5.936   8.223   1.086  0.8014  0.0545 -0.4675
    5BDD    C22 8871   5.839   8.289   1.188  1.3375  0.9326  0.6038
    5BDD    C23 8872   5.859   8.227   1.325 -0.2919  0.3522  0.4112
    5BDD    C24 8873   5.747   8.306   1.393 -0.1107 -0.1758 -0.3364
    5BDD    C25 8874   5.755   8.168   0.885 -0.2465  2.4223 -0.1626
    5BDD    C26 8875   5.716   8.018   0.927  0.4649 -1.0177 -0.2487
    6TPM     C1 8876   6.500   8.581   0.855  0.1859 -0.9262 -0.1720
    6TPM     C2 8877   6.450   8.572   0.982 -0.0165 -2.1842 -0.3194
    6TPM     C3 8878   6.552   8.567   1.083 -0.1845 -1.9333 -0.1383
    6TPM     C4 8879   6.679   8.574   1.034 -0.1104 -0.4841  0.1472
    6TPM     S1 8880   6.680   8.585   0.854  0.1797  0.6849  0.2099
    7BDTP    C1 8881   7.211   8.434   1.334 -0.4197 -0.4876  0.7483
    7BDTP    C2 8882   7.222   8.354   1.216 -0.0448 -0.1869  0.5721
    7BDTP    C3 8883   7.121   8.348   1.120  0.2267 -0.0026  0.2709
    7BDTP    C4 8884   7.005   8.425   1.141  0.1248 -0.1194  0.1369
    7BDTP    C5 8885   6.995   8.505   1.259 -0.2501 -0.4203  0.3131
    7BDTP    C6 8886   7.095   8.511   1.355 -0.5217 -0.6051  0.6142
    7BDTP    C7 8887   6.888   8.434   1.057  0.3574  0.0289 -0.1707
    7BDTP    C8 8888   6.791   8.517   1.104  0.1775 -0.1440 -0.2332
    7BDTP    S1 8889   6.835   8.594   1.263 -0.3115 -0.5190  0.0889
    7BDTP    C9 8890   7.328   8.424   1.418 -0.6522 -0.6361  1.0559
    7BDTP   C10 8891   7.425   8.342   1.371 -0.4724 -0.4632  1.1184
    7BDTP    S2 8892   7.381   8.265   1.212  0.0166 -0.0884  0.7963
    8FTM     S1 8893   7.173   8.309   0.845  0.2962  0.2181 -0.0108
    8FTM     C1 8894   7.160   8.140   0.784 -0.0604  0.2970 -0.1576
    8FTM     C2 8895   7.136   8.055   0.887 -0.0557  0.2351 -0.2069
    8FTM     C3 8896   7.126   8.114   1.017  0.2187  0.1254 -0.1353
    8FTM     C4 8897   7.144   8.249   1.013  0.4310  0.1020 -0.0276
    8FTM     F1 8898   7.121   7.918   0.871 -0.2997  0.2748 -0.3199
    8FTM     C5 8899   7.143   8.099   0.636  0.5050  1.5646  0.1722
    8FTM     C6 8900   7.008   8.116   0.559 -0.8027  0.5948  1.1779
    8FTM     C7 8901   6.875   8.109   0.634  1.2748  0.4074 -1.2774
    8FTM     C8 8902   6.756   8.162   0.570 -0.2262  0.7109  0.7095
    8FTM     C9 8903   6.631   8.132   0.638  0.2000 -0.5086  0.8677
    8FTM    C10 8904   6.503   8.203   0.571 -0.2543 -0.3077  0.1904
    8FTM    C11 8905   7.035   8.047   0.416  0.8817 -1.1393  0.2052
    8FTM    C12 8906   6.915   8.070   0.309 -0.5358 -0.4994 -0.1764
    9FTM     S1 8907   7.191   8.661   1.570  0.3362 -0.3162 -0.1089
    9FTM     C1 8908   7.069   8.717   1.690  0.4131  0.2377 -0.2836
    9FTM     C2 8909   6.945   8.674   1.653  0.2989  0.6223 -0.3508
    9FTM     C3 8910   6.938   8.598   1.532  0.1482  0.5124 -0.2725
    9FTM     C4 8911   7.060   8.581   1.475  0.1468  0.0280 -0.1410
    9FTM     F1 8912   6.831   8.703   1.727  0.3240  1.0970 -0.4872
    9FTM     C5 8913   7.120   8.777   1.821 -0.6454  0.3991  0.2418
    9FTM     C6 8914   7.132   8.933   1.805 -0.3283  0.1661 -0.2107
    9FTM     C7 8915   7.168   9.016   1.939 -0.2016 -0.4377  1.5475
    9FTM     C8 8916   7.154   8.959   2.089  0.1460 -1.6701  0.2235
    9FTM     C9 8917   7.050   8.850   2.138 -0.7427 -0.2662 -0.0215
    9FTM    C10 8918   6.912   8.917   2.134  0.0900 -0.1806  0.7377
    9FTM    C11 8919   7.064   9.028   1.703  0.4326 -0.0498 -1.1491
    9FTM    C12 8920   6.924   9.087   1.738  0.0488  1.0679  0.9101
   10TPM     C1 8921   7.550   8.317   1.425  0.4814  0.1286 -0.4621
   10TPM     C2 8922   7.674   8.373   1.414  0.6660 -0.2427 -0.3210
   10TPM     C3 8923   7.779   8.292   1.469  0.3484 -0.5147 -0.1051
   10TPM     C4 8924   7.736   8.174   1.523 -0.0783 -0.3508 -0.0816
   10TPM     S1 8925   7.557   8.156   1.507 -0.1124  0.1640 -0.3322
   11BDD     C1 8926   7.883   7.852   1.681 -0.4200  0.1129  0.2709
   11BDD     C2 8927   7.969   7.951   1.721 -0.3303  0.1359  0.0291
   11BDD     C3 8928   7.937   8.081   1.666 -0.1220  0.0041 -0.4119
   11BDD     C4 8929   7.828   8.080   1.584 -0.0555 -0.1181 -0.5000
   11BDD     S1 8930   7.757   7.916   1.570 -0.2494 -0.0758 -0.0369
   11BDD     C5 8931   8.083   7.929   1.812 -0.4332  0.2803  0.1946
   11BDD     C6 8932   8.017   8.202   1.696  0.0038  0.0033 -0.7301
   11BDD     O1 8933   7.989   8.315   1.649  0.1838 -0.1106 -1.1104
   11BDD     O2 8934   8.111   7.816   1.860 -0.6132  0.3942  0.5749
   11BDD     C7 8935   8.131   8.180   1.787 -0.0989  0.1476 -0.5646
   11BDD     C8 8936   8.163   8.050   1.843 -0.3076  0.2797 -0.1235
   11BDD     C9 8937   8.272   8.051   1.924 -0.3741  0.4015 -0.0355
   11BDD     S2 8938   8.343   8.215   1.938 -0.1801  0.3593 -0.4987
   11BDD    C10 8939   8.217   8.279   1.828 -0.0093  0.1707 -0.8065
   11BDD    C11 8940   8.234   8.431   1.783  0.0794  1.0249 -1.3442
   11BDD    C12 8941   8.235   8.498   1.922 -0.6445 -0.2200 -1.1367
   11BDD    C13 8942   8.314   8.630   1.901  0.0651  1.2149 -0.4643
   11BDD    C14 8943   8.296   8.746   1.806  1.1531 -1.0646 -2.3005
   11BDD    C15 8944   8.387   8.862   1.835 -0.4385  0.6268 -0.2082
   11BDD    C16 8945   8.542   8.847   1.819  0.5853  0.9386  0.2665
   11BDD    C17 8946   8.093   8.523   1.978  0.1797 -0.4666  0.7012
   11BDD    C18 8947   8.066   8.576   2.122  0.3689  1.3482  0.7477
   11BDD    C19 8948   8.348   7.956   2.017 -1.1285 -0.4998 -0.7178
   11BDD    C20 8949   8.312   7.927   2.162 -0.4303 -0.9552 -0.4939
   11BDD    C21 8950   8.416   7.969   2.269 -0.0653  0.9665 -1.0889
   11BDD    C22 8951   8.514   7.859   2.322  0.1820  0.0734 -0.4696
   11BDD    C23 8952   8.473   7.711   2.321 -1.3544  0.8257  1.3923
   11BDD    C24 8953   8.577   7.655   2.409 -0.0189  0.9021 -0.6295
   11BDD    C25 8954   8.180   7.863   2.201  0.3098 -0.4377  0.0540
   11BDD    C26 8955   8.067   7.947   2.268 -0.4061 -0.9747  0.1518
   12TPM     C1 8956   7.893   7.708   1.670 -0.5041  0.0937 -0.7448
   12TPM     C2 8957   7.861   7.657   1.548  0.3002 -0.1267 -0.8775
   12TPM     C3 8958   7.879   7.515   1.538  0.8415 -0.0778 -0.6689
   12TPM     C4 8959   7.925   7.457   1.653  0.4498  0.1802 -0.3772
   12TPM     S1 8960   7.950   7.580   1.783 -0.6415  0.3829 -0.3430
   13BDTP    C1 8961   8.141   6.864   1.657  0.2208  0.3234  0.1318
   13BDTP    C2 8962   8.225   6.928   1.754  0.3271  0.5109 -0.0818
   13BDTP    C3 8963   8.211   7.061   1.788  0.3159  0.5592 -0.2712
   13BDTP    C4 8964   8.111   7.137   1.724  0.1941  0.4157 -0.2496
   13BDTP    C5 8965   8.027   7.073   1.628  0.0875  0.2278 -0.0360
   13BDTP    C6 8966   8.040   6.939   1.594  0.0990  0.1798  0.1535
   13BDTP    C7 8967   8.078   7.276   1.744  0.1588  0.4314 -0.4217
   13BDTP    C8 8968   7.976   7.321   1.667  0.0328  0.2668 -0.3487
   13BDTP    S1 8969   7.906   7.191   1.560 -0.0592  0.0685 -0.0516
   13BDTP    C9 8970   8.173   6.724   1.638  0.2558  0.3076  0.3040
   13BDTP   C10 8971   8.276   6.680   1.714  0.3822  0.4721  0.2310
   13BDTP    S2 8972   8.346   6.809   1.822  0.4742  0.6705 -0.0662
   14FTM     S1 8973   8.477   7.152   1.846  0.3290 -0.7558  0.1956
   14FTM     C1 8974   8.499   7.247   1.998  0.5734 -0.7715  0.1710
   14FTM     C2 8975   8.382   7.249   2.068  0.5653 -0.4183  0.1498
   14FTM     C3 8976   8.272   7.179   2.010  0.3738 -0.1206  0.1513
   14FTM     C4 8977   8.304   7.121   1.891  0.2298 -0.2506  0.1745
   14FTM     F1 8978   8.369   7.315   2.190  0.7315 -0.3433  0.1276
   14FTM     C5 8979   8.628   7.328   2.022  1.2210  1.2231  1.1662
   14FTM     C6 8980   8.679   7.400   1.908  0.1751 -0.2740 -0.3665
   14FTM     C7 8981   8.829   7.363   1.891 -0.1082 -0.4276  0.6300
   14FTM     C8 8982   8.807   7.338   1.751  1.1688  0.4284 -0.5275
   14FTM     C9 8983   8.905   7.433   1.683 -1.1016  0.2103  0.1852
   14FTM    C10 8984   8.908   7.470   1.528  1.2453 -0.3353  0.0495
   14FTM    C11 8985   8.669   7.553   1.939 -0.4355  0.5023  0.1591
   14FTM    C12 8986   8.533   7.613   1.935  1.0787 -0.5028  0.1948
   15FTM     S1 8987   7.926   6.723   1.424  0.2246 -0.0897 -0.3431
   15FTM     C1 8988   7.944   6.757   1.248  0.3389 -0.4375 -0.4004
   15FTM     C2 8989   7.996   6.882   1.230  0.5364 -0.5478 -0.6098
   15FTM     C3 8990   8.024   6.956   1.349  0.6094 -0.3731 -0.7355
   15FTM     C4 8991   7.993   6.887   1.462  0.4627 -0.1206 -0.6185
   15FTM     F1 8992   8.021   6.936   1.104  0.6630 -0.8138 -0.7002
   15FTM     C5 8993   7.899   6.662   1.150 -0.8388 -0.0641 -0.3104
   15FTM     C6 8994   7.942   6.649   0.999 -0.1485 -0.2288 -1.6929
   15FTM     C7 8995   8.102   6.646   0.970  0.6073  0.2059 -0.6189
   15FTM     C8 8996   8.192   6.548   1.056 -0.7443  0.4109  0.4755
   15FTM     C9 8997   8.142   6.399   1.095 -0.0674 -2.2488 -1.4411
   15FTM    C10 8998   8.222   6.330   1.213 -0.2743  0.1923  1.0956
   15FTM    C11 8999   7.836   6.573   0.908  0.9278 -0.7450  0.9173
   15FTM    C12 9000   7.795   6.440   0.947  0.7437  0.7585 -0.9725
   16TPM     C1 9001   8.363   6.557   1.682  0.1968 -0.0607 -0.4090
   16TPM     C2 9002   8.499   6.561   1.681  0.1931  0.0168 -0.6707
   16TPM     C3 9003   8.560   6.443   1.627  0.1624 -0.1315 -0.3864
   16TPM     C4 9004   8.470   6.348   1.586  0.1423 -0.3222  0.0923
   16TPM     S1 9005   8.300   6.402   1.614  0.1616 -0.3294  0.2219
   17BDD     C1 9006   8.717   6.049   1.508  0.0535 -0.0125  0.1050
   17BDD     C2 9007   8.592   5.997   1.490  0.0424  0.0407  0.0284
   17BDD     C3 9008   8.486   6.094   1.505  0.0691  0.0631  0.0663
   17BDD     C4 9009   8.531   6.220   1.536  0.0998  0.0267  0.1714
   17BDD     S1 9010   8.710   6.224   1.546  0.0978 -0.0380  0.2300
   17BDD     C5 9011   8.565   5.855   1.457  0.0072  0.0727 -0.0826
   17BDD     C6 9012   8.343   6.060   1.490  0.0627  0.1197 -0.0030
   17BDD     O1 9013   8.251   6.144   1.504  0.0856  0.1390  0.0297
   17BDD     O2 9014   8.657   5.771   1.443 -0.0157  0.0533 -0.1153
   17BDD     C7 9015   8.316   5.918   1.457  0.0277  0.1518 -0.1139
   17BDD     C8 9016   8.422   5.821   1.442  0.0010  0.1292 -0.1518
   17BDD     C9 9017   8.376   5.695   1.411 -0.0300  0.1655 -0.2569
   17BDD     S2 9018   8.197   5.691   1.401 -0.0281  0.2301 -0.3155
   17BDD    C10 9019   8.191   5.866   1.439  0.0165  0.2048 -0.1906
   17BDD    C11 9020   8.049   5.925   1.454  0.2325  0.1855 -1.1252
   17BDD    C12 9021   7.961   5.860   1.564  0.4732 -0.0684  0.4719
   17BDD    C13 9022   7.878   5.994   1.590 -0.1449 -0.5188 -0.2554
   17BDD    C14 9023   7.723   5.973   1.630 -1.5444 -0.9709 -0.4626
   17BDD    C15 9024   7.617   6.051   1.559  0.0541  0.2042  0.1830
   17BDD    C16 9025   7.638   6.205   1.520  0.3707  0.6761 -0.5304
   17BDD    C17 9026   8.029   5.789   1.686  1.4326 -0.1503  0.9702
   17BDD    C18 9027   8.114   5.885   1.783  0.3082  0.6484  1.4809
   17BDD    C19 9028   8.451   5.568   1.395  0.0323  0.2568 -0.0038
   17BDD    C20 9029   8.452   5.463   1.517 -0.4542 -0.5605  0.2567
   17BDD    C21 9030   8.533   5.333   1.478 -0.1503  0.6618 -0.3201
   17BDD    C22 9031   8.492   5.273   1.346  0.0035  0.4795  0.0300
   17BDD    C23 9032   8.347   5.195   1.342  0.4612  0.1159 -0.8124
   17BDD    C24 9033   8.263   5.227   1.224  0.2621 -0.7583  0.5388
   17BDD    C25 9034   8.475   5.512   1.661 -0.4923 -0.8228 -0.7330
   17BDD    C26 9035   8.459   5.413   1.779  1.3560  0.2064 -1.1565
   18TPM     C1 9036   8.850   6.010   1.494 -0.4132  0.4560  0.2733
   18TPM     C2 9037   8.940   6.073   1.412 -0.7393  0.6115  0.0323
   18TPM     C3 9038   9.068   6.008   1.407 -0.6273  0.8558 -0.2822
   18TPM     C4 9039   9.077   5.897   1.485 -0.2157  0.8864 -0.2810
   18TPM     S1 9040   8.923   5.864   1.572  0.0646  0.6073  0.1206
   19BDTP    C1 9041   9.634   5.647   1.622 -0.3767  0.3412  0.0142
   19BDTP    C2 9042   9.555   5.530   1.601 -0.2170  0.3023 -0.3845
   19BDTP    C3 9043   9.421   5.535   1.568 -0.1569  0.2325 -0.6417
   19BDTP    C4 9044   9.361   5.661   1.554 -0.2592  0.1996 -0.4996
   19BDTP    C5 9045   9.439   5.778   1.575 -0.4189  0.2385 -0.1010
   19BDTP    C6 9046   9.574   5.773   1.609 -0.4791  0.3084  0.1562
   19BDTP    C7 9047   9.223   5.692   1.520 -0.2235  0.1281 -0.7106
   19BDTP    C8 9048   9.195   5.824   1.515 -0.3479  0.1117 -0.4924
   19BDTP    S1 9049   9.339   5.929   1.552 -0.5267  0.1844  0.0110
   19BDTP    C9 9050   9.771   5.616   1.656 -0.4122  0.4127  0.2251
   19BDTP   C10 9051   9.800   5.484   1.661 -0.2882  0.4293  0.0069
   19BDTP    S2 9052   9.656   5.379   1.624 -0.1096  0.3565 -0.4965
   20FTM     S1 9053   9.168   5.362   1.587  0.0845  0.0673  0.6911
   20FTM     C1 9054   9.192   5.200   1.512 -0.2824  0.0316  0.6463
   20FTM     C2 9055   9.321   5.187   1.470 -0.3848 -0.1379  0.3786
   20FTM     C3 9056   9.407   5.299   1.493 -0.1891 -0.2480  0.1964
   20FTM     C4 9057   9.341   5.402   1.555  0.0721 -0.1596  0.3290
   20FTM     F1 9058   9.369   5.072   1.408 -0.6618 -0.2036  0.2826
   20FTM     C5 9059   9.093   5.088   1.522  0.3387 -0.7477  0.7100
   20FTM     C6 9060   9.018   5.026   1.399  0.1723  1.2151  1.1107
   20FTM     C7 9061   8.919   4.905   1.428 -1.2563 -0.6385 -0.6479
   20FTM     C8 9062   8.869   4.869   1.559 -0.8866 -1.3995 -0.6173
   20FTM     C9 9063   8.751   4.960   1.612  0.8132  0.1555 -0.7285
   20FTM    C10 9064   8.742   4.962   1.767  0.3865 -0.4416  0.5193
   20FTM    C11 9065   8.949   5.100   1.287  0.1421  0.8655 -0.6837
   20FTM    C12 9066   8.932   5.245   1.283  1.0056 -0.5391 -0.8822
   21FTM     S1 9067   9.578   5.986   1.788  0.4470  0.2013  0.2469
   21FTM     C1 9068   9.726   6.088   1.791  0.8460 -0.3649 -0.0074
   21FTM     C2 9069   9.809   6.051   1.689  0.4814 -0.6095 -0.2210
   21FTM     C3 9070   9.763   5.944   1.606 -0.1163 -0.3774 -0.2005
   21FTM     C4 9071   9.641   5.897   1.645 -0.2117  0.0593  0.0367
   21FTM     F1 9072   9.931   6.112   1.666  0.6664 -1.0582 -0.4478
   21FTM     C5 9073   9.742   6.216   1.880 -0.8230  1.1962  0.1552
   21FTM     C6 9074   9.692   6.357   1.878  1.5489 -0.6636  0.0326
   21FTM     C7 9075   9.544   6.364   1.907 -0.7962 -0.4229 -0.6336
   21FTM     C8 9076   9.540   6.464   2.035 -0.0115  0.4969 -0.0622
   21FTM     C9 9077   9.591   6.391   2.172  0.8848 -0.0653  1.0908
   21FTM    C10 9078   9.478   6.300   2.211 -1.2680  1.0293 -1.7546
   21FTM    C11 9079   9.720   6.407   1.745 -0.8550 -2.0813  0.2744
   21FTM    C12 9080   9.678   6.574   1.720 -0.5204  0.1884 -0.2341
   22TPM     C1 9081   9.920   5.427   1.692 -0.0786  0.6718 -0.2820
   22TPM     C2 9082   9.917   5.310   1.763 -0.8881  0.3810 -0.7627
   22TPM     C3 9083  10.044   5.241   1.766 -1.1194 -0.0319 -0.2621
   22TPM     C4 9084  10.143   5.305   1.698 -0.4861 -0.0559  0.6003
   22TPM     S1 9085  10.084   5.458   1.623  0.4587  0.4451  0.8490
   23BDD     C1 9086  10.504   5.251   1.856  0.2618  0.1481  0.2745
   23BDD     C2 9087  10.512   5.203   1.728  0.0618 -0.0122  0.3229
   23BDD     C3 9088  10.386   5.212   1.655 -0.0982 -0.2617  0.5627
   23BDD     C4 9089  10.285   5.268   1.729 -0.0182 -0.2880  0.6937
   23BDD     S1 9090  10.340   5.312   1.894  0.2637 -0.0023  0.5258
   23BDD     C5 9091  10.634   5.146   1.668  0.0105  0.0581  0.1505
   23BDD     C6 9092  10.371   5.166   1.516 -0.3252 -0.4649  0.6532
   23BDD     O1 9093  10.263   5.174   1.453 -0.4632 -0.6800  0.8600
   23BDD     O2 9094  10.742   5.138   1.730  0.1485  0.2731 -0.0563
   23BDD     C7 9095  10.493   5.109   1.456 -0.3765 -0.3947  0.4809
   23BDD     C8 9096  10.619   5.100   1.528 -0.2162 -0.1451  0.2410
   23BDD     C9 9097  10.720   5.044   1.455 -0.2964 -0.1189  0.1101
   23BDD     S2 9098  10.665   5.000   1.290 -0.5782 -0.4046  0.2780
   23BDD    C10 9099  10.501   5.061   1.328 -0.5763 -0.5549  0.5292
   23BDD    C11 9100  10.416   5.025   1.224 -0.3609  0.0041 -0.4069
   23BDD    C12 9101  10.299   4.928   1.265 -0.8934  0.4049 -0.5733
   23BDD    C13 9102  10.326   4.772   1.288  0.5444 -0.3362 -0.5434
   23BDD    C14 9103  10.374   4.698   1.166 -0.1548  0.7552  0.6871
   23BDD    C15 9104  10.300   4.561   1.135 -0.1588  0.6394 -0.3481
   23BDD    C16 9105  10.304   4.449   1.244 -1.2698 -0.2354  0.2484
   23BDD    C17 9106  10.181   4.978   1.184 -1.2320 -0.4960  1.2049
   23BDD    C18 9107  10.044   4.993   1.236 -1.0502 -1.1702  0.2166
   23BDD    C19 9108  10.867   4.996   1.477 -0.2066  0.9503  0.3484
   23BDD    C20 9109  10.896   4.842   1.465  0.6310  0.1041  0.4050
   23BDD    C21 9110  10.921   4.792   1.317 -0.5944  0.7752 -1.1679
   23BDD    C22 9111  11.018   4.666   1.296  0.8143 -0.7355  0.2435
   23BDD    C23 9112  11.164   4.689   1.336 -0.5324 -0.4704  0.2422
   23BDD    C24 9113  11.250   4.571   1.305 -0.0492  0.6717 -0.6041
   23BDD    C25 9114  10.869   4.731   1.570 -0.5239  0.7813 -1.2208
   23BDD    C26 9115  10.731   4.686   1.627 -0.7889 -1.5984  0.2652
   24TPM     C1 9116  10.593   5.240   1.967 -0.9443 -0.0834  0.2206
   24TPM     C2 9117  10.691   5.333   1.981 -1.4703  0.5593 -0.2955
   24TPM     C3 9118  10.746   5.341   2.114 -0.8817  0.9716 -0.5535
   24TPM     C4 9119  10.690   5.253   2.201  0.0922  0.6427 -0.2341
   24TPM     S1 9120  10.563   5.153   2.122  0.3445 -0.2194  0.4224
   25BDTP    C1 9121  10.991   5.079   2.726 -0.1614 -0.4681 -0.5364
   25BDTP    C2 9122  10.869   5.007   2.738 -0.3102 -0.1864 -0.3372
   25BDTP    C3 9123  10.766   5.018   2.646 -0.4270  0.0297 -0.1842
   25BDTP    C4 9124  10.784   5.104   2.536 -0.3960 -0.0346 -0.2294
   25BDTP    C5 9125  10.906   5.176   2.524 -0.2470 -0.3164 -0.4287
   25BDTP    C6 9126  11.009   5.165   2.616 -0.1304 -0.5325 -0.5816
   25BDTP    C7 9127  10.692   5.131   2.428 -0.4985  0.1537 -0.0961
   25BDTP    C8 9128  10.738   5.219   2.336 -0.4346  0.0285 -0.1844
   25BDTP    S1 9129  10.905   5.280   2.374 -0.2356 -0.3455 -0.4489
   25BDTP    C9 9130  11.083   5.052   2.835 -0.0587 -0.6565 -0.6698
   25BDTP   C10 9131  11.037   4.964   2.927 -0.1225 -0.5314 -0.5814
   25BDTP    S2 9132  10.869   4.903   2.889 -0.3218 -0.1573 -0.3169
   26FTM     S1 9133  10.546   4.890   2.783  0.4507 -0.1462 -0.6037
   26FTM     C1 9134  10.459   4.763   2.689  0.5789 -0.2445 -0.5900
   26FTM     C2 9135  10.517   4.748   2.567  0.9596 -0.6151 -0.3678
   26FTM     C3 9136  10.630   4.832   2.540  1.1699 -0.8403 -0.1989
   26FTM     C4 9137  10.659   4.914   2.645  0.9430 -0.6349 -0.2948
   26FTM     F1 9138  10.472   4.657   2.473  1.1404 -0.7730 -0.3043
   26FTM     C5 9139  10.359   4.690   2.766  0.0840  0.1331  0.4497
   26FTM     C6 9140  10.227   4.769   2.777  0.1016 -1.5085  0.7728
   26FTM     C7 9141  10.217   4.862   2.892 -0.0663  0.1527 -0.0989
   26FTM     C8 9142  10.265   4.810   3.024  0.3264  0.0948 -0.9797
   26FTM     C9 9143  10.167   4.691   3.082 -0.2152 -0.8228 -0.4570
   26FTM    C10 9144  10.262   4.567   3.086  0.1040  0.3317 -0.0763
   26FTM    C11 9145  10.168   4.858   2.658 -0.2805 -1.8369  0.1833
   26FTM    C12 9146  10.045   4.959   2.646 -0.5693 -0.9354 -0.9796
   27FTM     S1 9147  11.232   5.185   2.446 -0.1487  0.0253 -0.1997
   27FTM     C1 9148  11.336   5.331   2.462  0.1569 -0.1523 -0.5522
   27FTM     C2 9149  11.297   5.405   2.569  0.0219  0.4201 -0.9816
   27FTM     C3 9150  11.187   5.353   2.644 -0.3185  1.0173 -1.0609
   27FTM     C4 9151  11.139   5.237   2.593 -0.4492  0.8982 -0.6796
   27FTM     F1 9152  11.360   5.523   2.606  0.1996  0.4373 -1.3285
   27FTM     C5 9153  11.436   5.347   2.353 -0.8796 -0.5709 -1.0983
   27FTM     C6 9154  11.384   5.354   2.196 -0.2682 -0.4648 -1.1227
   27FTM     C7 9155  11.235   5.400   2.182 -0.0554 -0.3380 -1.1430
   27FTM     C8 9156  11.191   5.446   2.047 -0.1146 -0.9527  0.6458
   27FTM     C9 9157  11.059   5.393   1.994 -0.3327  0.2721 -0.3910
   27FTM    C10 9158  11.041   5.373   1.840  1.3808  0.5208  0.5893
   27FTM    C11 9159  11.403   5.235   2.094 -0.4479 -0.1188 -1.0359
   27FTM    C12 9160  11.528   5.157   2.126 -0.5580 -1.0335 -1.2237
   28TPM     C1 9161  11.133   4.899   3.011  0.2732  0.2410 -0.3640
   28TPM     C2 9162  11.140   4.919   3.146  0.4520  0.5703 -0.4203
   28TPM     C3 9163  11.214   4.817   3.216  0.4182  0.6601 -0.2531
   28TPM     C4 9164  11.264   4.720   3.135  0.2134  0.3995 -0.0695
   28TPM     S1 9165  11.220   4.749   2.962  0.0466  0.0172 -0.0934
   29BDD     C1 9166  11.357   4.348   3.223 -0.2945 -0.3053  0.4262
   29BDD     C2 9167  11.428   4.428   3.309 -0.2527 -0.2662  0.3556
   29BDD     C3 9168  11.403   4.569   3.290 -0.0017 -0.2571  0.0730
   29BDD     C4 9169  11.314   4.596   3.191  0.1440 -0.2894 -0.0678
   29BDD     S1 9170  11.254   4.446   3.113 -0.0229 -0.3333  0.1436
   29BDD     C5 9171  11.522   4.376   3.411 -0.4418 -0.2358  0.5455
   29BDD     C6 9172  11.470   4.673   3.372  0.0842 -0.2170 -0.0470
   29BDD     O1 9173  11.448   4.796   3.356  0.3002 -0.2092 -0.2906
   29BDD     O2 9174  11.543   4.253   3.427 -0.6580 -0.2437  0.7892
   29BDD     C7 9175  11.563   4.621   3.474 -0.1049 -0.1867  0.1429
   29BDD     C8 9176  11.588   4.480   3.493 -0.3557 -0.1956  0.4255
   29BDD     C9 9177  11.678   4.453   3.592 -0.5016 -0.1634  0.5663
   29BDD     S2 9178  11.737   4.603   3.670 -0.3348 -0.1196  0.3548
   29BDD    C10 9179  11.634   4.701   3.560 -0.0632 -0.1477  0.0724
   29BDD    C11 9180  11.604   4.845   3.609 -0.9067 -0.7426 -0.6232
   29BDD    C12 9181  11.707   4.964   3.577 -0.9416  0.8724  0.6776
   29BDD    C13 9182  11.740   4.984   3.428  1.0053 -1.0203 -0.4878
   29BDD    C14 9183  11.635   5.051   3.343  0.3389  0.7347  0.0845
   29BDD    C15 9184  11.705   5.096   3.211  0.1567 -1.4101 -0.9867
   29BDD    C16 9185  11.662   4.999   3.103  0.1648 -1.4208 -0.1647
   29BDD    C17 9186  11.731   5.094   3.664  0.0572  0.3317 -0.6423
   29BDD    C18 9187  11.761   5.055   3.818  1.1831  0.1986  0.4996
   29BDD    C19 9188  11.731   4.306   3.638  0.2232  0.4582 -0.8780
   29BDD    C20 9189  11.690   4.251   3.783  0.4975  0.3341  0.3451
   29BDD    C21 9190  11.778   4.345   3.873  0.8159  1.1871  0.1766
   29BDD    C22 9191  11.753   4.346   4.014  0.0142  0.6758 -0.3412
   29BDD    C23 9192  11.616   4.297   4.069 -0.0225 -0.3919 -1.1289
   29BDD    C24 9193  11.527   4.419   4.089  0.6251 -0.6142  0.4342
   29BDD    C25 9194  11.718   4.098   3.770 -0.2597 -0.5511  1.3857
   29BDD    C26 9195  11.682   4.010   3.880  0.0263  0.1107  0.0438
   30TPM     C1 9196  11.348   4.204   3.204  0.6567  0.5751  0.7048
   30TPM     C2 9197  11.397   4.148   3.089  0.7467  1.3441  0.3591
   30TPM     C3 9198  11.383   4.005   3.083  0.3989  1.4051 -0.7899
   30TPM     C4 9199  11.323   3.951   3.193  0.0439  0.6825 -1.3203
   30TPM     S1 9200  11.279   4.078   3.314  0.1217 -0.1372 -0.4027
   31BDTP    C1 9201  11.107   3.379   3.342  0.1061  0.2395  0.6740
   31BDTP    C2 9202  11.199   3.352   3.237  0.1011  0.1690  0.6876
   31BDTP    C3 9203  11.270   3.452   3.171  0.1540  0.1191  0.6677
   31BDTP    C4 9204  11.248   3.585   3.211  0.2146  0.1395  0.6328
   31BDTP    C5 9205  11.156   3.612   3.316  0.2193  0.2099  0.6191
   31BDTP    C6 9206  11.085   3.512   3.382  0.1669  0.2598  0.6390
   31BDTP    C7 9207  11.309   3.705   3.158  0.2760  0.0970  0.6072
   31BDTP    C8 9208  11.268   3.820   3.217  0.3264  0.1318  0.5754
   31BDTP    S1 9209  11.145   3.791   3.349  0.3028  0.2231  0.5734
   31BDTP    C9 9210  11.046   3.259   3.395  0.0446  0.2818  0.6995
   31BDTP   C10 9211  11.087   3.144   3.336 -0.0057  0.2471  0.7313
   31BDTP    S2 9212  11.210   3.172   3.204  0.0180  0.1558  0.7333
   32FTM     S1 9213  11.489   3.286   3.081  0.0556  0.1905 -0.3994
   32FTM     C1 9214  11.556   3.324   2.918  0.2106  0.0033 -0.3802
   32FTM     C2 9215  11.491   3.431   2.865  0.3619  0.0358 -0.5018
   32FTM     C3 9216  11.388   3.489   2.946  0.3665  0.2040 -0.6145
   32FTM     C4 9217  11.373   3.423   3.065  0.2137  0.3037 -0.5781
   32FTM     F1 9218  11.521   3.484   2.741  0.5053 -0.0850 -0.5183
   32FTM     C5 9219  11.683   3.243   2.869 -0.8332  0.7376 -0.3346
   32FTM     C6 9220  11.689   3.092   2.880 -0.6926 -0.1468  0.7412
   32FTM     C7 9221  11.656   3.015   2.751  0.7859 -0.0426 -0.1123
   32FTM     C8 9222  11.498   2.981   2.741 -1.2051 -0.1591 -0.3623
   32FTM     C9 9223  11.492   2.841   2.672  0.2596 -0.4211 -0.1698
   32FTM    C10 9224  11.464   2.873   2.517 -0.4656 -0.7134 -0.2014
   32FTM    C11 9225  11.802   3.031   2.968  0.0829  0.6181  0.6690
   32FTM    C12 9226  11.800   3.080   3.115 -0.8285 -0.4265  0.3463
   33FTM     S1 9227  10.893   3.505   3.617  0.5104  0.2897  0.0003
   33FTM     C1 9228  10.746   3.607   3.593  0.1183 -0.3319 -0.2943
   33FTM     C2 9229  10.750   3.665   3.470 -0.0112 -0.5202 -0.3881
   33FTM     C3 9230  10.864   3.634   3.389  0.1819 -0.2004 -0.2401
   33FTM     C4 9231  10.951   3.550   3.452  0.4684  0.2475 -0.0261
   33FTM     F1 9232  10.650   3.749   3.424 -0.3123 -0.9934 -0.6136
   33FTM     C5 9233  10.637   3.589   3.683 -0.3626  0.6381 -1.2003
   33FTM     C6 9234  10.650   3.620   3.838  0.0539  0.5561 -0.5721
   33FTM     C7 9235  10.660   3.746   3.926  1.1931  1.2232  0.3584
   33FTM     C8 9236  10.636   3.853   3.828  0.6441  0.5825  0.2399
   33FTM     C9 9237  10.754   3.941   3.815 -0.1929 -0.3019 -0.2645
   33FTM    C10 9238  10.713   4.045   3.703  0.2704 -0.1961  0.6858
   33FTM    C11 9239  10.634   3.498   3.919 -0.4831  0.2083  0.6517
   33FTM    C12 9240  10.489   3.484   3.963 -0.1799  0.6907 -1.0181
   34TPM     C1 9241  11.055   3.004   3.363 -1.4443 -0.5130  0.5668
   34TPM     C2 9242  11.138   2.938   3.448 -1.6441 -0.0371  1.1401
   34TPM     C3 9243  11.147   2.797   3.424 -0.1903  0.0853  0.7613
   34TPM     C4 9244  11.070   2.754   3.320  1.1179 -0.2973 -0.1010
   34TPM     S1 9245  10.980   2.890   3.244  0.6116 -0.8460 -0.5044
   35BDD     C1 9246  11.055   2.361   3.309 -0.5315 -0.1504  0.1630
   35BDD     C2 9247  10.936   2.401   3.364 -0.4730 -0.1392  0.2811
   35BDD     C3 9248  10.922   2.545   3.373 -0.1953 -0.1416  0.8519
   35BDD     C4 9249  11.030   2.613   3.324 -0.0461 -0.1546  1.1608
   35BDD     S1 9250  11.157   2.502   3.264 -0.2427 -0.1647  0.7583
   35BDD     C5 9251  10.831   2.308   3.410 -0.6704 -0.1258 -0.1267
   35BDD     C6 9252  10.802   2.610   3.429 -0.0882 -0.1310  1.0701
   35BDD     O1 9253  10.790   2.735   3.437  0.1514 -0.1332  1.5623
   35BDD     O2 9254  10.843   2.183   3.403 -0.9100 -0.1237 -0.6188
   35BDD     C7 9255  10.697   2.517   3.476 -0.2854 -0.1177  0.6626
   35BDD     C8 9256  10.711   2.373   3.467 -0.5629 -0.1153  0.0917
   35BDD     C9 9257  10.603   2.305   3.515 -0.7122 -0.1022 -0.2171
   35BDD     S2 9258  10.476   2.416   3.576 -0.5154 -0.0922  0.1853
   35BDD    C10 9259  10.578   2.557   3.531 -0.2267 -0.1065  0.7806
   35BDD    C11 9260  10.533   2.677   3.608 -0.0500  0.2402  0.4242
   35BDD    C12 9261  10.415   2.746   3.536 -0.4370 -0.0161  1.2094
   35BDD    C13 9262  10.267   2.725   3.573  0.3713  0.3355 -0.1140
   35BDD    C14 9263  10.200   2.597   3.541  0.3525  1.2932 -0.1429
   35BDD    C15 9264  10.147   2.599   3.401 -0.3330  0.6848 -0.2678
   35BDD    C16 9265   9.992   2.603   3.382  0.4366 -0.2253 -0.2650
   35BDD    C17 9266  10.448   2.804   3.390 -0.0017  2.0232  0.7821
   35BDD    C18 9267  10.388   2.950   3.378 -0.7220  0.3402 -0.2034
   35BDD    C19 9268  10.583   2.164   3.547  0.2091  0.3542 -0.3378
   35BDD    C20 9269  10.509   2.128   3.681  1.4391  0.1008  0.0496
   35BDD    C21 9270  10.401   2.017   3.688 -1.7704 -1.6234 -0.3856
   35BDD    C22 9271  10.355   1.973   3.545 -0.3524 -0.0007  0.0968
   35BDD    C23 9272  10.264   2.065   3.476  0.4040 -0.7817 -0.8335
   35BDD    C24 9273  10.114   2.026   3.488 -0.1694 -0.1309  0.2392
   35BDD    C25 9274  10.599   2.141   3.814 -0.2790  0.5025  1.6456
   35BDD    C26 9275  10.727   2.048   3.824 -0.5714 -0.6595  0.8334
   36TPM     C1 9276  11.135   2.242   3.330  0.0620 -0.4446 -1.4652
   36TPM     C2 9277  11.107   2.117   3.281  1.0581 -0.5105 -1.9138
   36TPM     C3 9278  11.220   2.028   3.284  1.5528  0.1040 -1.3868
   36TPM     C4 9279  11.333   2.083   3.335  0.9340  0.6382 -0.5363
   36TPM     S1 9280  11.307   2.255   3.384 -0.3311  0.4050 -0.3336
   37BDTP    C1 9281  11.876   1.782   3.405  0.1177 -0.0033  0.0909
   37BDTP    C2 9282  11.839   1.811   3.539  0.3724  0.2615  0.1041
   37BDTP    C3 9283  11.723   1.879   3.573  0.4314  0.3205  0.1909
   37BDTP    C4 9284  11.638   1.921   3.468  0.2301  0.1086  0.2683
   37BDTP    C5 9285  11.675   1.892   3.334 -0.0245 -0.1563  0.2549
   37BDTP    C6 9286  11.791   1.823   3.300 -0.0835 -0.2152  0.1682
   37BDTP    C7 9287  11.513   1.993   3.478  0.2445  0.1208  0.3648
   37BDTP    C8 9288  11.454   2.018   3.359  0.0160 -0.1190  0.4238
   37BDTP    S1 9289  11.549   1.955   3.217 -0.2497 -0.3940  0.3654
   37BDTP    C9 9290  12.001   1.710   3.395  0.1034 -0.0155 -0.0057
   37BDTP   C10 9291  12.060   1.684   3.514  0.3319  0.2242 -0.0646
   37BDTP    S2 9292  11.965   1.747   3.656  0.5975  0.4993 -0.0063
   38FTM     S1 9293  11.631   1.780   3.818  0.3249  0.3047 -0.1484
   38FTM     C1 9294  11.612   1.896   3.954 -0.6994  0.1724 -0.1667
   38FTM     C2 9295  11.650   2.021   3.915 -0.9627  0.3293  0.0697
   38FTM     C3 9296  11.695   2.033   3.780 -0.3977  0.5564  0.2745
   38FTM     C4 9297  11.692   1.914   3.713  0.3218  0.5741  0.1922
   38FTM     F1 9298  11.646   2.131   4.000 -1.7311  0.2764  0.1146
   38FTM     C5 9299  11.543   1.851   4.088  0.5429 -0.7511  0.9028
   38FTM     C6 9300  11.610   1.757   4.186 -0.6315  0.5103 -0.3422
   38FTM     C7 9301  11.693   1.632   4.152  1.3403  0.3755  0.9448
   38FTM     C8 9302  11.835   1.657   4.144 -0.8123  0.1095 -1.0699
   38FTM     C9 9303  11.900   1.726   4.267  1.4999  0.1866  0.1279
   38FTM    C10 9304  11.961   1.859   4.237  0.6187  0.6751  0.0235
   38FTM    C11 9305  11.519   1.719   4.306 -0.0698 -0.5319  1.0440
   38FTM    C12 9306  11.461   1.840   4.376 -0.3167 -0.6190 -0.5756
   39FTM     S1 9307  11.874   1.981   3.064  0.0868  0.3668  0.4103
   39FTM     C1 9308  11.817   1.910   2.908  0.4672  0.7847  0.0757
   39FTM     C2 9309  11.768   1.785   2.929  0.4892  0.6928 -0.3951
   39FTM     C3 9310  11.771   1.738   3.065  0.2181  0.3012 -0.5214
   39FTM     C4 9311  11.825   1.830   3.150 -0.0192  0.0863 -0.1345
   39FTM     F1 9312  11.717   1.706   2.827  0.7562  0.9577 -0.7399
   39FTM     C5 9313  11.804   1.996   2.781  0.5849  1.5816  0.1856
   39FTM     C6 9314  11.928   2.040   2.704  1.5678  0.4208  1.0398
   39FTM     C7 9315  11.909   2.076   2.555  1.2755 -0.6886  0.3841
   39FTM     C8 9316  11.833   1.974   2.455 -0.2736  0.3600 -0.2064
   39FTM     C9 9317  11.803   2.062   2.333  0.0097  1.4279 -0.6473
   39FTM    C10 9318  11.743   1.981   2.217  0.9661 -0.4198 -0.5278
   39FTM    C11 9319  12.030   2.121   2.759 -0.3103  0.0364 -0.0376
   39FTM    C12 9320  11.990   2.269   2.776  0.1679  0.3496 -0.5255
   40TPM     C1 9321  12.183   1.608   3.531 -0.2400  0.0429 -0.8014
   40TPM     C2 9322  12.241   1.615   3.655 -0.7562 -0.0406 -0.5476
   40TPM     C3 9323  12.378   1.570   3.657 -0.7902 -0.1352  0.0191
   40TPM     C4 9324  12.424   1.530   3.535 -0.2999 -0.1239  0.1973
   40TPM     S1 9325  12.298   1.545   3.407  0.2470  0.0083 -0.3409
   41BDD     C1 9326  12.814   1.482   3.542  0.1171 -0.0361 -0.0673
   41BDD     C2 9327  12.792   1.576   3.446  0.0505 -0.0325 -0.0488
   41BDD     C3 9328  12.651   1.604   3.423  0.0397  0.1682  0.2450
   41BDD     C4 9329  12.568   1.530   3.502  0.0983  0.3147  0.4464
   41BDD     S1 9330  12.659   1.421   3.610  0.1710  0.2114  0.2820
   41BDD     C5 9331  12.900   1.645   3.372 -0.0058 -0.2135 -0.3007
   41BDD     C6 9332  12.605   1.703   3.323 -0.0284  0.2074  0.3152
   41BDD     O1 9333  12.484   1.727   3.303 -0.0377  0.3805  0.5686
   41BDD     O2 9334  13.021   1.621   3.392  0.0035 -0.3866 -0.5541
   41BDD     C7 9335  12.713   1.772   3.249 -0.0846  0.0265  0.0634
   41BDD     C8 9336  12.854   1.744   3.272 -0.0738 -0.1743 -0.2304
   41BDD     C9 9337  12.937   1.818   3.193 -0.1324 -0.3208 -0.4318
   41BDD     S2 9338  12.846   1.927   3.085 -0.2051 -0.2175 -0.2675
   41BDD    C10 9339  12.692   1.866   3.153 -0.1513  0.0301  0.0818
   41BDD    C11 9340  12.565   1.955   3.108 -1.6222 -0.6813 -0.3815
   41BDD    C12 9341  12.509   1.906   2.975 -0.2148 -0.8084  0.1399
   41BDD    C13 9342  12.423   2.001   2.899 -1.7486  0.6763 -0.1457
   41BDD    C14 9343  12.483   2.075   2.786 -0.2564  0.4430  1.5371
   41BDD    C15 9344  12.375   2.127   2.692  0.3593 -0.1158  0.0554
   41BDD    C16 9345  12.412   2.172   2.554 -0.1765  0.2123 -0.6745
   41BDD    C17 9346  12.482   1.750   2.971  0.8141 -0.7161  0.2809
   41BDD    C18 9347  12.353   1.693   3.032 -0.3546  0.4530 -1.5358
   41BDD    C19 9348  13.094   1.848   3.171 -0.5051 -0.0099  1.1010
   41BDD    C20 9349  13.172   1.745   3.081  0.2758 -0.1291  0.3943
   41BDD    C21 9350  13.091   1.679   2.956 -1.4139  0.4672  0.2797
   41BDD    C22 9351  13.017   1.766   2.865 -0.6007 -1.4850 -0.2334
   41BDD    C23 9352  13.008   1.728   2.716  0.0829 -0.1756  0.1374
   41BDD    C24 9353  12.977   1.588   2.668 -0.7038 -0.8741 -0.3012
   41BDD    C25 9354  13.267   1.656   3.155 -0.5822 -0.4508  1.2883
   41BDD    C26 9355  13.396   1.741   3.176 -0.4304 -0.1260  0.4201
   42TPM     C1 9356  12.927   1.417   3.609 -0.2890  0.5808 -1.0650
   42TPM     C2 9357  12.908   1.327   3.710 -0.8006  0.6536 -1.0882
   42TPM     C3 9358  13.028   1.256   3.748 -0.9971  0.6364 -0.4691
   42TPM     C4 9359  13.138   1.292   3.675 -0.6354  0.5505  0.0259
   42TPM     S1 9360  13.098   1.419   3.553 -0.0137  0.4840 -0.2533
   43BDTP    C1 9361  13.747   1.141   3.616 -0.0486 -0.0613  0.2590
   43BDTP    C2 9362  13.712   1.070   3.735 -0.0944 -0.0269  0.2658
   43BDTP    C3 9363  13.584   1.073   3.788 -0.0720  0.1311  0.3131
   43BDTP    C4 9364  13.486   1.148   3.722 -0.0013  0.2615  0.3554
   43BDTP    C5 9365  13.521   1.218   3.603  0.0445  0.2271  0.3485
   43BDTP    C6 9366  13.649   1.216   3.549  0.0222  0.0691  0.3015
   43BDTP    C7 9367  13.347   1.166   3.758  0.0339  0.4350  0.4078
   43BDTP    C8 9368  13.277   1.245   3.673  0.1029  0.5313  0.4403
   43BDTP    S1 9369  13.377   1.308   3.536  0.1332  0.4158  0.4089
   43BDTP    C9 9370  13.886   1.123   3.580 -0.0836 -0.2348  0.2066
   43BDTP   C10 9371  13.957   1.044   3.664 -0.1528 -0.3311  0.1742
   43BDTP    S2 9372  13.856   0.980   3.802 -0.1830 -0.2155  0.2055
   44FTM     S1 9373  13.575   0.815   3.916  0.0312  0.0567 -0.0673
   44FTM     C1 9374  13.545   0.821   4.094  0.2381  0.1566 -0.0354
   44FTM     C2 9375  13.523   0.949   4.133 -0.2603  0.1150 -0.1726
   44FTM     C3 9376  13.527   1.048   4.030 -0.8198  0.0056 -0.3076
   44FTM     C4 9377  13.554   0.994   3.907 -0.7475 -0.0381 -0.2726
   44FTM     F1 9378  13.497   0.985   4.265 -0.2393  0.1736 -0.1842
   44FTM     C5 9379  13.555   0.687   4.173  0.4843 -1.1261 -0.7858
   44FTM     C6 9380  13.479   0.563   4.128 -0.2852  0.6805  0.1819
   44FTM     C7 9381  13.560   0.486   4.042 -0.4160  2.1670  0.7727
   44FTM     C8 9382  13.692   0.413   4.081 -0.0207 -0.1513  0.7631
   44FTM     C9 9383  13.708   0.323   4.200  0.2986  0.9806  0.6688
   44FTM    C10 9384  13.664   0.179   4.203  0.0910  0.2282 -0.5515
   44FTM    C11 9385  13.331   0.565   4.107  1.0952  0.6325  0.4287
   44FTM    C12 9386  13.255   0.599   4.242 -1.3150 -0.5712  0.2126
   45FTM     S1 9387  13.808   1.411   3.394  0.2055  0.0726 -0.4959
   45FTM     C1 9388  13.789   1.389   3.216  0.3005  0.0579 -0.5044
   45FTM     C2 9389  13.692   1.296   3.191  0.3182  0.0514 -0.5482
   45FTM     C3 9390  13.629   1.239   3.306  0.2602  0.0574 -0.5773
   45FTM     C4 9391  13.678   1.288   3.423  0.1961  0.0687 -0.5550
   45FTM     F1 9392  13.656   1.258   3.063  0.3878  0.0398 -0.5646
   45FTM     C5 9393  13.877   1.438   3.099 -0.3961  0.3968  0.6419
   45FTM     C6 9394  13.806   1.565   3.049 -0.3460  0.5480  0.1940
   45FTM     C7 9395  13.673   1.560   2.971 -0.1942 -1.0392 -0.0267
   45FTM     C8 9396  13.667   1.537   2.826  0.0959 -0.0185 -0.2928
   45FTM     C9 9397  13.770   1.424   2.767 -0.3267 -1.3181 -0.3200
   45FTM    C10 9398  13.732   1.364   2.633 -0.7820  0.4691 -0.7662
   45FTM    C11 9399  13.804   1.680   3.151 -0.0086 -0.3252 -0.1174
   45FTM    C12 9400  13.805   1.831   3.114 -0.1885  1.0656  0.4980
   46TPM     C1 9401  14.096   1.023   3.681 -0.1685  0.3989 -0.5007
   46TPM     C2 9402  14.156   0.968   3.790 -0.3563  0.8481 -0.1613
   46TPM     C3 9403  14.297   0.942   3.771 -0.2340  1.1333  0.3318
   46TPM     C4 9404  14.343   0.978   3.648  0.0470  0.9016  0.3686
   46TPM     S1 9405  14.212   1.047   3.545  0.1800  0.3006 -0.2215
   47BDD     C1 9406  14.689   1.068   3.493  0.5356 -0.2321  0.1716
   47BDD     C2 9407  14.718   0.996   3.606  0.3845 -0.3114  0.1600
   47BDD     C3 9408  14.599   0.944   3.673  0.3042 -0.4960 -0.1228
   47BDD     C4 9409  14.483   0.977   3.610  0.3953 -0.5548 -0.3229
   47BDD     S1 9410  14.512   1.075   3.462  0.5878 -0.3831 -0.1709
   47BDD     C5 9411  14.854   0.973   3.657  0.3085 -0.2203  0.4087
   47BDD     C6 9412  14.607   0.864   3.797  0.1400 -0.6074 -0.1844
   47BDD     O1 9413  14.505   0.819   3.854  0.0707 -0.7665 -0.4283
   47BDD     O2 9414  14.956   1.018   3.600  0.3777 -0.0612  0.6526
   47BDD     C7 9415  14.744   0.841   3.848  0.0640 -0.5163  0.0643
   47BDD     C8 9416  14.862   0.893   3.781  0.1443 -0.3317  0.3471
   47BDD     C9 9417  14.978   0.860   3.844  0.0532 -0.2729  0.5472
   47BDD     S2 9418  14.949   0.762   3.992 -0.1393 -0.4446  0.3953
   47BDD    C10 9419  14.772   0.770   3.961 -0.0872 -0.5956  0.0528
   47BDD    C11 9420  14.678   0.741   4.078  0.3427 -1.2665 -0.2015
   47BDD    C12 9421  14.712   0.781   4.217  0.0534  1.7242  0.0970
   47BDD    C13 9422  14.809   0.893   4.253  1.1659  0.8371 -0.1429
   47BDD    C14 9423  14.726   1.028   4.268 -0.4474  0.5381 -0.5476
   47BDD    C15 9424  14.596   1.046   4.344  0.0142 -0.0268  0.4908
   47BDD    C16 9425  14.599   1.194   4.388 -0.7714 -0.1852  1.2757
   47BDD    C17 9426  14.704   0.670   4.312 -0.2970  0.3561  0.2209
   47BDD    C18 9427  14.714   0.699   4.468 -0.5389  0.2954  0.4286
   47BDD    C19 9428  15.120   0.924   3.837  0.4517  0.1383 -0.6543
   47BDD    C20 9429  15.180   0.974   3.964 -0.4228 -0.9426 -0.4930
   47BDD    C21 9430  15.098   1.086   4.054  0.3829  0.4652 -0.4888
   47BDD    C22 9431  15.135   1.173   4.177  0.9639  0.4140 -0.2340
   47BDD    C23 9432  15.236   1.285   4.145  0.5446 -1.5432 -0.1947
   47BDD    C24 9433  15.264   1.388   4.261 -1.1399  1.6051 -0.9745
   47BDD    C25 9434  15.331   0.950   3.939 -0.6692 -0.4098 -1.2812
   47BDD    C26 9435  15.430   0.979   4.064  0.2227 -1.0014  0.0158
   48TPM     C1 9436  14.770   1.138   3.405 -0.0663 -0.3039  0.5254
   48TPM     C2 9437  14.715   1.255   3.361 -0.0272 -0.3440  0.3690
   48TPM     C3 9438  14.799   1.328   3.271 -0.0219 -0.5163  0.2327
   48TPM     C4 9439  14.919   1.268   3.246 -0.0570 -0.6075  0.2854
   48TPM     S1 9440  14.934   1.112   3.335 -0.0997 -0.4821  0.5126
   49BDTP    C1 9441  15.343   1.566   2.900 -0.0923  0.1577  0.1197
   49BDTP    C2 9442  15.420   1.459   2.955 -0.1853 -0.0106 -0.0760
   49BDTP    C3 9443  15.366   1.366   3.043 -0.2887 -0.1770 -0.3132
   49BDTP    C4 9444  15.231   1.378   3.079 -0.3011 -0.1778 -0.3601
   49BDTP    C5 9445  15.154   1.485   3.024 -0.2081 -0.0094 -0.1644
   49BDTP    C6 9446  15.208   1.579   2.936 -0.1048  0.1569  0.0727
   49BDTP    C7 9447  15.154   1.294   3.168 -0.3999 -0.3330 -0.5907
   49BDTP    C8 9448  15.025   1.332   3.182 -0.3859 -0.2898 -0.5777
   49BDTP    S1 9449  14.982   1.480   3.085 -0.2455 -0.0466 -0.2717
   49BDTP    C9 9450  15.420   1.650   2.811  0.0066  0.3129  0.3501
   49BDTP   C10 9451  15.549   1.612   2.797 -0.0075  0.2697  0.3372
   49BDTP    S2 9452  15.592   1.465   2.894 -0.1480  0.0265  0.0312
   50FTM     S1 9453  15.592   1.310   3.190  0.1129 -0.0866  0.1413
   50FTM     C1 9454  15.616   1.140   3.246  0.1989 -0.3718 -0.7424
   50FTM     C2 9455  15.516   1.061   3.198  0.4325 -0.2577 -1.4539
   50FTM     C3 9456  15.417   1.127   3.118  0.5562  0.0510 -1.3576
   50FTM     C4 9457  15.442   1.260   3.104  0.4123  0.1774 -0.5459
   50FTM     F1 9458  15.508   0.926   3.225  0.5485 -0.4260 -2.2346
   50FTM     C5 9459  15.732   1.094   3.316 -0.3220 -0.5646  0.3721
   50FTM     C6 9460  15.851   1.078   3.227 -0.4570  0.9333 -0.5736
   50FTM     C7 9461  15.993   1.114   3.274 -0.0572 -0.1467 -0.7861
   50FTM     C8 9462  16.022   1.250   3.341 -0.2779  0.3472  0.3513
   50FTM     C9 9463  16.150   1.292   3.385 -1.1613 -0.3109 -0.8111
   50FTM    C10 9464  16.167   1.283   3.542 -1.1681  0.8694  0.4043
   50FTM    C11 9465  15.842   0.946   3.146 -0.4120  0.5542 -0.1036
   50FTM    C12 9466  15.931   0.912   3.039 -0.0498 -1.4708  1.2871
   51FTM     S1 9467  14.971   1.661   2.797 -0.1837 -0.1202 -0.1915
   51FTM     C1 9468  14.931   1.835   2.823 -0.2587 -0.0276 -0.8948
   51FTM     C2 9469  15.033   1.897   2.887 -0.3267  0.2551 -1.0564
   51FTM     C3 9470  15.146   1.816   2.919 -0.3248  0.4131 -0.6530
   51FTM     C4 9471  15.130   1.687   2.879 -0.2528  0.2460 -0.1666
   51FTM     F1 9472  15.031   2.032   2.920 -0.3948  0.3875 -1.5794
   51FTM     C5 9473  14.780   1.858   2.785 -1.3087 -0.5221 -0.6110
   51FTM     C6 9474  14.756   1.972   2.686  0.7199  1.1255  0.2892
   51FTM     C7 9475  14.744   1.932   2.528 -0.5474 -0.3552 -0.2192
   51FTM     C8 9476  14.627   1.909   2.424 -0.0411 -0.7435  0.6329
   51FTM     C9 9477  14.514   1.822   2.474 -1.9324 -0.4963  0.0792
   51FTM    C10 9478  14.404   1.884   2.553  0.4070 -0.5907  1.2999
   51FTM    C11 9479  14.769   2.108   2.735  0.1202  0.6771  0.4290
   51FTM    C12 9480  14.643   2.182   2.711  0.7834 -0.1160 -0.1790
   52TPM     C1 9481  15.650   1.708   2.744 -0.0461  0.5572  0.1300
   52TPM     C2 9482  15.784   1.693   2.762 -0.0348  0.4826 -0.0136
   52TPM     C3 9483  15.862   1.804   2.714 -0.0240  0.4399 -0.0958
   52TPM     C4 9484  15.787   1.904   2.659 -0.0274  0.4820 -0.0148
   52TPM     S1 9485  15.611   1.865   2.664 -0.0444  0.5795  0.1731
   53BDD     C1 9486  15.866   2.287   2.660  0.0358 -0.2199 -0.0643
   53BDD     C2 9487  15.974   2.228   2.601  0.1062 -0.1587  0.0029
   53BDD     C3 9488  15.963   2.084   2.590  0.2918 -0.1875  0.1929
   53BDD     C4 9489  15.846   2.034   2.642  0.3602 -0.2702  0.2678
   53BDD     S1 9490  15.743   2.165   2.708  0.1967 -0.3176  0.1056
   53BDD     C5 9491  16.091   2.303   2.551  0.0056 -0.0716 -0.1050
   53BDD     C6 9492  16.068   2.000   2.529  0.3948 -0.1319  0.2934
   53BDD     O1 9493  16.059   1.875   2.520  0.5548 -0.1569  0.4572
   53BDD     O2 9494  16.101   2.427   2.560 -0.1545 -0.0468 -0.2688
   53BDD     C7 9495  16.186   2.075   2.479  0.2942 -0.0449  0.1855
   53BDD     C8 9496  16.197   2.219   2.490  0.1086 -0.0162 -0.0045
   53BDD     C9 9497  16.313   2.268   2.438  0.0403  0.0666 -0.0795
   53BDD     S2 9498  16.417   2.138   2.372  0.2036  0.1140  0.0827
   53BDD    C10 9499  16.294   2.016   2.420  0.3648  0.0163  0.2526
   53BDD    C11 9500  16.328   1.875   2.379  0.5387 -1.0330  0.8901
   53BDD    C12 9501  16.334   1.741   2.453 -0.4905 -1.1661  0.7551
   53BDD    C13 9502  16.485   1.733   2.527  0.8421 -0.6037 -1.1664
   53BDD    C14 9503  16.517   1.822   2.639  0.6039  0.8308  1.4213
   53BDD    C15 9504  16.418   1.785   2.758 -0.0806  0.3082  0.5418
   53BDD    C16 9505  16.306   1.876   2.777  0.5495  0.4370 -0.3749
   53BDD    C17 9506  16.288   1.622   2.367 -0.6055 -1.0706  1.0472
   53BDD    C18 9507  16.146   1.572   2.294 -1.0763 -0.6200  0.4703
   53BDD    C19 9508  16.378   2.413   2.422  0.6988 -0.2126  0.5604
   53BDD    C20 9509  16.481   2.449   2.535  0.3786 -1.6431 -0.2320
   53BDD    C21 9510  16.431   2.488   2.674  1.2000  0.7212 -1.1608
   53BDD    C22 9511  16.463   2.634   2.731  0.0659 -0.2241 -0.4570
   53BDD    C23 9512  16.603   2.657   2.781 -1.3592  1.1389  0.0431
   53BDD    C24 9513  16.643   2.790   2.863 -0.6438  0.4178  0.7833
   53BDD    C25 9514  16.630   2.404   2.527 -0.4193  0.8923  0.5024
   53BDD    C26 9515  16.687   2.255   2.503 -0.0553 -1.0590 -0.9903
   54TPM     C1 9516  15.815   2.424   2.685 -0.1588 -0.2572  0.0346
   54TPM     C2 9517  15.761   2.452   2.806 -0.0397 -0.0633  0.0436
   54TPM     C3 9518  15.741   2.593   2.830  0.3474  0.0013 -0.0025
   54TPM     C4 9519  15.780   2.672   2.726  0.5235 -0.1431 -0.0466
   54TPM     S1 9520  15.846   2.574   2.589  0.2117 -0.3739 -0.0334
   55BDTP    C1 9521  15.767   3.290   2.815 -0.1118 -0.1411 -0.2771
   55BDTP    C2 9522  15.656   3.247   2.893 -0.0228 -0.2916 -0.2325
   55BDTP    C3 9523  15.617   3.114   2.901  0.1050 -0.3326 -0.2890
   55BDTP    C4 9524  15.691   3.019   2.828  0.1470 -0.2201 -0.3945
   55BDTP    C5 9525  15.802   3.062   2.750  0.0578 -0.0696 -0.4391
   55BDTP    C6 9526  15.841   3.195   2.742 -0.0700 -0.0285 -0.3826
   55BDTP    C7 9527  15.669   2.876   2.821  0.2744 -0.2357 -0.4684
   55BDTP    C8 9528  15.758   2.810   2.742  0.2851 -0.1057 -0.5651
   55BDTP    S1 9529  15.881   2.921   2.666  0.1352  0.0547 -0.5761
   55BDTP    C9 9530  15.788   3.433   2.822 -0.2394 -0.1255 -0.2032
   55BDTP   C10 9531  15.700   3.499   2.901 -0.2500 -0.2554 -0.1065
   55BDTP    S2 9532  15.577   3.388   2.977 -0.1001 -0.4157 -0.0955
   56FTM     S1 9533  15.336   3.084   2.894  0.2587 -0.3928 -0.9136
   56FTM     C1 9534  15.274   2.950   2.997  0.8840  0.0539  0.0626
   56FTM     C2 9535  15.372   2.908   3.082  1.1427  0.9930  0.2517
   56FTM     C3 9536  15.498   2.976   3.071  0.8765  1.4123 -0.3366
   56FTM     C4 9537  15.497   3.073   2.976  0.3988  0.7733 -0.9979
   56FTM     F1 9538  15.354   2.806   3.174  1.6355  1.5287  0.9690
   56FTM     C5 9539  15.135   2.905   2.976 -0.0602  1.5919 -1.0098
   56FTM     C6 9540  15.023   2.996   2.968 -1.0718  0.4491  1.0475
   56FTM     C7 9541  14.991   3.055   2.829 -0.7939  0.4444  0.7309
   56FTM     C8 9542  15.090   3.109   2.715  1.1452 -0.7489  0.4803
   56FTM     C9 9543  15.029   3.180   2.598 -0.2163 -0.0216  0.6374
   56FTM    C10 9544  15.121   3.249   2.498  0.6204 -0.4852  0.4600
   56FTM    C11 9545  14.965   3.052   3.084  0.4154 -0.6923 -0.9045
   56FTM    C12 9546  14.832   3.123   3.098  0.2082 -0.5428 -0.5052
   57FTM     S1 9547  16.082   3.346   2.734 -0.4520  0.0058 -0.1484
   57FTM     C1 9548  16.167   3.349   2.575 -1.4117  0.3856 -0.6712
   57FTM     C2 9549  16.097   3.277   2.483 -2.0208  0.6858 -0.4523
   57FTM     C3 9550  15.976   3.216   2.530 -1.7841  0.6401  0.1215
   57FTM     C4 9551  15.953   3.243   2.661 -0.9669  0.2934  0.3493
   57FTM     F1 9552  16.139   3.262   2.352 -2.8290  1.0201 -0.7586
   57FTM     C5 9553  16.308   3.400   2.545  0.1120  0.0177 -0.6325
   57FTM     C6 9554  16.344   3.518   2.464 -0.2062 -1.6123 -0.5752
   57FTM     C7 9555  16.257   3.626   2.525  0.6010  0.3757 -0.8944
   57FTM     C8 9556  16.317   3.717   2.642  0.8249 -0.3658  0.0503
   57FTM     C9 9557  16.241   3.849   2.680  0.4885  0.7473 -0.2727
   57FTM    C10 9558  16.304   3.980   2.680 -0.0632 -0.9261 -0.5042
   57FTM    C11 9559  16.305   3.519   2.312 -0.1107 -0.8329  0.3909
   57FTM    C12 9560  16.336   3.654   2.242 -1.8393  0.8155 -0.2755
   58TPM     C1 9561  15.729   3.635   2.950 -0.2130  0.5472 -0.7405
   58TPM     C2 9562  15.664   3.682   3.059 -0.5398  0.4367 -0.8857
   58TPM     C3 9563  15.705   3.815   3.098 -0.4520  0.2877 -0.4632
   58TPM     C4 9564  15.802   3.868   3.019 -0.0584  0.2843  0.0043
   58TPM     S1 9565  15.849   3.754   2.887  0.2343  0.4705 -0.0535
   59BDD     C1 9566  16.016   4.195   3.065 -0.0976 -0.3773 -0.5848
   59BDD     C2 9567  15.938   4.219   2.955 -0.1900 -0.1736 -0.4752
   59BDD     C3 9568  15.847   4.110   2.924 -0.5512  0.0805 -0.3209
   59BDD     C4 9569  15.857   4.004   3.011 -0.7291  0.0671 -0.3152
   59BDD     S1 9570  15.982   4.034   3.137 -0.4568 -0.2649 -0.5026
   59BDD     C5 9571  15.944   4.342   2.875  0.0507 -0.2050 -0.5080
   59BDD     C6 9572  15.753   4.114   2.810 -0.7064  0.3277 -0.1847
   59BDD     O1 9573  15.675   4.020   2.784 -1.0179  0.5468 -0.0517
   59BDD     O2 9574  16.022   4.436   2.901  0.3622 -0.4243 -0.6410
   59BDD     C7 9575  15.759   4.238   2.730 -0.4659  0.2962 -0.2177
   59BDD     C8 9576  15.850   4.347   2.761 -0.1048  0.0421 -0.3720
   59BDD     C9 9577  15.839   4.453   2.675  0.0731  0.0556 -0.3776
   59BDD     S2 9578  15.715   4.423   2.549 -0.1992  0.3873 -0.1902
   59BDD    C10 9579  15.680   4.262   2.621 -0.5583  0.4997 -0.1080
   59BDD    C11 9580  15.573   4.191   2.542  0.0836  1.4972  0.6252
   59BDD    C12 9581  15.445   4.131   2.621 -0.8408 -0.9018 -0.4710
   59BDD    C13 9582  15.354   4.011   2.559  0.4450  0.4944 -0.4300
   59BDD    C14 9583  15.411   3.870   2.506  1.6171  0.9465  1.0267
   59BDD    C15 9584  15.559   3.862   2.464  1.2308  0.2858  0.9136
   59BDD    C16 9585  15.624   3.741   2.525 -0.1801  0.4517  0.0833
   59BDD    C17 9586  15.355   4.242   2.669  0.3753 -0.5016 -0.6833
   59BDD    C18 9587  15.315   4.344   2.564 -0.4188 -0.2597  1.1253
   59BDD    C19 9588  15.935   4.573   2.647  0.1037 -0.8171 -0.5551
   59BDD    C20 9589  15.917   4.707   2.692  1.6457 -0.8280  0.7419
   59BDD    C21 9590  15.773   4.744   2.671 -0.6425 -0.1663 -0.3657
   59BDD    C22 9591  15.695   4.738   2.526 -0.6679 -0.9362 -1.4178
   59BDD    C23 9592  15.778   4.787   2.409  2.2483 -0.0908  1.1164
   59BDD    C24 9593  15.685   4.889   2.334 -0.8184 -0.3096 -0.7009
   59BDD    C25 9594  15.950   4.744   2.836 -0.8950  0.1535  1.2225
   59BDD    C26 9595  15.921   4.881   2.882  0.3263  0.5573 -0.2765
   60TPM     C1 9596  16.109   4.277   3.141  0.0958  0.0420  0.3054
   60TPM     C2 9597  16.225   4.285   3.068 -0.0767  0.3251  0.0601
   60TPM     C3 9598  16.344   4.290   3.149  0.0930  0.4749 -0.1960
   60TPM     C4 9599  16.320   4.285   3.283  0.3944  0.3059 -0.1462
   60TPM     S1 9600  16.143   4.274   3.318  0.4885 -0.0584  0.2312
    1BDTP    C1 9601   9.088   7.348   4.621 -0.2496  0.2903 -0.2835
    1BDTP    C2 9602   9.135   7.248   4.531  0.0045  0.1014  0.0544
    1BDTP    C3 9603   9.243   7.269   4.446  0.1330 -0.0147  0.1874
    1BDTP    C4 9604   9.307   7.394   4.450  0.0048  0.0587 -0.0219
    1BDTP    C5 9605   9.260   7.493   4.540 -0.2491  0.2474 -0.3600
    1BDTP    C6 9606   9.152   7.473   4.625 -0.3778  0.3634 -0.4931
    1BDTP    C7 9607   9.421   7.438   4.372  0.0987 -0.0347  0.0598
    1BDTP    C8 9608   9.460   7.565   4.398 -0.0708  0.0736 -0.1972
    1BDTP    S1 9609   9.359   7.646   4.526 -0.3731  0.3089 -0.5790
    1BDTP    C9 9610   8.975   7.303   4.700 -0.3433  0.3835 -0.3654
    1BDTP   C10 9611   8.935   7.176   4.674 -0.1738  0.2754 -0.1084
    1BDTP    S2 9612   9.036   7.095   4.545  0.1284  0.0401  0.2733
    2FTM     S1 9613   9.444   7.111   4.297  0.2473  0.4299  0.2906
    2FTM     C1 9614   9.365   6.991   4.189  0.8888 -0.4442  0.7650
    2FTM     C2 9615   9.229   7.004   4.196  0.8247 -0.8581  0.3967
    2FTM     C3 9616   9.180   7.105   4.285  0.2856 -0.5287 -0.2608
    2FTM     C4 9617   9.281   7.173   4.347 -0.0747  0.1599 -0.4007
    2FTM     F1 9618   9.142   6.924   4.124  1.2500 -1.5597  0.6332
    2FTM     C5 9619   9.432   6.871   4.147 -0.4763  0.1307 -0.3359
    2FTM     C6 9620   9.576   6.889   4.068  1.3909  0.1796 -0.3609
    2FTM     C7 9621   9.700   6.929   4.151  0.2026  0.5705 -0.0095
    2FTM     C8 9622   9.755   6.828   4.253 -0.6358 -0.5431 -0.1221
    2FTM     C9 9623   9.757   6.677   4.209 -0.3956  0.4119  0.0614
    2FTM    C10 9624   9.848   6.640   4.078 -0.9195  0.1273  0.2716
    2FTM    C11 9625   9.592   6.925   3.911  0.1082  0.9944  0.1197
    2FTM    C12 9626   9.541   7.055   3.855  0.8207  0.0724  1.4670
    3FTM     S1 9627   9.221   7.624   4.870 -0.3919 -0.5192 -0.3761
    3FTM     C1 9628   9.149   7.789   4.863 -0.7115 -0.6217  0.2793
    3FTM     C2 9629   9.061   7.796   4.760 -0.4828 -0.2949  0.1012
    3FTM     C3 9630   9.043   7.677   4.683 -0.0548  0.0471 -0.5404
    3FTM     C4 9631   9.122   7.574   4.728  0.0469 -0.0202 -0.8639
    3FTM     F1 9632   8.990   7.911   4.730 -0.6466 -0.2859  0.5085
    3FTM     C5 9633   9.206   7.911   4.952 -0.2195 -0.2768 -0.7433
    3FTM     C6 9634   9.113   7.989   5.049  0.0715 -0.8497 -0.7390
    3FTM     C7 9635   9.154   8.129   5.105 -0.0061  0.8788  0.1164
    3FTM     C8 9636   9.289   8.111   5.170  0.0549  0.7886  1.4462
    3FTM     C9 9637   9.379   8.233   5.218  0.8938  0.4903 -0.5490
    3FTM    C10 9638   9.423   8.336   5.121 -0.4594 -0.1777  0.6938
    3FTM    C11 9639   8.986   7.922   5.098  0.6421  0.2960 -0.5556
    3FTM    C12 9640   8.870   7.985   5.054  1.0407  0.6112  0.6877
    4TPM     C1 9641   8.814   7.085   4.703 -0.2680 -0.4558 -0.3663
    4TPM     C2 9642   8.780   6.961   4.656 -0.1349 -0.7902  0.3915
    4TPM     C3 9643   8.648   6.919   4.695 -0.0699 -0.7176  0.6949
    4TPM     C4 9644   8.582   7.010   4.771 -0.1531 -0.3276  0.1682
    4TPM     S1 9645   8.681   7.158   4.800 -0.3216 -0.0197 -0.7586
    5BDD     C1 9646   8.202   7.068   4.783  0.0454 -0.2691  0.1194
    5BDD     C2 9647   8.227   7.008   4.903 -0.0279 -0.2466  0.1459
    5BDD     C3 9648   8.366   6.971   4.921 -0.0134 -0.1279  0.2899
    5BDD     C4 9649   8.445   7.002   4.814  0.0699 -0.0616  0.3711
    5BDD     S1 9650   8.351   7.082   4.684  0.1366 -0.1431  0.2729
    5BDD     C5 9651   8.124   6.984   5.006 -0.1130 -0.3333  0.0401
    5BDD     C6 9652   8.416   6.904   5.044 -0.0832 -0.0845  0.3418
    5BDD     O1 9653   8.536   6.872   5.059 -0.0710  0.0179  0.4659
    5BDD     O2 9654   8.004   7.016   4.991 -0.1252 -0.4358 -0.0842
    5BDD     C7 9655   8.313   6.880   5.147 -0.1686 -0.1715  0.2358
    5BDD     C8 9656   8.174   6.917   5.129 -0.1826 -0.2902  0.0918
    5BDD     C9 9657   8.095   6.885   5.236 -0.2668 -0.3566  0.0105
    5BDD     S2 9658   8.189   6.806   5.366 -0.3333 -0.2750  0.1087
    5BDD    C10 9659   8.338   6.819   5.267 -0.2420 -0.1490  0.2621
    5BDD    C11 9660   8.456   6.767   5.351  0.5350  0.6117  0.5529
    5BDD    C12 9661   8.578   6.834   5.383  0.1135 -2.0632 -0.5290
    5BDD    C13 9662   8.642   6.759   5.489 -0.0477  1.0354 -0.8340
    5BDD    C14 9663   8.793   6.784   5.470  0.4197  0.7924 -1.1088
    5BDD    C15 9664   8.876   6.656   5.447  0.1551  0.9869  1.0396
    5BDD    C16 9665   8.823   6.569   5.330 -0.6057 -0.6423 -0.3406
    5BDD    C17 9666   8.581   6.992   5.380 -1.7789 -0.0841  0.1113
    5BDD    C18 9667   8.529   7.048   5.509 -0.1599 -0.2557 -0.1048
    5BDD    C19 9668   7.964   6.934   5.300 -0.1521 -0.8812  1.7693
    5BDD    C20 9669   7.844   6.876   5.226 -0.9078 -0.6539 -0.0948
    5BDD    C21 9670   7.856   6.729   5.176 -0.4787 -0.0833 -0.2894
    5BDD    C22 9671   7.735   6.686   5.105 -0.5503  0.3725 -0.4208
    5BDD    C23 9672   7.743   6.541   5.057  0.2441  0.0340  0.7300
    5BDD    C24 9673   7.852   6.500   4.957  0.2414  0.4087 -1.1032
    5BDD    C25 9674   7.710   6.906   5.305  0.2862  0.7620  0.2876
    5BDD    C26 9675   7.650   6.800   5.405 -0.9690 -0.7072  0.7509
    6TPM     C1 9676   8.095   7.143   4.713  0.7222  0.9875 -0.3965
    6TPM     C2 9677   7.963   7.109   4.724  0.8417  0.5488 -0.2468
    6TPM     C3 9678   7.877   7.187   4.640  0.5563 -0.2117 -0.6750
    6TPM     C4 9679   7.942   7.280   4.564  0.2190 -0.3529 -1.1511
    6TPM     S1 9680   8.120   7.276   4.594  0.2356  0.4700 -1.0952
    7BDTP    C1 9681   7.698   7.743   4.210 -0.2097 -0.1042  0.0987
    7BDTP    C2 9682   7.838   7.758   4.189 -0.1938 -0.2267  0.1177
    7BDTP    C3 9683   7.932   7.675   4.248 -0.2760 -0.3233  0.1118
    7BDTP    C4 9684   7.885   7.571   4.332 -0.3786 -0.2978  0.0861
    7BDTP    C5 9685   7.745   7.557   4.352 -0.3946 -0.1751  0.0671
    7BDTP    C6 9686   7.651   7.640   4.293 -0.3124 -0.0787  0.0731
    7BDTP    C7 9687   7.963   7.473   4.404 -0.4759 -0.3827  0.0752
    7BDTP    C8 9688   7.889   7.386   4.477 -0.5627 -0.3303  0.0498
    7BDTP    S1 9689   7.710   7.416   4.464 -0.5338 -0.1663  0.0355
    7BDTP    C9 9690   7.620   7.842   4.137 -0.1127 -0.0194  0.1094
    7BDTP   C10 9691   7.694   7.929   4.065 -0.0257 -0.0716  0.1351
    7BDTP    S2 9692   7.873   7.898   4.078 -0.0545 -0.2358  0.1493
    8FTM     S1 9693   8.152   7.553   4.109 -0.2121 -0.2634 -0.1322
    8FTM     C1 9694   8.310   7.601   4.182 -0.3050 -0.3881  0.1558
    8FTM     C2 9695   8.292   7.705   4.268 -0.3648 -0.3009  0.0391
    8FTM     C3 9696   8.157   7.752   4.283 -0.3424 -0.1359 -0.2739
    8FTM     C4 9697   8.070   7.682   4.205 -0.2631 -0.0952 -0.4010
    8FTM     F1 9698   8.396   7.763   4.339 -0.4435 -0.3655  0.2090
    8FTM     C5 9699   8.447   7.516   4.165  0.6787  0.5496  1.0100
    8FTM     C6 9700   8.570   7.606   4.151 -0.2932 -1.3904  0.8545
    8FTM     C7 9701   8.609   7.620   3.998 -0.7346 -0.0016 -0.3710
    8FTM     C8 9702   8.661   7.760   3.988  0.7055 -0.7798 -0.5570
    8FTM     C9 9703   8.640   7.819   3.845  1.1272 -0.2708 -0.8687
    8FTM    C10 9704   8.682   7.972   3.837 -0.6069  0.5714 -0.2588
    8FTM    C11 9705   8.684   7.591   4.243 -1.5976  0.5145 -0.2234
    8FTM    C12 9706   8.734   7.458   4.287 -0.9399 -0.2464 -0.2754
    9FTM     S1 9707   7.460   7.484   4.181 -0.2432  0.0149 -0.5895
    9FTM     C1 9708   7.288   7.532   4.205 -0.0290  0.3955  0.2659
    9FTM     C2 9709   7.281   7.640   4.287  0.5949  0.2229  0.5593
    9FTM     C3 9710   7.406   7.691   4.335  0.9360 -0.2052  0.1467
    9FTM     C4 9711   7.512   7.620   4.288  0.5613 -0.3659 -0.4829
    9FTM     F1 9712   7.161   7.699   4.323  0.8940  0.4426  1.2187
    9FTM     C5 9713   7.170   7.461   4.127  0.1654  0.1566 -0.1421
    9FTM     C6 9714   7.058   7.389   4.210 -1.6448 -0.8052 -0.0354
    9FTM     C7 9715   7.121   7.285   4.304  0.6828  0.8694  1.3659
    9FTM     C8 9716   7.149   7.316   4.443 -0.2204 -0.0565 -0.1771
    9FTM     C9 9717   7.296   7.338   4.504  0.7074 -0.1033  0.8006
    9FTM    C10 9718   7.407   7.234   4.494  0.5278 -0.3778  0.7102
    9FTM    C11 9719   6.936   7.352   4.127  0.4124  0.3557 -1.5326
    9FTM    C12 9720   6.812   7.293   4.183  0.3148 -0.9150 -1.1095
   10TPM     C1 9721   7.638   8.031   3.982 -0.0191  0.9612  0.7097
   10TPM     C2 9722   7.624   8.014   3.848  0.4075  0.5372  0.7139
   10TPM     C3 9723   7.529   8.104   3.787  0.4323  0.2031  0.1632
   10TPM     C4 9724   7.471   8.190   3.876  0.0244  0.3728 -0.2609
   10TPM     S1 9725   7.532   8.163   4.044 -0.4259  0.9721  0.0046
   11BDD     C1 9726   7.216   8.403   3.659 -0.2986 -0.3141  0.3122
   11BDD     C2 9727   7.205   8.455   3.785 -0.1884 -0.2470  0.2951
   11BDD     C3 9728   7.287   8.387   3.883  0.0037 -0.1061  0.2326
   11BDD     C4 9729   7.361   8.284   3.830  0.0368 -0.0674  0.2029
   11BDD     S1 9730   7.331   8.265   3.654 -0.1700 -0.2050  0.2511
   11BDD     C5 9731   7.117   8.569   3.820 -0.2551 -0.3107  0.3356
   11BDD     C6 9732   7.290   8.426   4.025  0.1476 -0.0150  0.2048
   11BDD     O1 9733   7.362   8.367   4.110  0.3132  0.1066  0.1508
   11BDD     O2 9734   7.046   8.627   3.735 -0.4206 -0.4323  0.3895
   11BDD     C7 9735   7.203   8.540   4.060  0.0807 -0.0782  0.2452
   11BDD     C8 9736   7.120   8.608   3.962 -0.1113 -0.2193  0.3076
   11BDD     C9 9737   7.047   8.711   4.015 -0.1445 -0.2582  0.3374
   11BDD     S2 9738   7.076   8.729   4.191  0.0625 -0.1209  0.2890
   11BDD    C10 9739   7.191   8.592   4.186  0.1912 -0.0117  0.2280
   11BDD    C11 9740   7.247   8.540   4.318  0.3688  0.1924 -0.4872
   11BDD    C12 9741   7.326   8.621   4.429 -0.8257  0.1641 -0.0123
   11BDD    C13 9742   7.385   8.550   4.552  1.0216 -0.6406  0.9469
   11BDD    C14 9743   7.490   8.435   4.538  0.6000  0.4285  0.3018
   11BDD    C15 9744   7.621   8.449   4.444 -1.0962 -0.7111 -0.7040
   11BDD    C16 9745   7.610   8.476   4.296  0.4678  1.7649  0.2739
   11BDD    C17 9746   7.227   8.732   4.469 -0.9092  0.4774 -0.0372
   11BDD    C18 9747   7.256   8.816   4.602  1.0254 -1.3218 -0.2811
   11BDD    C19 9748   6.923   8.782   3.964  0.8455 -0.5846  1.0703
   11BDD    C20 9749   6.931   8.929   3.916 -0.8527  0.3311  0.2637
   11BDD    C21 9750   6.915   9.033   4.029  1.2647 -0.7912  0.2621
   11BDD    C22 9751   6.770   9.037   4.087  1.1966  0.5587  0.2809
   11BDD    C23 9752   6.723   9.129   4.209 -1.8835  0.9454  0.7724
   11BDD    C24 9753   6.743   9.051   4.342  0.0748 -0.4097  0.4624
   11BDD    C25 9754   7.046   8.964   3.818  0.5379  0.8634 -0.3261
   11BDD    C26 9755   7.048   9.107   3.750 -0.1375 -0.2725  0.2351
   12TPM     C1 9756   7.168   8.456   3.534  0.1800  0.1836  0.4033
   12TPM     C2 9757   7.040   8.463   3.490  0.3289  0.2716 -0.0231
   12TPM     C3 9758   7.026   8.524   3.360  0.7983  0.2871 -0.0674
   12TPM     C4 9759   7.145   8.564   3.306  1.0072  0.2110  0.3251
   12TPM     S1 9760   7.283   8.527   3.415  0.6243  0.1134  0.7849
   13BDTP    C1 9761   7.311   8.752   2.736 -0.0054  0.2215  0.0541
   13BDTP    C2 9762   7.427   8.776   2.816 -0.0557  0.0842  0.1687
   13BDTP    C3 9763   7.430   8.752   2.953 -0.1723 -0.0608  0.1462
   13BDTP    C4 9764   7.313   8.702   3.014 -0.2428 -0.0710  0.0040
   13BDTP    C5 9765   7.198   8.679   2.934 -0.1925  0.0663 -0.1107
   13BDTP    C6 9766   7.195   8.703   2.797 -0.0757  0.2114 -0.0882
   13BDTP    C7 9767   7.293   8.670   3.154 -0.3657 -0.2085 -0.0458
   13BDTP    C8 9768   7.168   8.624   3.182 -0.4095 -0.1810 -0.1903
   13BDTP    S1 9769   7.061   8.614   3.036 -0.3010  0.0226 -0.2838
   13BDTP    C9 9770   7.332   8.785   2.597  0.1178  0.3588  0.1038
   13BDTP   C10 9771   7.456   8.831   2.568  0.1614  0.3312  0.2484
   13BDTP    S2 9772   7.564   8.840   2.715  0.0529  0.1278  0.3419
   14FTM     S1 9773   7.639   8.877   3.105 -0.5275 -0.1407  0.2794
   14FTM     C1 9774   7.769   8.766   3.161 -0.6559 -0.1838  0.4959
   14FTM     C2 9775   7.739   8.638   3.125 -0.5933 -0.1614  0.3610
   14FTM     C3 9776   7.615   8.619   3.055 -0.4455 -0.1109  0.0876
   14FTM     C4 9777   7.549   8.737   3.035 -0.3930 -0.0939  0.0106
   14FTM     F1 9778   7.821   8.530   3.155 -0.6664 -0.1860  0.4770
   14FTM     C5 9779   7.873   8.815   3.255 -1.0066  1.2158 -0.1750
   14FTM     C6 9780   7.878   8.947   3.324  1.2291  0.2495 -1.0639
   14FTM     C7 9781   7.899   9.087   3.258 -0.0486 -0.5089 -0.4733
   14FTM     C8 9782   8.015   9.135   3.162  0.9141 -0.7091  0.4748
   14FTM     C9 9783   8.067   9.281   3.143 -1.0841 -1.2141 -0.9018
   14FTM    C10 9784   7.988   9.413   3.162  0.1550 -0.6652  2.5103
   14FTM    C11 9785   7.940   8.934   3.461 -1.1189 -0.9311  0.0631
   14FTM    C12 9786   7.895   9.002   3.591 -0.2732 -0.8447  0.7330
   15FTM     S1 9787   7.003   8.797   2.623  0.4300  0.0863 -0.8287
   15FTM     C1 9788   6.873   8.685   2.568 -1.0203  0.8886  0.7445
   15FTM     C2 9789   6.894   8.561   2.619 -1.4443  0.8588  0.8542
   15FTM     C3 9790   7.010   8.546   2.703 -0.6862  0.2251 -0.2517
   15FTM     C4 9791   7.079   8.662   2.716  0.3529 -0.2448 -1.2404
   15FTM     F1 9792   6.810   8.453   2.594 -2.5446  1.4029  1.9625
   15FTM     C5 9793   6.782   8.734   2.448 -0.7698 -0.4671 -0.0596
   15FTM     C6 9794   6.679   8.638   2.398  0.3460 -0.0202  1.0478
   15FTM     C7 9795   6.749   8.528   2.314 -1.7849  0.9412 -0.9738
   15FTM     C8 9796   6.745   8.506   2.155 -0.8519 -0.1261  2.1420
   15FTM     C9 9797   6.873   8.470   2.058  0.7843 -0.5066  0.0838
   15FTM    C10 9798   7.002   8.543   2.086 -0.7501  0.3948 -1.3710
   15FTM    C11 9799   6.534   8.594   2.441  1.0708  0.0842 -0.5323
   15FTM    C12 9800   6.520   8.592   2.601 -0.7236 -0.2483  1.3396
   16TPM     C1 9801   7.516   8.886   2.452  0.0144 -1.4182 -0.2814
   16TPM     C2 9802   7.625   8.967   2.442  0.7490 -2.3324  0.0281
   16TPM     C3 9803   7.637   9.032   2.314  1.2064 -1.7972  0.3332
   16TPM     C4 9804   7.537   9.001   2.227  0.8207 -0.4752  0.2562
   16TPM     S1 9805   7.419   8.886   2.300 -0.1579  0.2022 -0.2112
   17BDD     C1 9806   7.477   9.224   1.900 -0.1091 -0.1256  0.1431
   17BDD     C2 9807   7.504   9.097   1.858 -0.1326 -0.1266  0.1313
   17BDD     C3 9808   7.527   9.003   1.967 -0.1581 -0.1428  0.1228
   17BDD     C4 9809   7.518   9.061   2.090 -0.1537 -0.1537  0.1284
   17BDD     S1 9810   7.479   9.235   2.079 -0.1171 -0.1447  0.1444
   17BDD     C5 9811   7.509   9.057   1.716 -0.1327 -0.1128  0.1273
   17BDD     C6 9812   7.558   8.861   1.944 -0.1862 -0.1471  0.1097
   17BDD     O1 9813   7.579   8.780   2.037 -0.2081 -0.1612  0.1025
   17BDD     O2 9814   7.489   9.137   1.622 -0.1106 -0.0987  0.1346
   17BDD     C7 9815   7.563   8.820   1.801 -0.1862 -0.1330  0.1058
   17BDD     C8 9816   7.540   8.914   1.693 -0.1607 -0.1168  0.1142
   17BDD     C9 9817   7.549   8.857   1.569 -0.1652 -0.1056  0.1087
   17BDD     S2 9818   7.588   8.682   1.580 -0.2017 -0.1148  0.0926
   17BDD    C10 9819   7.590   8.693   1.759 -0.2098 -0.1342  0.0939
   17BDD    C11 9820   7.618   8.559   1.828 -0.8566  0.2702 -0.3989
   17BDD    C12 9821   7.547   8.499   1.951  2.2199 -1.1383  1.0832
   17BDD    C13 9822   7.633   8.428   2.042 -0.9074  0.4419 -1.1003
   17BDD    C14 9823   7.639   8.272   2.050  1.5985  0.5403 -0.5741
   17BDD    C15 9824   7.712   8.186   1.945  1.5989  0.2176 -1.0759
   17BDD    C16 9825   7.694   8.033   1.961 -0.6349  0.6493 -0.6763
   17BDD    C17 9826   7.387   8.464   1.933  0.5506 -0.7824  2.1564
   17BDD    C18 9827   7.345   8.377   1.806 -0.0491 -0.7987  0.2383
   17BDD    C19 9828   7.485   8.913   1.439  0.1155  0.4691  0.7051
   17BDD    C20 9829   7.577   8.862   1.322  0.0241 -0.1207  1.1132
   17BDD    C21 9830   7.731   8.902   1.325 -0.5025  1.2790 -0.0311
   17BDD    C22 9831   7.784   9.031   1.277  0.4191  0.4754 -0.2530
   17BDD    C23 9832   7.937   9.080   1.285  0.8997 -0.0844  0.5589
   17BDD    C24 9833   8.007   9.053   1.407 -0.0289  0.0874 -1.7693
   17BDD    C25 9834   7.504   8.856   1.181  0.7481 -0.6404 -0.8547
   17BDD    C26 9835   7.568   8.767   1.091  0.3198  0.2196  0.5837
   18TPM     C1 9836   7.466   9.359   1.831  0.6041  0.3210  0.1918
   18TPM     C2 9837   7.353   9.382   1.758  0.3667 -0.3366  0.3433
   18TPM     C3 9838   7.328   9.521   1.729 -0.5213 -0.4613  0.4298
   18TPM     C4 9839   7.423   9.604   1.781 -0.9609  0.1015  0.3442
   18TPM     S1 9840   7.551   9.513   1.869 -0.2824  0.8379  0.1462
   19BDTP    C1 9841   7.454  10.206   1.584  0.2491  0.0651  0.3712
   19BDTP    C2 9842   7.331  10.202   1.657  0.2877  0.1152  0.4394
   19BDTP    C3 9843   7.286  10.087   1.720  0.2739  0.1321  0.4602
   19BDTP    C4 9844   7.365   9.971   1.712  0.2193  0.0982  0.4114
   19BDTP    C5 9845   7.488   9.976   1.640  0.1806  0.0482  0.3431
   19BDTP    C6 9846   7.533  10.090   1.576  0.1947  0.0312  0.3223
   19BDTP    C7 9847   7.339   9.841   1.770  0.1953  0.1072  0.4208
   19BDTP    C8 9848   7.435   9.749   1.745  0.1413  0.0668  0.3637
   19BDTP    S1 9849   7.571   9.814   1.644  0.1131  0.0117  0.2898
   19BDTP    C9 9850   7.480  10.337   1.526  0.2731  0.0560  0.3617
   19BDTP   C10 9851   7.384  10.429   1.551  0.3271  0.0963  0.4189
   19BDTP    S2 9852   7.247  10.364   1.652  0.3554  0.1519  0.4927
   20FTM     S1 9853   7.146  10.145   1.967 -0.1805  0.6439 -0.5598
   20FTM     C1 9854   6.971  10.104   1.970 -0.0515  0.0652 -0.6967
   20FTM     C2 9855   6.931  10.059   1.847  0.2474 -0.3214 -0.6558
   20FTM     C3 9856   7.033  10.054   1.746  0.3909 -0.1943 -0.5188
   20FTM     C4 9857   7.154  10.096   1.793  0.1955  0.3056 -0.4526
   20FTM     F1 9858   6.801  10.020   1.820  0.4086 -0.8132 -0.7399
   20FTM     C5 9859   6.882  10.119   2.094 -1.0618 -0.3204  0.8830
   20FTM     C6 9860   6.820  10.256   2.117  0.2463 -1.2096  1.2395
   20FTM     C7 9861   6.726  10.269   2.234  0.5526 -0.3022 -1.3834
   20FTM     C8 9862   6.574  10.217   2.197 -1.4202  0.0641  0.7480
   20FTM     C9 9863   6.516  10.201   2.328 -1.5466 -1.0522 -0.7688
   20FTM    C10 9864   6.400  10.114   2.342  1.1347 -0.0365 -1.0737
   20FTM    C11 9865   6.871  10.398   2.096  0.0812  0.8601 -0.7284
   20FTM    C12 9866   6.926  10.442   1.961 -0.6029 -0.1535 -0.5942
   21FTM     S1 9867   7.713  10.155   1.367  0.8280 -0.3009 -0.3118
   21FTM     C1 9868   7.886  10.170   1.415  0.6219  0.3563  0.2616
   21FTM     C2 9869   7.899  10.147   1.549  0.1850  1.0793  0.4373
   21FTM     C3 9870   7.778  10.118   1.620 -0.0112  1.1644  0.1438
   21FTM     C4 9871   7.669  10.118   1.538  0.2848  0.4846 -0.2701
   21FTM     F1 9872   8.021  10.152   1.614 -0.0629  1.7071  0.8743
   21FTM     C5 9873   7.988  10.215   1.306 -1.3714 -0.9497  0.1315
   21FTM     C6 9874   8.049  10.110   1.204  1.0321 -0.4975  0.5274
   21FTM     C7 9875   8.091   9.969   1.261  0.7276 -1.4787 -0.1025
   21FTM     C8 9876   7.975   9.866   1.291  1.2239 -1.3324  0.8445
   21FTM     C9 9877   7.894   9.821   1.176 -0.4551  0.7946  1.1826
   21FTM    C10 9878   7.752   9.798   1.225 -0.4663  1.8472  0.2100
   21FTM    C11 9879   8.109  10.132   1.068  0.2967 -0.1702  0.8490
   21FTM    C12 9880   8.249  10.208   1.071  0.3768 -0.3081  0.0871
   22TPM     C1 9881   7.411  10.579   1.534  0.9069  0.1369  0.4517
   22TPM     C2 9882   7.469  10.658   1.439  1.5494 -0.0169  0.7025
   22TPM     C3 9883   7.490  10.794   1.482  1.0817  0.1016  0.5676
   22TPM     C4 9884   7.448  10.819   1.609  0.0829  0.3457  0.2138
   22TPM     S1 9885   7.379  10.671   1.686 -0.3482  0.4459  0.0222
   23BDD     C1 9886   7.290  11.158   1.751 -0.0609  0.3152 -0.2350
   23BDD     C2 9887   7.409  11.193   1.693 -0.0011  0.2983 -0.1223
   23BDD     C3 9888   7.482  11.081   1.637  0.0397  0.2868 -0.0464
   23BDD     C4 9889   7.418  10.961   1.653  0.0104  0.2953 -0.1024
   23BDD     S1 9890   7.261  10.981   1.738 -0.0702  0.3183 -0.2539
   23BDD     C5 9891   7.460  11.332   1.688  0.0209  0.2921 -0.0801
   23BDD     C6 9892   7.613  11.096   1.571  0.1061  0.2677  0.0789
   23BDD     O1 9893   7.676  10.999   1.522  0.1413  0.2577  0.1443
   23BDD     O2 9894   7.397  11.429   1.736 -0.0143  0.3021 -0.1456
   23BDD     C7 9895   7.664  11.235   1.565  0.1280  0.2615  0.1210
   23BDD     C8 9896   7.591  11.347   1.621  0.0874  0.2732  0.0451
   23BDD     C9 9897   7.656  11.467   1.606  0.1165  0.2646  0.1011
   23BDD     S2 9898   7.812  11.447   1.520  0.1971  0.2413  0.2526
   23BDD    C10 9899   7.783  11.270   1.508  0.1876  0.2444  0.2337
   23BDD    C11 9900   7.862  11.176   1.422  0.1628 -0.6527 -1.2445
   23BDD    C12 9901   7.996  11.145   1.481 -0.9150 -1.4803 -0.9499
   23BDD    C13 9902   8.050  11.037   1.403  0.0646 -0.7296  0.6062
   23BDD    C14 9903   8.071  11.043   1.244  1.0003 -0.3522  1.1598
   23BDD    C15 9904   8.208  11.074   1.190 -0.7272  0.5171 -0.1644
   23BDD    C16 9905   8.278  11.178   1.274  0.1232  0.1288  0.5240
   23BDD    C17 9906   8.019  11.133   1.633  0.6734  1.1274 -0.6410
   23BDD    C18 9907   8.151  11.184   1.670  0.9983  0.6212 -0.9938
   23BDD    C19 9908   7.645  11.604   1.666 -0.0596  0.6398 -1.0452
   23BDD    C20 9909   7.624  11.723   1.559 -1.3511  0.6642 -0.1617
   23BDD    C21 9910   7.755  11.818   1.564  1.0715  0.0185  0.5038
   23BDD    C22 9911   7.699  11.960   1.536  1.0660  0.7544 -1.1087
   23BDD    C23 9912   7.774  12.068   1.468 -1.0388 -0.8343 -0.3792
   23BDD    C24 9913   7.747  12.097   1.318 -0.6767 -0.0548 -0.9101
   23BDD    C25 9914   7.545  11.697   1.431 -0.7583 -0.0132 -0.2042
   23BDD    C26 9915   7.401  11.738   1.465 -1.1116  0.1052 -0.5027
   24TPM     C1 9916   7.178  11.228   1.824  0.2396 -0.5821  0.0481
   24TPM     C2 9917   7.220  11.261   1.949  0.1919  0.2663 -0.1518
   24TPM     C3 9918   7.116  11.259   2.048  0.1264  1.0676 -0.1902
   24TPM     C4 9919   6.994  11.224   1.998  0.1238  0.8306 -0.0194
   24TPM     S1 9920   7.002  11.190   1.821  0.2050 -0.4331  0.2048
   25BDTP    C1 9921   6.425  11.246   2.263 -0.3010  0.0277  0.1584
   25BDTP    C2 9922   6.493  11.142   2.333 -0.1694 -0.0432 -0.0735
   25BDTP    C3 9923   6.627  11.113   2.311 -0.1785  0.0567 -0.2684
   25BDTP    C4 9924   6.698  11.189   2.216 -0.3238  0.2346 -0.2335
   25BDTP    C5 9925   6.629  11.293   2.146 -0.4554  0.3054 -0.0017
   25BDTP    C6 9926   6.495  11.322   2.168 -0.4465  0.2059  0.1933
   25BDTP    C7 9927   6.836  11.177   2.177 -0.3613  0.3636 -0.4082
   25BDTP    C8 9928   6.875  11.266   2.082 -0.5130  0.5257 -0.3198
   25BDTP    S1 9929   6.741  11.377   2.029 -0.6294  0.5381 -0.0029
   25BDTP    C9 9930   6.286  11.258   2.302 -0.2636 -0.1011  0.3330
   25BDTP   C10 9931   6.247  11.169   2.397 -0.1119 -0.2635  0.2446
   25BDTP    S2 9932   6.381  11.058   2.450  0.0046 -0.2754 -0.0722
   26FTM     S1 9933   6.657  10.818   2.327 -0.3828  0.2994 -0.1525
   26FTM     C1 9934   6.746  10.757   2.471  0.0860 -0.0978 -0.6012
   26FTM     C2 9935   6.781  10.861   2.551  0.5664 -0.2930 -0.5495
   26FTM     C3 9936   6.741  10.992   2.507  0.5985 -0.1488 -0.1671
   26FTM     C4 9937   6.674  10.987   2.388  0.1275  0.1667  0.0822
   26FTM     F1 9938   6.851  10.845   2.670  1.0055 -0.6137 -0.8454
   26FTM     C5 9939   6.792  10.609   2.470  0.4800  0.7447 -0.9848
   26FTM     C6 9940   6.782  10.512   2.598 -0.1619  0.1375 -0.0072
   26FTM     C7 9941   6.900  10.480   2.700  0.4622  0.7798  0.7255
   26FTM     C8 9942   7.039  10.455   2.627  0.2124 -0.2938 -0.1791
   26FTM     C9 9943   7.152  10.563   2.649 -0.3317  0.8176  0.5420
   26FTM    C10 9944   7.189  10.625   2.782  1.1879 -0.0145 -0.6278
   26FTM    C11 9945   6.661  10.520   2.691  0.1157  0.0454  0.1721
   26FTM    C12 9946   6.595  10.648   2.768 -0.1307  0.1277 -0.6209
   27FTM     S1 9947   6.492  11.583   2.065 -0.1412 -0.7389  0.2338
   27FTM     C1 9948   6.385  11.623   1.925  0.4009 -0.9932 -0.2590
   27FTM     C2 9949   6.303  11.518   1.898  0.2195 -0.8858 -0.1219
   27FTM     C3 9950   6.317  11.403   1.983 -0.3389 -0.6061  0.3630
   27FTM     C4 9951   6.413  11.421   2.078 -0.5930 -0.4956  0.6051
   27FTM     F1 9952   6.210  11.520   1.796  0.5481 -1.0345 -0.4274
   27FTM     C5 9953   6.371  11.760   1.879 -0.0434  0.0451  0.8947
   27FTM     C6 9954   6.469  11.845   1.781  0.5617  1.6502 -1.2283
   27FTM     C7 9955   6.604  11.870   1.843  0.3063 -0.5488 -1.3190
   27FTM     C8 9956   6.626  11.971   1.969  1.0588  1.4537  0.8363
   27FTM     C9 9957   6.661  12.118   1.967  0.4678  0.7948  0.7949
   27FTM    C10 9958   6.618  12.168   2.102 -0.4826 -0.5362  1.9137
   27FTM    C11 9959   6.390  11.940   1.694 -0.2092 -0.7958 -0.4144
   27FTM    C12 9960   6.446  12.055   1.605 -0.0337  0.2154  0.5724
   28TPM     C1 9961   6.125  11.160   2.462  0.3342  0.7275  0.5860
   28TPM     C2 9962   6.056  11.059   2.522  0.7572  0.7484  1.1221
   28TPM     C3 9963   5.919  11.094   2.553  0.6036  0.3335  0.9165
   28TPM     C4 9964   5.885  11.220   2.515  0.0634 -0.0036  0.2236
   28TPM     S1 9965   6.023  11.307   2.438 -0.2959  0.1782 -0.2266
   29BDD     C1 9966   5.502  11.286   2.592 -0.0395 -0.1081 -0.1477
   29BDD     C2 9967   5.565  11.402   2.629 -0.0730 -0.0970 -0.1249
   29BDD     C3 9968   5.710  11.393   2.622 -0.0668 -0.0937 -0.0098
   29BDD     C4 9969   5.755  11.271   2.579 -0.0286 -0.1024  0.0534
   29BDD     S1 9970   5.619  11.159   2.544  0.0023 -0.1147 -0.0268
   29BDD     C5 9971   5.495  11.524   2.674 -0.1119 -0.0892 -0.2081
   29BDD     C6 9972   5.798  11.506   2.658 -0.0991 -0.0825  0.0331
   29BDD     O1 9973   5.923  11.498   2.652 -0.0937 -0.0794  0.1323
   29BDD     O2 9974   5.370  11.531   2.680 -0.1172 -0.0920 -0.3073
   29BDD     C7 9975   5.728  11.628   2.702 -0.1379 -0.0744 -0.0499
   29BDD     C8 9976   5.583  11.637   2.710 -0.1440 -0.0775 -0.1649
   29BDD     C9 9977   5.538  11.758   2.753 -0.1824 -0.0689 -0.2282
   29BDD     S2 9978   5.674  11.870   2.788 -0.2133 -0.0564 -0.1481
   29BDD    C10 9979   5.791  11.743   2.740 -0.1717 -0.0632 -0.0271
   29BDD    C11 9980   5.933  11.801   2.740 -0.7137  0.5464  0.1314
   29BDD    C12 9981   6.026  11.822   2.865  0.2620  0.3504 -1.1101
   29BDD    C13 9982   6.174  11.841   2.829  0.2735 -0.4639  0.6789
   29BDD    C14 9983   6.249  11.700   2.842  0.4233 -0.2733 -0.2938
   29BDD    C15 9984   6.276  11.587   2.738  0.3679 -0.1894 -0.7127
   29BDD    C16 9985   6.413  11.618   2.684  0.5585 -0.7192 -0.9975
   29BDD    C17 9986   5.989  11.888   2.999 -0.7615 -0.3900  1.0270
   29BDD    C18 9987   5.921  11.814   3.110  0.7923  0.5043  0.0001
   29BDD    C19 9988   5.400  11.815   2.792 -0.1933 -0.2361  0.2853
   29BDD    C20 9989   5.396  11.843   2.943 -0.3382 -1.2770  0.9410
   29BDD    C21 9990   5.269  11.909   2.993  0.3231 -0.7400  0.9768
   29BDD    C22 9991   5.274  12.060   2.978 -0.6928  0.2082  0.7157
   29BDD    C23 9992   5.145  12.143   2.984  0.7480 -0.6660  0.0857
   29BDD    C24 9993   5.090  12.174   3.119  0.7420  0.1145  1.0871
   29BDD    C25 9994   5.443  11.735   3.038  1.4478 -0.2619  1.7391
   29BDD    C26 9995   5.387  11.600   3.053  0.2612 -0.5993  0.2771
   30TPM     C1 9996   5.367  11.251   2.564 -0.0017  0.6982 -0.2781
   30TPM     C2 9997   5.288  11.245   2.675 -0.1876  1.3492 -0.3648
   30TPM     C3 9998   5.182  11.147   2.665 -0.1584  1.2746  0.0325
   30TPM     C4 9999   5.180  11.080   2.547  0.0495  0.5666  0.4222
   30TPM     S110000   5.313  11.134   2.438  0.2262 -0.0655  0.3167
   31BDTP    C110001   4.779  10.609   2.596  0.1119  0.2217  0.6154
   31BDTP    C210002   4.903  10.539   2.603  0.0952  0.1287  0.0732
   31BDTP    C310003   5.026  10.602   2.588  0.0887  0.0730 -0.2400
   31BDTP    C410004   5.026  10.741   2.566  0.0992  0.1113 -0.0083
   31BDTP    C510005   4.903  10.811   2.559  0.1158  0.2046  0.5338
   31BDTP    C610006   4.780  10.748   2.573  0.1224  0.2593  0.8469
   31BDTP    C710007   5.141  10.828   2.548  0.0953  0.0674 -0.2535
   31BDTP    C810008   5.109  10.958   2.528  0.1078  0.1225  0.0742
   31BDTP    S110009   4.930  10.989   2.529  0.1265  0.2372  0.7394
   31BDTP    C910010   4.665  10.522   2.613  0.1158  0.2651  0.8605
   31BDTP   C1010011   4.696  10.392   2.633  0.1034  0.2103  0.5327
   31BDTP    S210012   4.875  10.361   2.632  0.0845  0.0954 -0.1325
   32FTM     S110013   5.175  10.363   2.521  0.1469 -0.1192 -0.4249
   32FTM     C110014   5.328  10.340   2.612 -0.1335 -0.3311  0.0014
   32FTM     C210015   5.344  10.439   2.703 -0.3917 -0.5162  0.2494
   32FTM     C310016   5.239  10.537   2.708 -0.3874 -0.5054  0.1260
   32FTM     C410017   5.141  10.512   2.618 -0.1170 -0.3047 -0.2279
   32FTM     F110018   5.453  10.447   2.788 -0.6477 -0.7071  0.6028
   32FTM     C510019   5.435  10.228   2.567  0.9087 -0.0172  0.3359
   32FTM     C610020   5.574  10.305   2.544  0.0781  0.2150 -0.8180
   32FTM     C710021   5.686  10.243   2.642 -0.0904 -0.0920 -0.2815
   32FTM     C810022   5.660  10.208   2.792  1.7119  0.9433  0.4360
   32FTM     C910023   5.685  10.067   2.862  0.4400  1.0817  0.3956
   32FTM    C1010024   5.690   9.925   2.792 -0.5161  0.1125 -1.4757
   32FTM    C1110025   5.620  10.352   2.403  1.2375  0.8953  0.6632
   32FTM    C1210026   5.641  10.239   2.297  0.3859 -0.7124  0.2312
   33FTM     S110027   4.655  10.927   2.776 -0.0670  0.5270  0.0802
   33FTM     C110028   4.482  10.966   2.740 -0.2004 -0.2537 -0.1690
   33FTM     C210029   4.444  10.905   2.625  0.1906 -0.5703 -0.1361
   33FTM     C310030   4.543  10.826   2.559  0.6076 -0.2339  0.0795
   33FTM     C410031   4.662  10.827   2.626  0.5338  0.3601  0.2164
   33FTM     F110032   4.316  10.917   2.573  0.1940 -1.1842 -0.2995
   33FTM     C510033   4.424  11.079   2.832  1.2559 -0.0210  0.8392
   33FTM     C610034   4.328  11.040   2.949  0.7973 -1.2658  0.6470
   33FTM     C710035   4.382  10.969   3.074 -0.3778  0.5340  0.0483
   33FTM     C810036   4.461  10.832   3.066  0.2119  0.6870 -0.4569
   33FTM     C910037   4.463  10.712   3.163  0.3096 -0.9789 -1.2039
   33FTM    C1010038   4.327  10.658   3.181 -0.3848  1.1503  0.9429
   33FTM    C1110039   4.176  11.023   2.930 -0.8259  0.3079  0.6574
   33FTM    C1210040   4.097  11.012   3.071 -0.9459 -0.9601  0.4855
   34TPM     C110041   4.599  10.282   2.663 -0.0764 -0.4001 -0.4085
   34TPM     C210042   4.631  10.157   2.707  0.2587 -0.2892 -0.3293
   34TPM     C310043   4.517  10.072   2.730  0.4605 -0.4344  0.1650
   34TPM     C410044   4.397  10.133   2.704  0.2792 -0.6564  0.4628
   34TPM     S110045   4.421  10.303   2.647 -0.1639 -0.6991  0.1394
   35BDD     C110046   4.106   9.877   2.771 -0.1264 -0.1946  0.2769
   35BDD     C210047   4.045   9.999   2.780 -0.1147 -0.1779  0.1413
   35BDD     C310048   4.134  10.110   2.753 -0.1601 -0.2270 -0.2087
   35BDD     C410049   4.261  10.071   2.722 -0.2058 -0.2801 -0.3349
   35BDD     S110050   4.279   9.893   2.727 -0.1949 -0.2725 -0.0244
   35BDD     C510051   3.903  10.017   2.815 -0.0612 -0.1161  0.3287
   35BDD     C610052   4.089  10.251   2.757 -0.1565 -0.2191 -0.4051
   35BDD     O110053   4.166  10.347   2.733 -0.1957 -0.2615 -0.7069
   35BDD     O210054   3.826   9.921   2.839 -0.0222 -0.0739  0.6305
   35BDD     C710055   3.947  10.269   2.792 -0.1032 -0.1574 -0.2178
   35BDD     C810056   3.858  10.158   2.820 -0.0578 -0.1082  0.1322
   35BDD     C910057   3.730  10.197   2.850 -0.0121 -0.0551  0.2585
   35BDD     S210058   3.712  10.375   2.845 -0.0228 -0.0629 -0.0521
   35BDD    C1010059   3.885  10.391   2.801 -0.0915 -0.1409 -0.3533
   35BDD    C1110060   3.918  10.535   2.768 -0.1804  0.2812 -0.8838
   35BDD    C1210061   3.876  10.585   2.639  0.8460  0.0796 -0.5762
   35BDD    C1310062   3.880  10.512   2.508 -0.3803  0.5658  1.0968
   35BDD    C1410063   4.025  10.482   2.452  1.2184 -0.7814 -0.5194
   35BDD    C1510064   4.036  10.392   2.345  0.1782  0.5369  0.0099
   35BDD    C1610065   4.174  10.365   2.391  0.2178  1.1513  0.4715
   35BDD    C1710066   3.893  10.729   2.649 -0.2899 -0.9845  0.6140
   35BDD    C1810067   4.039  10.779   2.630 -0.3358 -0.4520  0.2982
   35BDD    C1910068   3.623  10.102   2.920  0.3899 -0.0250  0.5812
   35BDD    C2010069   3.586  10.122   3.063 -0.0422  0.5535 -2.3264
   35BDD    C2110070   3.691  10.126   3.193 -1.4676 -0.6429  0.1203
   35BDD    C2210071   3.803  10.240   3.188  1.3696  0.3251 -0.0514
   35BDD    C2310072   3.915  10.255   3.283 -0.5046 -0.6601 -0.0533
   35BDD    C2410073   4.030  10.162   3.308 -0.2763  0.0084 -0.4447
   35BDD    C2510074   3.451  10.088   3.114 -0.3934 -0.6622  1.0108
   35BDD    C2610075   3.354   9.968   3.094 -0.5189  1.2192  1.6194
   36TPM     C110076   4.068   9.752   2.783  0.4346  0.4306  0.0580
   36TPM     C210077   4.131   9.690   2.886 -0.2511  0.6797  0.6386
   36TPM     C310078   4.063   9.572   2.933 -0.3743  0.5827  0.2217
   36TPM     C410079   3.948   9.544   2.865  0.2176  0.2598 -0.6768
   36TPM     S110080   3.917   9.665   2.735  0.9824  0.0511 -1.0691
   37BDTP    C110081   3.681   8.978   2.828 -0.0425  0.2751 -0.2982
   37BDTP    C210082   3.590   9.049   2.912 -0.0557  0.2289 -0.2730
   37BDTP    C310083   3.606   9.184   2.943  0.0564  0.1597 -0.0263
   37BDTP    C410084   3.717   9.251   2.888  0.1876  0.1354  0.2068
   37BDTP    C510085   3.808   9.180   2.804  0.2008  0.1817  0.1817
   37BDTP    C610086   3.791   9.046   2.773  0.0888  0.2505 -0.0650
   37BDTP    C710087   3.754   9.390   2.906  0.3185  0.0661  0.4838
   37BDTP    C810088   3.867   9.426   2.840  0.4280  0.0584  0.6654
   37BDTP    S110089   3.942   9.290   2.746  0.3806  0.1378  0.5113
   37BDTP    C910090   3.643   8.839   2.810 -0.1733  0.3443 -0.5752
   37BDTP   C1010091   3.531   8.803   2.876 -0.2828  0.3517 -0.7568
   37BDTP    S210092   3.456   8.940   2.970 -0.2354  0.2724 -0.6027
   38FTM     S110093   3.502   9.364   3.151  0.2076  0.4131 -0.8162
   38FTM     C110094   3.323   9.381   3.161  0.2167  0.1581 -0.1434
   38FTM     C210095   3.264   9.306   3.063 -0.0623 -0.1836  0.2785
   38FTM     C310096   3.353   9.234   2.977 -0.2946 -0.2663  0.1082
   38FTM     C410097   3.484   9.253   3.009 -0.1899  0.0220 -0.4624
   38FTM     F110098   3.127   9.300   3.047 -0.1239 -0.4413  0.8436
   38FTM     C510099   3.251   9.447   3.282  0.2837 -0.0059  0.8433
   38FTM     C610100   3.230   9.392   3.426 -0.5510  0.1752  0.0182
   38FTM     C710101   3.361   9.406   3.518 -0.2738 -0.1401 -0.0456
   38FTM     C810102   3.429   9.268   3.514 -1.2177 -0.2711 -0.1098
   38FTM     C910103   3.515   9.265   3.645  0.6350  0.4035 -0.3168
   38FTM    C1010104   3.502   9.123   3.696  0.8725 -0.6060 -0.1695
   38FTM    C1110105   3.097   9.437   3.492 -0.6630  0.4675 -0.7568
   38FTM    C1210106   3.081   9.346   3.620 -0.7948  0.1875  1.1219
   39FTM     S110107   4.008   8.857   2.713  0.4948  0.3910 -0.1899
   39FTM     C110108   4.019   8.813   2.539  0.6460  1.4295 -0.4569
   39FTM     C210109   3.931   8.887   2.467  0.5904  1.7476 -0.0671
   39FTM     C310110   3.852   8.981   2.541  0.4306  1.2159  0.4503
   39FTM     C410111   3.880   8.978   2.674  0.3617  0.4664  0.4570
   39FTM     F110112   3.917   8.875   2.329  0.6809  2.5389 -0.1558
   39FTM     C510113   4.124   8.721   2.514 -0.2681  0.4003  1.7463
   39FTM     C610114   4.263   8.752   2.447  0.5916  0.8895  0.4304
   39FTM     C710115   4.337   8.884   2.472  0.7213 -0.5492  1.5155
   39FTM     C810116   4.457   8.899   2.563  0.9061 -1.7370 -0.0522
   39FTM     C910117   4.493   8.809   2.662 -0.2253  0.0290 -1.3066
   39FTM    C1010118   4.454   8.838   2.806  0.3004  0.2348 -0.3490
   39FTM    C1110119   4.317   8.654   2.338  1.4024 -0.7432  0.4132
   39FTM    C1210120   4.447   8.600   2.367 -0.4089  0.2003  0.6332
   40TPM     C110121   3.485   8.658   2.888 -0.0072 -0.0043  0.9657
   40TPM     C210122   3.557   8.543   2.896 -0.0854 -0.0715  0.7275
   40TPM     C310123   3.477   8.426   2.921 -0.2205 -0.1423 -0.0187
   40TPM     C410124   3.344   8.452   2.931 -0.2454 -0.1293 -0.3494
   40TPM     S110125   3.309   8.627   2.911 -0.0988 -0.0254  0.2607
   41BDD     C110126   3.183   8.097   2.931  0.3668  0.3048  0.0483
   41BDD     C210127   3.148   8.152   2.811  0.2784  0.0727 -0.0344
   41BDD     C310128   3.198   8.288   2.794  0.0315  0.1409 -0.2172
   41BDD     C410129   3.270   8.333   2.900 -0.0647  0.4239 -0.2715
   41BDD     S110130   3.281   8.210   3.030  0.1471  0.6247 -0.0973
   41BDD     C510131   3.068   8.083   2.709  0.4176 -0.2203  0.0519
   41BDD     C610132   3.172   8.367   2.672 -0.1001 -0.0770 -0.3315
   41BDD     O110133   3.215   8.483   2.656 -0.3130 -0.0181 -0.4892
   41BDD     O210134   3.025   7.966   2.724  0.6305 -0.2791  0.2096
   41BDD     C710135   3.091   8.297   2.569  0.0392 -0.3693 -0.2453
   41BDD     C810136   3.042   8.162   2.587  0.2861 -0.4380 -0.0624
   41BDD     C910137   2.969   8.116   2.480  0.3822 -0.7210 -0.0081
   41BDD     S210138   2.959   8.240   2.350  0.1703 -0.9215 -0.1823
   41BDD    C1010139   3.056   8.353   2.449 -0.0493 -0.6015 -0.3278
   41BDD    C1110140   3.083   8.494   2.394  0.9474  0.0043 -0.4270
   41BDD    C1210141   3.161   8.510   2.266 -1.3193 -1.7103  0.6663
   41BDD    C1310142   3.326   8.507   2.286  0.3074 -1.0544 -0.0594
   41BDD    C1410143   3.397   8.374   2.275 -0.9960 -0.9105  0.7728
   41BDD    C1510144   3.473   8.371   2.144  0.5262  0.2920 -1.0000
   41BDD    C1610145   3.597   8.286   2.160  0.4532  0.0681  1.1189
   41BDD    C1710146   3.090   8.560   2.140 -0.8278  0.6704 -0.2062
   41BDD    C1810147   3.160   8.514   2.004  1.0993 -0.7260 -1.2360
   41BDD    C1910148   2.891   8.020   2.402  1.0221  0.7690 -0.3884
   41BDD    C2010149   2.741   7.947   2.451 -1.5903  0.2883  1.2926
   41BDD    C2110150   2.774   7.830   2.550  0.4980  0.5237  0.8370
   41BDD    C2210151   2.672   7.796   2.660 -0.4531 -0.4213  0.1022
   41BDD    C2310152   2.556   7.710   2.638  2.0552 -0.7249  0.4077
   41BDD    C2410153   2.589   7.568   2.639  1.0614 -0.1687 -0.1081
   41BDD    C2510154   2.618   8.038   2.460 -1.8385  0.4289 -0.2487
   41BDD    C2610155   2.586   8.121   2.573 -1.0160 -1.2618  1.3670
   42TPM     C110156   3.173   7.966   2.995 -0.2273 -0.3065  0.4277
   42TPM     C210157   3.157   7.948   3.129 -0.9077 -0.4364  0.3351
   42TPM     C310158   3.128   7.812   3.166 -0.8616 -0.5180  0.0771
   42TPM     C410159   3.122   7.726   3.060 -0.1461 -0.4502 -0.0270
   42TPM     S110160   3.153   7.811   2.904  0.5303 -0.2767  0.1945
   43BDTP    C110161   3.168   7.105   2.996 -0.1370  0.1153 -0.3594
   43BDTP    C210162   3.292   7.153   2.944  0.0442 -0.1018 -0.1327
   43BDTP    C310163   3.329   7.286   2.949  0.1900 -0.1380 -0.2271
   43BDTP    C410164   3.240   7.377   3.008  0.1560  0.0484 -0.5606
   43BDTP    C510165   3.116   7.330   3.060 -0.0252  0.2655 -0.7873
   43BDTP    C610166   3.079   7.196   3.055 -0.1711  0.3017 -0.6928
   43BDTP    C710167   3.256   7.520   3.024  0.2850  0.0522 -0.7159
   43BDTP    C810168   3.152   7.582   3.086  0.2105  0.2592 -1.0439
   43BDTP    S110169   3.019   7.467   3.131 -0.0336  0.4779 -1.2023
   43BDTP    C910170   3.152   6.962   2.979 -0.2661  0.1115 -0.2040
   43BDTP   C1010171   3.256   6.901   2.918 -0.1916 -0.0952  0.1240
   43BDTP    S210172   3.390   7.016   2.872  0.0526 -0.3142  0.2824
   44FTM     S110173   3.453   7.355   2.698 -0.0849  0.5568  0.3444
   44FTM     C110174   3.633   7.360   2.699 -0.0435 -0.2325 -0.3586
   44FTM     C210175   3.679   7.333   2.824  0.3508 -0.8883 -0.6389
   44FTM     C310176   3.580   7.307   2.924  0.6378 -0.8186 -0.3313
   44FTM     C410177   3.453   7.314   2.874  0.4574 -0.0856  0.2017
   44FTM     F110178   3.814   7.330   2.856  0.4752 -1.5907 -1.1905
   44FTM     C510179   3.683   7.387   2.553  1.0056 -0.5106  0.3163
   44FTM     C610180   3.738   7.276   2.469 -1.7446  0.2416  0.6562
   44FTM     C710181   3.874   7.241   2.540  0.3863  0.4891  1.5026
   44FTM     C810182   4.005   7.321   2.540 -1.1137  0.1109  1.1436
   44FTM     C910183   4.108   7.252   2.633  1.0195 -1.2775 -0.1223
   44FTM    C1010184   4.241   7.333   2.657  0.9947 -0.9389 -1.6745
   44FTM    C1110185   3.655   7.153   2.420  0.6046  0.1935 -0.6218
   44FTM    C1210186   3.504   7.177   2.370 -0.4214  1.0193  1.0565
   45FTM     S110187   2.796   7.129   2.973  0.3564  0.2288  0.4642
   45FTM     C110188   2.693   7.084   3.114  0.2996 -0.7084  0.1363
   45FTM     C210189   2.767   7.085   3.228  0.0126 -0.3685  0.3254
   45FTM     C310190   2.906   7.120   3.213 -0.1760  0.6175  0.7270
   45FTM     C410191   2.938   7.146   3.084 -0.0287  1.0467  0.8495
   45FTM     F110192   2.715   7.054   3.353 -0.0963 -0.9300  0.1462
   45FTM     C510193   2.545   7.064   3.103 -0.4016  0.1611  0.7611
   45FTM     C610194   2.445   7.160   3.176 -0.2232  0.7672 -0.4233
   45FTM     C710195   2.371   7.286   3.106  0.3273  1.3775 -1.5931
   45FTM     C810196   2.450   7.385   3.005  0.2907  0.3941 -0.6154
   45FTM     C910197   2.595   7.419   3.022 -0.7197  0.7158  0.4597
   45FTM    C1010198   2.636   7.463   3.162  0.7493 -0.6630 -0.1515
   45FTM    C1110199   2.406   7.139   3.321 -1.6469  0.0443 -0.9428
   45FTM    C1210200   2.301   7.037   3.376 -1.4959  0.7936  0.8062
   46TPM     C110201   3.255   6.755   2.893  0.4854  0.1607 -0.7075
   46TPM     C210202   3.354   6.678   2.840  0.2972 -0.0498 -0.7567
   46TPM     C310203   3.324   6.537   2.839  0.2844 -0.0576 -0.1057
   46TPM     C410204   3.202   6.507   2.891  0.4627  0.1471  0.4400
   46TPM     S110205   3.115   6.655   2.947  0.6623  0.3670  0.1717
   47BDD     C110206   3.148   6.138   2.766 -0.1100 -0.0171 -0.5465
   47BDD     C210207   3.045   6.162   2.853 -0.0468 -0.0055 -0.4745
   47BDD     C310208   3.046   6.297   2.908  0.0944 -0.0542 -0.3562
   47BDD     C410209   3.150   6.373   2.862  0.1369 -0.1022 -0.3400
   47BDD     S110210   3.254   6.282   2.748  0.0030 -0.0898 -0.4715
   47BDD     C510211   2.942   6.063   2.889 -0.1140  0.0508 -0.5115
   47BDD     C610212   2.944   6.345   3.003  0.1821 -0.0514 -0.2636
   47BDD     O110213   2.945   6.461   3.050  0.3039 -0.0935 -0.1617
   47BDD     O210214   2.941   5.947   2.841 -0.2358  0.0929 -0.6135
   47BDD     C710215   2.841   6.245   3.039  0.1149  0.0048 -0.3007
   47BDD     C810216   2.840   6.111   2.984 -0.0263  0.0535 -0.4189
   47BDD     C910217   2.736   6.034   3.030 -0.0688  0.1017 -0.4352
   47BDD     S210218   2.633   6.126   3.144  0.0651  0.0890 -0.3036
   47BDD    C1010219   2.738   6.269   3.125  0.1780  0.0163 -0.2285
   47BDD    C1110220   2.708   6.374   3.221 -1.7830 -0.0073  0.4783
   47BDD    C1210221   2.759   6.350   3.365 -1.1295 -0.6907  1.0206
   47BDD    C1310222   2.921   6.376   3.380  0.4066 -1.6436  0.0244
   47BDD    C1410223   2.949   6.480   3.492  0.7452  0.9895  0.2747
   47BDD    C1510224   2.893   6.625   3.506  1.0732  0.5711  0.8499
   47BDD    C1610225   2.928   6.721   3.392  1.4400  0.4891  0.2359
   47BDD    C1710226   2.700   6.227   3.453  0.0442 -0.9914  0.5901
   47BDD    C1810227   2.689   6.257   3.597 -0.4500 -0.5107  0.0529
   47BDD    C1910228   2.678   5.902   3.005 -0.9122  0.3739 -0.2541
   47BDD    C2010229   2.705   5.778   3.090  1.0001 -0.5675 -1.0780
   47BDD    C2110230   2.604   5.717   3.186 -1.1154 -0.2799 -0.2981
   47BDD    C2210231   2.632   5.782   3.321 -0.2468  0.8862 -1.3039
   47BDD    C2310232   2.744   5.722   3.410 -0.7139 -0.3647  0.1412
   47BDD    C2410233   2.885   5.733   3.369 -0.8373 -0.0706  0.9448
   47BDD    C2510234   2.742   5.656   2.993  0.4751  0.4636 -0.4856
   47BDD    C2610235   2.851   5.651   2.872  0.1976  0.4534  0.0431
   48TPM     C110236   3.213   6.020   2.716  0.9003 -0.1235  0.5281
   48TPM     C210237   3.134   5.974   2.615  0.6378  0.0696  0.6407
   48TPM     C310238   3.209   5.918   2.505  0.3755  0.6880  0.1359
   48TPM     C410239   3.344   5.922   2.522  0.4381  0.9663 -0.3617
   48TPM     S110240   3.388   5.996   2.681  0.8361  0.4654 -0.2301
   49BDTP    C110241   3.774   5.678   2.144  0.0181 -0.0951  0.0991
   49BDTP    C210242   3.851   5.741   2.246 -0.0001  0.0970 -0.0055
   49BDTP    C310243   3.794   5.809   2.352 -0.0205  0.1911 -0.0762
   49BDTP    C410244   3.653   5.814   2.359 -0.0232  0.0914 -0.0424
   49BDTP    C510245   3.576   5.751   2.257 -0.0051 -0.1007  0.0621
   49BDTP    C610246   3.634   5.684   2.150  0.0153 -0.1949  0.1327
   49BDTP    C710247   3.571   5.879   2.459 -0.0428  0.1590 -0.1013
   49BDTP    C810248   3.438   5.867   2.438 -0.0403  0.0284 -0.0470
   49BDTP    S110249   3.398   5.773   2.288 -0.0129 -0.1985  0.0866
   49BDTP    C910250   3.857   5.613   2.043  0.0376 -0.1627  0.1581
   49BDTP   C1010251   3.990   5.625   2.065  0.0351 -0.0322  0.1038
   49BDTP    S210252   4.030   5.719   2.215  0.0076  0.1945 -0.0300
   50FTM     S110253   4.069   5.869   2.444  0.4397  0.6276 -0.4038
   50FTM     C110254   4.071   6.027   2.529  0.7704  0.7891 -0.7099
   50FTM     C210255   3.944   6.065   2.560  0.9003  0.7613 -0.1335
   50FTM     C310256   3.840   5.975   2.521  0.7542  0.6164  0.5646
   50FTM     C410257   3.889   5.865   2.458  0.5041  0.5302  0.5213
   50FTM     F110258   3.915   6.183   2.627  1.1592  0.8659 -0.2037
   50FTM     C510259   4.190   6.110   2.571  1.4674 -0.1350 -0.8583
   50FTM     C610260   4.310   6.105   2.478 -0.1004  1.9279  1.2312
   50FTM     C710261   4.278   6.144   2.324  0.2595 -0.6834  0.1613
   50FTM     C810262   4.234   6.288   2.305 -1.4053 -0.4273 -0.6881
   50FTM     C910263   4.191   6.312   2.162 -0.1229 -1.5653 -0.0872
   50FTM    C1010264   4.037   6.352   2.151  0.0275 -0.3976  0.5844
   50FTM    C1110265   4.444   6.161   2.546  0.7852  0.6924  0.3734
   50FTM    C1210266   4.456   6.304   2.605 -0.2576 -0.3013 -0.0541
   51FTM     S110267   3.533   5.704   1.887  0.3568 -0.1394 -0.4161
   51FTM     C110268   3.463   5.558   1.809  0.1210 -0.1846 -0.1215
   51FTM     C210269   3.460   5.455   1.898 -0.2611  0.0616  0.1582
   51FTM     C310270   3.511   5.483   2.029 -0.3908  0.2952  0.1605
   51FTM     C410271   3.555   5.612   2.041 -0.0983  0.2251 -0.1269
   51FTM     F110272   3.411   5.330   1.866 -0.5162  0.0905  0.4289
   51FTM     C510273   3.463   5.561   1.655  0.1713 -0.3978  0.1665
   51FTM     C610274   3.410   5.441   1.571  1.0943  1.3536 -0.5744
   51FTM     C710275   3.409   5.472   1.420  1.0262  0.2143 -0.1723
   51FTM     C810276   3.401   5.349   1.315 -0.2911 -0.7347  0.6575
   51FTM     C910277   3.371   5.387   1.170 -0.3187 -1.1230  1.0414
   51FTM    C1010278   3.229   5.345   1.148  0.2862 -0.1161  0.7804
   51FTM    C1110279   3.268   5.388   1.615  0.6158  0.4328  0.3642
   51FTM    C1210280   3.154   5.491   1.626  0.1174  0.2284  0.4265
   52TPM     C110281   4.086   5.535   1.990  0.0572 -0.5774  0.2082
   52TPM     C210282   4.066   5.402   1.963 -0.0315 -0.5083 -0.0729
   52TPM     C310283   4.168   5.345   1.878 -0.4491 -0.2284 -0.7808
   52TPM     C410284   4.265   5.434   1.841 -0.6788 -0.0840 -1.0396
   52TPM     S110285   4.234   5.598   1.910 -0.3833 -0.2922 -0.4043
   53BDD     C110286   4.558   5.204   1.703  0.1722 -0.2127  0.0835
   53BDD     C210287   4.597   5.250   1.825  0.2258 -0.1575  0.0453
   53BDD     C310288   4.505   5.346   1.884  0.3984  0.0932 -0.0893
   53BDD     C410289   4.396   5.371   1.805  0.4742  0.2256 -0.1517
   53BDD     S110290   4.402   5.277   1.652  0.3341  0.0453 -0.0465
   53BDD     C510291   4.722   5.208   1.893  0.1199 -0.3328  0.1312
   53BDD     C610292   4.528   5.409   2.015  0.4821  0.1928 -0.1509
   53BDD     O110293   4.449   5.491   2.066  0.6311  0.4089 -0.2669
   53BDD     O210294   4.801   5.125   1.843 -0.0291 -0.5491  0.2472
   53BDD     C710295   4.652   5.367   2.083  0.3766  0.0169 -0.0651
   53BDD     C810296   4.745   5.271   2.025  0.2037 -0.2338  0.0695
   53BDD     C910297   4.853   5.245   2.104  0.1280 -0.3659  0.1320
   53BDD     S210298   4.848   5.340   2.257  0.2678 -0.1855  0.0267
   53BDD    C1010299   4.692   5.413   2.206  0.4300  0.0724 -0.1032
   53BDD    C1110300   4.629   5.506   2.306  1.1328  0.6909  0.2560
   53BDD    C1210301   4.712   5.623   2.365 -0.1218 -0.3739  0.7845
   53BDD    C1310302   4.843   5.671   2.313 -0.1657  0.0649  1.4566
   53BDD    C1410303   4.970   5.695   2.410  0.0606  1.5692 -1.8798
   53BDD    C1510304   4.968   5.636   2.564  0.2216  0.4379 -0.1072
   53BDD    C1610305   5.056   5.704   2.661 -0.6156  0.2540 -1.1206
   53BDD    C1710306   4.627   5.735   2.425  0.0645 -0.7902 -0.5066
   53BDD    C1810307   4.670   5.792   2.566  1.0132  0.1443  0.0292
   53BDD    C1910308   4.983   5.170   2.085 -0.0845  1.3162  0.4112
   53BDD    C2010309   5.093   5.241   2.010  1.4446 -1.4842  1.5541
   53BDD    C2110310   5.090   5.225   1.859  0.1895 -0.0011  0.8942
   53BDD    C2210311   5.125   5.081   1.792 -0.9449  0.1922  0.4497
   53BDD    C2310312   5.057   4.944   1.837  0.4166  0.4436  1.5452
   53BDD    C2410313   5.096   4.833   1.739 -1.9843  0.1806 -0.0089
   53BDD    C2510314   5.158   5.376   2.058 -0.1624  0.0055 -0.3239
   53BDD    C2610315   5.207   5.380   2.207  0.9345  0.4889  1.1156
   54TPM     C110316   4.598   5.104   1.602  0.4218 -0.1526  0.0870
   54TPM     C210317   4.697   5.143   1.516  0.8664 -0.2158  0.5664
   54TPM     C310318   4.745   5.036   1.432  0.7958 -0.1100  0.3919
   54TPM     C410319   4.682   4.917   1.453  0.2971  0.0338 -0.2203
   54TPM     S110320   4.557   4.930   1.582 -0.1253  0.0469 -0.6273
   55BDTP    C110321   4.733   4.422   1.083  0.1702  0.3940  0.2907
   55BDTP    C210322   4.714   4.361   1.210  0.4200  0.3632  0.3131
   55BDTP    C310323   4.704   4.434   1.328  0.4644  0.3446  0.3285
   55BDTP    C410324   4.712   4.574   1.319  0.2531  0.3575  0.3214
   55BDTP    C510325   4.731   4.635   1.192  0.0033  0.3885  0.2989
   55BDTP    C610326   4.741   4.562   1.075 -0.0413  0.4069  0.2836
   55BDTP    C710327   4.704   4.671   1.427  0.2520  0.3429  0.3343
   55BDTP    C810328   4.716   4.800   1.387  0.0165  0.3613  0.3228
   55BDTP    S110329   4.738   4.817   1.208 -0.2372  0.3996  0.2939
   55BDTP    C910330   4.741   4.325   0.975  0.1712  0.4085  0.2777
   55BDTP   C1010331   4.729   4.196   1.015  0.4069  0.3903  0.2893
   55BDTP    S210332   4.707   4.179   1.195  0.6603  0.3519  0.3182
   56FTM     S110333   4.553   4.414   1.577  0.1437 -0.2700  0.4608
   56FTM     C110334   4.586   4.267   1.676  0.9670 -0.3917  0.0226
   56FTM     C210335   4.689   4.196   1.622  1.0592  0.0989 -0.4542
   56FTM     C310336   4.747   4.251   1.503  0.5084  0.5876 -0.5068
   56FTM     C410337   4.686   4.367   1.465 -0.0227  0.4672 -0.0554
   56FTM     F110338   4.736   4.078   1.677  1.6478  0.1347 -0.8714
   56FTM     C510339   4.511   4.264   1.801  0.6193  0.0691 -0.4029
   56FTM     C610340   4.597   4.281   1.928  0.8694  1.5867  0.4976
   56FTM     C710341   4.554   4.399   2.015  0.4705  0.2196 -0.3131
   56FTM     C810342   4.662   4.475   2.084 -0.7253 -0.1523  0.2723
   56FTM     C910343   4.627   4.583   2.170 -0.8459 -1.2042 -0.5237
   56FTM    C1010344   4.752   4.600   2.257 -0.3681  1.7004 -0.5850
   56FTM    C1110345   4.692   4.165   1.980  0.7521 -0.2583 -0.5372
   56FTM    C1210346   4.590   4.060   2.041 -0.5360 -0.4749 -0.8102
   57FTM     S110347   4.904   4.616   0.839  0.3890 -1.1781 -0.3349
   57FTM     C110348   4.825   4.724   0.718  0.7161 -0.8245 -0.2388
   57FTM     C210349   4.702   4.761   0.762  0.7687 -0.6081 -0.2731
   57FTM     C310350   4.662   4.710   0.889  0.5627 -0.7018 -0.3738
   57FTM     C410351   4.758   4.631   0.945  0.3454 -0.9998 -0.4181
   57FTM     F110352   4.618   4.844   0.689  1.0062 -0.3122 -0.2153
   57FTM     C510353   4.905   4.736   0.604  0.3928 -0.8833 -0.5930
   57FTM     C610354   4.868   4.825   0.482  1.7383 -0.2909 -0.2997
   57FTM     C710355   4.744   4.777   0.406 -0.5240 -0.0150  1.1360
   57FTM     C810356   4.792   4.670   0.307 -0.5022  0.3488  0.6304
   57FTM     C910357   4.684   4.618   0.212 -0.3019  1.0089 -0.6689
   57FTM    C1010358   4.644   4.480   0.243 -0.1460  0.3332  1.3934
   57FTM    C1110359   4.867   4.967   0.526  1.0565  0.8088 -0.3386
   57FTM    C1210360   4.823   5.076   0.412 -1.0369 -0.3621 -0.6713
   58TPM     C110361   4.697   4.069   0.943  0.1299  0.0021  0.6932
   58TPM     C210362   4.621   4.053   0.831  0.1605  0.1297  0.6539
   58TPM     C310363   4.592   3.915   0.800  0.2290  0.1608  0.4495
   58TPM     C410364   4.646   3.827   0.888  0.2506  0.0568  0.3330
   58TPM     S110365   4.737   3.911   1.019  0.1857 -0.0897  0.4735
   59BDD     C110366   4.551   3.443   0.826 -0.3337  0.0865  0.1727
   59BDD     C210367   4.501   3.475   0.949 -0.1913  0.0539  0.2396
   59BDD     C310368   4.519   3.615   0.984 -0.0257  0.0138  0.3152
   59BDD     C410369   4.583   3.687   0.887 -0.0440  0.0162  0.3048
   59BDD     S110370   4.625   3.585   0.745 -0.2700  0.0688  0.1997
   59BDD     C510371   4.434   3.379   1.039 -0.2025  0.0587  0.2366
   59BDD     C610372   4.473   3.672   1.112  0.1450 -0.0255  0.3951
   59BDD     O110373   4.489   3.792   1.142  0.2878 -0.0601  0.4602
   59BDD     O210374   4.418   3.258   1.009 -0.3453  0.0933  0.1714
   59BDD     C710375   4.406   3.576   1.202  0.1339 -0.0207  0.3920
   59BDD     C810376   4.388   3.436   1.168 -0.0319  0.0194  0.3164
   59BDD     C910377   4.324   3.364   1.265 -0.0135  0.0171  0.3268
   59BDD     S210378   4.282   3.466   1.406  0.2126 -0.0356  0.4319
   59BDD    C1010379   4.356   3.608   1.325  0.2762 -0.0531  0.4589
   59BDD    C1110380   4.341   3.731   1.411 -0.1044 -0.9113  0.9294
   59BDD    C1210381   4.197   3.795   1.428 -1.2002 -1.0411  0.8630
   59BDD    C1310382   4.155   3.858   1.556  1.4473  0.5536  0.0525
   59BDD    C1410383   4.226   3.957   1.658 -0.5731  0.7780 -0.0463
   59BDD    C1510384   4.151   3.952   1.797 -0.0336  0.2829  0.7449
   59BDD    C1610385   4.244   3.999   1.903 -0.5725  1.0322 -0.6787
   59BDD    C1710386   4.110   3.798   1.301 -0.4907  0.5589 -1.9071
   59BDD    C1810387   4.155   3.880   1.185  0.0521 -0.0640  0.3275
   59BDD    C1910388   4.318   3.206   1.278  0.3259 -1.5913 -0.6730
   59BDD    C2010389   4.383   3.143   1.412 -0.2683 -1.0177  0.9008
   59BDD    C2110390   4.527   3.192   1.427 -0.2832  0.2398  0.2103
   59BDD    C2210391   4.599   3.130   1.560  0.5831  0.4892  0.2815
   59BDD    C2310392   4.533   3.167   1.709 -0.3790 -0.0506 -0.8578
   59BDD    C2410393   4.576   3.292   1.769  0.1254 -0.1163 -0.5555
   59BDD    C2510394   4.366   2.983   1.432  0.1466  0.0142  0.0275
   59BDD    C2610395   4.375   2.893   1.293  0.5071 -0.4277 -1.5093
   60TPM     C110396   4.556   3.320   0.737 -0.1521 -0.0860 -0.1471
   60TPM     C210397   4.523   3.192   0.770  0.0854 -0.2168 -0.4089
   60TPM     C310398   4.545   3.097   0.664  0.3256  0.0281 -0.5819
   60TPM     C410399   4.594   3.153   0.550  0.2711  0.3457 -0.4520
   60TPM     S110400   4.617   3.331   0.568 -0.0903  0.3603 -0.0984
    1BDTP    C110401   9.903   3.427   1.167 -0.0396 -0.0699 -0.3748
    1BDTP    C210402   9.767   3.462   1.194  0.0281  0.1026 -0.2561
    1BDTP    C310403   9.685   3.520   1.098  0.0472  0.2974 -0.1546
    1BDTP    C410404   9.739   3.545   0.971 -0.0029  0.3239 -0.1706
    1BDTP    C510405   9.874   3.509   0.944 -0.0708  0.1514 -0.2893
    1BDTP    C610406   9.956   3.451   1.039 -0.0901 -0.0434 -0.3908
    1BDTP    C710407   9.673   3.604   0.856  0.0050  0.5107 -0.0793
    1BDTP    C810408   9.751   3.615   0.746 -0.0532  0.4872 -0.1231
    1BDTP    S110409   9.920   3.551   0.772 -0.1259  0.2251 -0.2862
    1BDTP    C910410   9.969   3.367   1.282 -0.0474 -0.2568 -0.4661
    1BDTP   C1010411   9.890   3.357   1.392  0.0107 -0.2332 -0.4223
    1BDTP    S210412   9.722   3.421   1.366  0.0832  0.0289 -0.2592
    2FTM     S110413   9.457   3.371   1.207 -0.1925 -0.6221 -0.0369
    2FTM     C110414   9.301   3.462   1.212 -0.0410 -0.4001  0.8677
    2FTM     C210415   9.319   3.586   1.161 -0.1173 -0.3566  0.9465
    2FTM     C310416   9.451   3.618   1.115 -0.2942 -0.4903  0.3233
    2FTM     C410417   9.537   3.514   1.132 -0.3550 -0.6408 -0.2515
    2FTM     F110418   9.216   3.679   1.152 -0.0315 -0.1935  1.5876
    2FTM     C510419   9.177   3.401   1.269 -0.0710  0.6564 -0.2334
    2FTM     C610420   9.055   3.496   1.286 -0.2813 -0.5778 -0.9428
    2FTM     C710421   8.928   3.434   1.217  0.7369 -0.4933 -0.0617
    2FTM     C810422   8.801   3.517   1.186 -0.6950 -1.0891  0.7934
    2FTM     C910423   8.777   3.521   1.027 -0.1235 -0.8673  0.1331
    2FTM    C1010424   8.664   3.607   0.967  0.2554  0.2050  0.9593
    2FTM    C1110425   9.031   3.501   1.426 -0.5112  0.2014 -1.0026
    2FTM    C1210426   9.017   3.376   1.514  0.3224 -1.0229  0.8986
    3FTM     S110427  10.163   3.258   1.010  0.1911  0.2414  0.4152
    3FTM     C110428  10.321   3.319   0.946 -0.0074 -0.0706 -0.3959
    3FTM     C210429  10.310   3.451   0.916  0.0005 -0.1340 -0.6825
    3FTM     C310430  10.183   3.512   0.940  0.1578  0.0516 -0.2983
    3FTM     C410431  10.092   3.423   0.990  0.2739  0.2640  0.3023
    3FTM     F110432  10.416   3.525   0.865 -0.1342 -0.3639 -1.3100
    3FTM     C510433  10.421   3.211   0.930 -0.8894 -0.5960 -0.1113
    3FTM     C610434  10.526   3.204   0.811  0.8546 -0.6723 -0.3557
    3FTM     C710435  10.636   3.301   0.820 -0.7168  0.1611 -0.3418
    3FTM     C810436  10.713   3.324   0.955 -0.9119 -1.2326 -0.8356
    3FTM     C910437  10.814   3.212   0.998  0.1208 -0.0577 -0.3802
    3FTM    C1010438  10.788   3.119   1.126 -1.3658  0.1873  1.5466
    3FTM    C1110439  10.583   3.077   0.778 -0.5481  0.2576  0.7232
    3FTM    C1210440  10.507   2.964   0.720 -0.7916  0.9120 -0.5355
    4TPM     C110441   9.926   3.283   1.516  0.3269  0.6735  0.2313
    4TPM     C210442   9.862   3.246   1.631  0.4096  1.2770  0.4784
    4TPM     C310443   9.947   3.179   1.725  0.3510  1.2823  0.5351
    4TPM     C410444  10.076   3.164   1.683  0.2232  0.6830  0.3312
    4TPM     S110445  10.100   3.235   1.519  0.1671  0.0604  0.0495
    5BDD     C110446  10.427   3.035   1.776 -0.1305 -0.0157  0.3430
    5BDD     C210447  10.346   2.982   1.873 -0.2134  0.0303  0.2989
    5BDD     C310448  10.206   3.015   1.855 -0.1922  0.0640  0.1914
    5BDD     C410449  10.182   3.093   1.745 -0.0934  0.0434  0.1552
    5BDD     S110450  10.333   3.129   1.656 -0.0198 -0.0197  0.2531
    5BDD     C510451  10.394   2.899   1.985 -0.3154  0.0448  0.3539
    5BDD     C610452  10.100   2.969   1.948 -0.2706  0.1155  0.1286
    5BDD     O110453   9.979   2.998   1.932 -0.2522  0.1445  0.0359
    5BDD     O210454  10.515   2.871   2.000 -0.3338  0.0156  0.4465
    5BDD     C710455  10.149   2.886   2.060 -0.3722  0.1300  0.1836
    5BDD     C810456  10.289   2.853   2.078 -0.3936  0.0963  0.2911
    5BDD     C910457  10.313   2.775   2.188 -0.4926  0.1169  0.3273
    5BDD     S210458  10.162   2.739   2.277 -0.5658  0.1800  0.2294
    5BDD    C1010459  10.068   2.834   2.157 -0.4554  0.1759  0.1394
    5BDD    C1110460   9.918   2.855   2.181 -0.2695 -0.0395 -0.3357
    5BDD    C1210461   9.851   2.750   2.098  1.2573 -0.9678  1.1486
    5BDD    C1310462   9.930   2.631   2.043 -0.8488  0.4018  1.2114
    5BDD    C1410463   9.902   2.489   2.092  0.0215  0.8741 -0.9214
    5BDD    C1510464   9.930   2.384   1.992 -0.0604 -1.0155  0.3611
    5BDD    C1610465   9.863   2.257   2.031 -1.0041  1.2413 -0.1388
    5BDD    C1710466   9.695   2.754   2.123 -0.8251 -0.0829 -0.8959
    5BDD    C1810467   9.606   2.664   2.060 -1.1104 -0.2949  0.9146
    5BDD    C1910468  10.432   2.679   2.232 -0.1339  0.0577 -1.0130
    5BDD    C2010469  10.435   2.534   2.211  1.3094 -0.1358 -1.0681
    5BDD    C2110470  10.522   2.470   2.101 -0.5639 -0.1692 -0.2527
    5BDD    C2210471  10.533   2.317   2.113 -0.3590 -0.0644 -0.1827
    5BDD    C2310472  10.583   2.238   1.976  0.0133 -0.3760 -1.7288
    5BDD    C2410473  10.622   2.105   2.020 -0.0914  0.0220  0.2741
    5BDD    C2510474  10.386   2.446   2.321 -0.7407 -0.7243  0.4987
    5BDD    C2610475  10.472   2.433   2.450 -0.7144  0.3295  0.0406
    6TPM     C110476  10.562   3.032   1.740  0.4102  0.2950  0.9291
    6TPM     C210477  10.664   3.014   1.828  0.7236  0.0237  0.5141
    6TPM     C310478  10.794   3.045   1.773  0.6216 -0.5541 -0.0927
    6TPM     C410479  10.790   3.088   1.644  0.2300 -0.7232 -0.1405
    6TPM     S110480  10.622   3.092   1.580 -0.0421 -0.1616  0.5830
    7BDTP    C110481  11.316   3.327   1.398 -0.2158 -0.2189  0.0114
    7BDTP    C210482  11.226   3.438   1.390 -0.0563 -0.0540  0.4423
    7BDTP    C310483  11.093   3.429   1.429  0.0012  0.0669  0.6695
    7BDTP    C410484  11.046   3.306   1.478 -0.1032  0.0234  0.4627
    7BDTP    C510485  11.136   3.195   1.486 -0.2627 -0.1414  0.0317
    7BDTP    C610486  11.269   3.204   1.447 -0.3202 -0.2623 -0.1955
    7BDTP    C710487  10.913   3.273   1.524 -0.0706  0.1272  0.6326
    7BDTP    C810488  10.898   3.145   1.565 -0.1960  0.0494  0.3537
    7BDTP    S110489  11.051   3.048   1.552 -0.3736 -0.1664 -0.1634
    7BDTP    C910490  11.449   3.360   1.352 -0.2484 -0.3226 -0.1585
    7BDTP   C1010491  11.464   3.488   1.310 -0.1228 -0.2448  0.1203
    7BDTP    S210492  11.311   3.585   1.323  0.0545 -0.0290  0.6374
    8FTM     S110493  10.951   3.628   1.298 -0.4028  0.4231 -0.4973
    8FTM     C110494  10.878   3.759   1.398 -0.0543  0.4536 -0.2772
    8FTM     C210495  10.906   3.738   1.530  0.6361  0.6430 -0.3877
    8FTM     C310496  10.985   3.622   1.560  0.9296  0.7727 -0.6441
    8FTM     C410497  11.018   3.552   1.448  0.4479  0.6796 -0.7327
    8FTM     F110498  10.862   3.823   1.630  1.0438  0.7101 -0.2634
    8FTM     C510499  10.821   3.875   1.322  0.0927  1.4023 -0.3349
    8FTM     C610500  10.675   3.833   1.285 -0.4169 -0.8565  0.0133
    8FTM     C710501  10.571   3.870   1.389  0.4930  0.2967 -0.9020
    8FTM     C810502  10.538   4.010   1.435  0.4259 -0.2703  0.3256
    8FTM     C910503  10.636   4.122   1.472  0.1565  0.5170 -0.3567
    8FTM    C1010504  10.700   4.197   1.344  0.2982  1.3969  0.2711
    8FTM    C1110505  10.652   3.724   1.172 -0.0901 -0.2073  0.9070
    8FTM    C1210506  10.515   3.715   1.100 -1.0759 -0.5458 -0.2669
    9FTM     S110507  11.415   2.997   1.317 -0.1562 -0.4151  0.2077
    9FTM     C110508  11.516   2.888   1.420 -0.3354 -0.8096 -0.0300
    9FTM     C210509  11.502   2.922   1.551  0.2346 -0.6391 -0.0067
    9FTM     C310510  11.414   3.032   1.579  0.8311 -0.2020  0.1926
    9FTM     C410511  11.359   3.084   1.466  0.7141 -0.0321  0.3262
    9FTM     F110512  11.567   2.855   1.653  0.2503 -0.8690 -0.1644
    9FTM     C510513  11.618   2.790   1.362 -0.5954 -0.3041 -0.2017
    9FTM     C610514  11.543   2.668   1.284 -0.5846  1.1574 -0.1711
    9FTM     C710515  11.649   2.565   1.231 -1.2616 -0.1748 -0.7357
    9FTM     C810516  11.742   2.496   1.336  0.3700 -0.0973 -0.5282
    9FTM     C910517  11.869   2.435   1.303  0.0050 -0.5618  0.4863
    9FTM    C1010518  11.974   2.453   1.404  0.3769 -0.0486  0.5020
    9FTM    C1110519  11.443   2.693   1.189  1.3325 -1.0676  0.0794
    9FTM    C1210520  11.325   2.602   1.223  2.3898  0.6714  0.5618
   10TPM     C110521  11.586   3.559   1.251 -0.0019 -1.0923 -0.3605
   10TPM     C210522  11.594   3.682   1.194  0.0272 -0.5341  0.7857
   10TPM     C310523  11.726   3.716   1.148  0.1650  0.1330  1.6353
   10TPM     C410524  11.819   3.619   1.171  0.2411  0.0834  1.1370
   10TPM     S110525  11.746   3.475   1.253  0.1438 -0.8168 -0.4564
   11BDD     C110526  12.181   3.752   1.146  0.1980  0.0243  0.2113
   11BDD     C210527  12.173   3.653   1.053  0.1059  0.0212  0.2224
   11BDD     C310528  12.045   3.585   1.052  0.0903  0.0488  0.3230
   11BDD     C410529  11.957   3.634   1.145  0.1709  0.0724  0.3870
   11BDD     S110530  12.029   3.767   1.240  0.2718  0.0618  0.3259
   11BDD     C510531  12.283   3.617   0.961  0.0287 -0.0071  0.1411
   11BDD     C610532  12.014   3.475   0.959 -0.0039  0.0505  0.3519
   11BDD     O110533  11.903   3.416   0.958 -0.0173  0.0742  0.4386
   11BDD     O210534  12.394   3.675   0.962  0.0421 -0.0308  0.0544
   11BDD     C710535  12.123   3.438   0.866 -0.0811  0.0222  0.2706
   11BDD     C810536  12.252   3.506   0.868 -0.0656 -0.0052  0.1700
   11BDD     C910537  12.340   3.458   0.775 -0.1462 -0.0289  0.1060
   11BDD     S210538  12.268   3.324   0.679 -0.2471 -0.0184  0.1672
   11BDD    C1010539  12.115   3.339   0.773 -0.1733  0.0191  0.2818
   11BDD    C1110540  12.003   3.249   0.744  1.2329  1.5255  0.9113
   11BDD    C1210541  12.002   3.109   0.790  0.2991  0.8293 -0.0359
   11BDD    C1310542  12.018   2.991   0.688  0.6109 -0.1818 -0.1012
   11BDD    C1410543  12.053   2.844   0.706  0.0861  0.5636  0.4321
   11BDD    C1510544  12.178   2.800   0.792 -0.3773 -0.3272 -0.1996
   11BDD    C1610545  12.178   2.660   0.836  0.0491  0.3783  0.4349
   11BDD    C1710546  11.942   3.080   0.934 -0.4375 -1.4447 -0.8960
   11BDD    C1810547  11.797   3.063   0.934 -1.4281 -0.0291 -0.3666
   11BDD    C1910548  12.486   3.495   0.744  0.2657  0.6076  1.2903
   11BDD    C2010549  12.596   3.408   0.800  0.7475  0.6900  0.2597
   11BDD    C2110550  12.628   3.413   0.948 -0.3327 -0.0178 -0.2288
   11BDD    C2210551  12.563   3.307   1.049  0.7834  0.0526 -1.1751
   11BDD    C2310552  12.540   3.344   1.195 -0.2337 -0.1116  0.2251
   11BDD    C2410553  12.571   3.490   1.224  0.9392  0.1632  0.6635
   11BDD    C2510554  12.618   3.266   0.736 -0.8102  0.4231  0.6743
   11BDD    C2610555  12.648   3.296   0.586  0.0940 -0.0230 -0.1973
   12TPM     C110556  12.292   3.831   1.211  0.6822  0.0463  0.4203
   12TPM     C210557  12.271   3.880   1.337  1.0232 -0.6198  0.7521
   12TPM     C310558  12.372   3.973   1.380  1.0381 -0.7008  0.8922
   12TPM     C410559  12.471   3.994   1.287  0.7085 -0.0964  0.6672
   12TPM     S110560  12.442   3.898   1.138  0.3509  0.6276  0.2578
   13BDTP    C110561  13.069   4.089   1.461  0.3453 -0.5345 -0.0118
   13BDTP    C210562  12.996   4.172   1.551  0.1593 -0.6199 -0.0830
   13BDTP    C310563  12.857   4.183   1.547  0.1503 -0.7734 -0.2261
   13BDTP    C410564  12.787   4.108   1.450  0.3332 -0.8465 -0.3026
   13BDTP    C510565  12.860   4.025   1.360  0.5191 -0.7610 -0.2314
   13BDTP    C610566  12.999   4.015   1.364  0.5281 -0.6076 -0.0884
   13BDTP    C710567  12.644   4.104   1.427  0.3617 -1.0043 -0.4514
   13BDTP    C810568  12.607   4.022   1.326  0.5575 -1.0412 -0.4947
   13BDTP    S110569  12.748   3.940   1.245  0.7334 -0.8811 -0.3533
   13BDTP    C910570  13.212   4.094   1.484  0.3167 -0.3767  0.1369
   13BDTP   C1010571  13.249   4.175   1.585  0.1208 -0.3399  0.1802
   13BDTP    S210572  13.108   4.258   1.666 -0.0551 -0.5000  0.0388
   14FTM     S110573  12.783   4.221   1.840  0.0033 -0.1709  0.1771
   14FTM     C110574  12.635   4.321   1.861  0.1419  0.0161  0.2731
   14FTM     C210575  12.593   4.368   1.741 -0.1647 -0.3510  0.2296
   14FTM     C310576  12.673   4.331   1.627 -0.5177 -0.7898  0.1215
   14FTM     C410577  12.778   4.252   1.662 -0.4800 -0.7573  0.0810
   14FTM     F110578  12.481   4.448   1.726 -0.1440 -0.3117  0.2850
   14FTM     C510579  12.565   4.336   1.989  0.5293  0.7423 -0.0143
   14FTM     C610580  12.497   4.215   2.051  0.0166  0.6062  0.6726
   14FTM     C710581  12.349   4.204   2.021  0.5829 -1.1288  0.3404
   14FTM     C810582  12.257   4.320   2.084  0.5029 -0.7954 -0.7686
   14FTM     C910583  12.179   4.286   2.203  0.6477 -0.3747  0.0542
   14FTM    C1010584  12.262   4.306   2.324 -1.0124 -0.7140 -0.9372
   14FTM    C1110585  12.588   4.115   2.149 -0.3296 -1.7347  0.2396
   14FTM    C1210586  12.665   4.185   2.260  0.3833 -0.7913 -0.8635
   15FTM     S110587  13.016   3.813   1.147 -0.1335 -0.0351 -0.1232
   15FTM     C110588  13.149   3.847   1.030 -0.6337  0.7705 -0.4801
   15FTM     C210589  13.229   3.945   1.078 -0.5363  0.5704 -0.2313
   15FTM     C310590  13.193   3.999   1.206 -0.0779 -0.2028  0.2406
   15FTM     C410591  13.082   3.940   1.257  0.1843 -0.6080  0.3570
   15FTM     F110592  13.340   3.992   1.010 -0.8565  1.0757 -0.4161
   15FTM     C510593  13.189   3.758   0.926  0.7506 -0.5388  0.3524
   15FTM     C610594  13.095   3.692   0.830  0.3823  0.2154  0.1725
   15FTM     C710595  13.158   3.581   0.752 -0.3489  0.7086  0.5136
   15FTM     C810596  13.142   3.432   0.753  0.1994 -0.7951  0.7465
   15FTM     C910597  13.015   3.390   0.673  1.1534  0.8123  0.7202
   15FTM    C1010598  13.004   3.247   0.681  0.7978  0.1374  0.5345
   15FTM    C1110599  12.990   3.769   0.775  1.1663 -1.2479  1.6231
   15FTM    C1210600  13.008   3.862   0.644 -0.8506 -0.7110 -1.1559
   16TPM     C110601  13.381   4.233   1.622  0.3756  0.0750  0.7045
   16TPM     C210602  13.437   4.256   1.745  1.0169  0.0730  0.4210
   16TPM     C310603  13.579   4.278   1.741  1.0067  0.0470 -0.3178
   16TPM     C410604  13.632   4.272   1.615  0.3576  0.0290 -0.5976
   16TPM     S110605  13.505   4.238   1.491 -0.2962  0.0438  0.0554
   17BDD     C110606  14.000   4.398   1.596 -0.5617 -0.2401  0.6650
   17BDD     C210607  14.004   4.271   1.546 -0.4299 -0.1898  0.5453
   17BDD     C310608  13.874   4.206   1.545 -0.3958 -0.2565  0.3112
   17BDD     C410609  13.774   4.284   1.595 -0.5022 -0.3566  0.2559
   17BDD     S110610  13.835   4.445   1.646 -0.6522 -0.3746  0.4929
   17BDD     C510611  14.126   4.205   1.496 -0.3305 -0.0786  0.6417
   17BDD     C610612  13.854   4.069   1.495 -0.2590 -0.2183  0.1510
   17BDD     O110613  13.742   4.012   1.494 -0.2296 -0.2759 -0.0508
   17BDD     O210614  14.238   4.261   1.497 -0.3600 -0.0210  0.8435
   17BDD     C710615  13.977   4.002   1.445 -0.1597 -0.1070  0.2474
   17BDD     C810616  14.107   4.067   1.446 -0.1938 -0.0403  0.4815
   17BDD     C910617  14.207   3.989   1.396 -0.0875  0.0599  0.5368
   17BDD     S210618  14.146   3.828   1.345  0.0625  0.0777  0.2998
   17BDD    C1010619  13.980   3.875   1.395 -0.0279 -0.0567  0.1277
   17BDD    C1110620  13.889   3.776   1.351 -0.5855  0.1908  1.1208
   17BDD    C1210621  13.934   3.634   1.376 -0.0769  0.5536 -0.3459
   17BDD    C1310622  13.832   3.539   1.308 -1.0581 -0.0113 -0.1946
   17BDD    C1410623  13.804   3.522   1.164  1.4726 -0.5127 -1.1332
   17BDD    C1510624  13.932   3.522   1.089  0.2521 -0.1451  0.2264
   17BDD    C1610625  14.037   3.412   1.100  0.9278  0.3079  0.5839
   17BDD    C1710626  13.951   3.610   1.529 -1.0978 -0.8667  0.0011
   17BDD    C1810627  14.040   3.503   1.602  1.1856  1.1211  0.6256
   17BDD    C1910628  14.352   3.982   1.395  0.7044 -0.5196 -1.1103
   17BDD    C2010629  14.427   4.071   1.296 -0.4215 -1.0000  0.2907
   17BDD    C2110630  14.404   4.071   1.139  0.0163  0.9479 -0.6268
   17BDD    C2210631  14.435   3.924   1.083 -0.2780 -0.7683  1.2876
   17BDD    C2310632  14.328   3.855   1.003  0.6887  0.0447  1.6524
   17BDD    C2410633  14.358   3.707   0.996  0.3585 -0.6513 -1.1142
   17BDD    C2510634  14.583   4.071   1.297 -0.1283  0.4441  0.9520
   17BDD    C2610635  14.651   4.069   1.439 -0.5595 -1.4628  0.0309
   18TPM     C110636  14.100   4.503   1.619  0.6648 -0.4729  0.0012
   18TPM     C210637  14.091   4.571   1.737 -0.0075 -0.3043 -0.1430
   18TPM     C310638  14.197   4.667   1.757 -0.4873  0.2056  0.0296
   18TPM     C410639  14.288   4.670   1.655 -0.1809  0.4262  0.3054
   18TPM     S110640  14.245   4.553   1.525  0.7447  0.0033  0.3690
   19BDTP    C110641  14.832   4.973   1.680  0.2102 -0.5705  0.3199
   19BDTP    C210642  14.842   4.908   1.554  0.0643 -0.1639  0.0941
   19BDTP    C310643  14.743   4.824   1.506  0.0026  0.0021 -0.0693
   19BDTP    C410644  14.629   4.803   1.585  0.0885 -0.2435 -0.0076
   19BDTP    C510645  14.619   4.868   1.711  0.2342 -0.6502  0.2182
   19BDTP    C610646  14.718   4.952   1.760  0.2960 -0.8163  0.3816
   19BDTP    C710647  14.513   4.721   1.556  0.0482 -0.1384 -0.1473
   19BDTP    C810648  14.418   4.721   1.653  0.1554 -0.4424 -0.0389
   19BDTP    S110649  14.462   4.826   1.795  0.3223 -0.9047  0.2556
   19BDTP    C910650  14.948   5.055   1.710  0.2503 -0.6757  0.4597
   19BDTP   C1010651  15.043   5.055   1.613  0.1432 -0.3717  0.3513
   19BDTP    S210652  14.999   4.950   1.471 -0.0237  0.0907  0.0567
   20FTM     S110653  14.941   4.638   1.417  0.2525  0.4000  0.4033
   20FTM     C110654  14.911   4.564   1.255  0.8615 -0.0244  0.4802
   20FTM     C210655  14.792   4.607   1.206  0.7823 -0.5928  0.1648
   20FTM     C310656  14.718   4.697   1.289  0.2561 -0.7299 -0.1482
   20FTM     C410657  14.782   4.724   1.406 -0.0787 -0.2506 -0.0700
   20FTM     F110658  14.743   4.566   1.083  1.1817 -1.0232  0.1409
   20FTM     C510659  15.002   4.449   1.221 -0.4137  0.2425 -0.6195
   20FTM     C610660  15.155   4.476   1.237 -0.3651  0.0886  0.6552
   20FTM     C710661  15.262   4.397   1.320 -0.6934 -0.5956 -0.0705
   20FTM     C810662  15.241   4.362   1.467 -0.4685 -0.4799  0.5071
   20FTM     C910663  15.372   4.336   1.535  0.1967 -0.3038  0.9283
   20FTM    C1010664  15.327   4.226   1.625 -0.2278  0.1014 -1.0189
   20FTM    C1110665  15.177   4.597   1.148 -1.4974  0.6633  0.6444
   20FTM    C1210666  15.288   4.682   1.194  0.2521  0.3279 -0.3123
   21FTM     S110667  14.575   5.159   1.892 -0.4317 -0.4109  0.6776
   21FTM     C110668  14.628   5.197   2.060 -0.5631 -0.8526  0.8217
   21FTM     C210669  14.730   5.114   2.097 -0.1041 -0.4832  0.4165
   21FTM     C310670  14.771   5.018   1.999  0.3662  0.1507 -0.0201
   21FTM     C410671  14.700   5.028   1.883  0.2641  0.2704  0.0531
   21FTM     F110672  14.791   5.120   2.221 -0.0827 -0.6967  0.4169
   21FTM     C510673  14.572   5.307   2.150  1.0709  0.3335 -1.2357
   21FTM     C610674  14.567   5.302   2.311 -0.1172  0.4219  0.3153
   21FTM     C710675  14.453   5.219   2.375 -0.6431  0.0240  0.1312
   21FTM     C810676  14.454   5.065   2.358 -0.0034  0.2553 -0.2124
   21FTM     C910677  14.303   5.014   2.365  0.1316  0.4419  1.3599
   21FTM    C1010678  14.213   5.059   2.470  0.9781 -0.1897 -0.0243
   21FTM    C1110679  14.610   5.421   2.385  0.1608  0.5821 -0.0875
   21FTM    C1210680  14.541   5.553   2.351 -0.3362 -0.5826  0.6071
   22TPM     C110681  15.140   5.148   1.593  0.8829 -0.0907  1.4103
   22TPM     C210682  15.264   5.128   1.540  0.8830 -0.0179  1.3824
   22TPM     C310683  15.339   5.249   1.519  0.4019  0.1247  0.3707
   22TPM     C410684  15.272   5.362   1.556  0.0350  0.1607 -0.3728
   22TPM     S110685  15.108   5.324   1.620  0.2703  0.0162  0.1511
   23BDD     C110686  15.362   5.730   1.671 -0.0269  0.1123 -0.2131
   23BDD     C210687  15.469   5.693   1.594  0.0538  0.0249 -0.0594
   23BDD     C310688  15.455   5.560   1.537  0.1754 -0.0960  0.1863
   23BDD     C410689  15.338   5.498   1.570  0.1857 -0.0995  0.2163
   23BDD     S110690  15.237   5.602   1.676  0.0439  0.0486 -0.0609
   23BDD     C510691  15.588   5.777   1.571  0.0219  0.0498 -0.1327
   23BDD     C610692  15.558   5.499   1.450  0.2769 -0.2040  0.3824
   23BDD     O110693  15.546   5.385   1.401  0.3818 -0.3083  0.5943
   23BDD     O210694  15.600   5.891   1.621 -0.0830  0.1543 -0.3445
   23BDD     C710695  15.677   5.584   1.427  0.2450 -0.1792  0.3091
   23BDD     C810696  15.692   5.716   1.485  0.1234 -0.0582  0.0635
   23BDD     C910697  15.809   5.778   1.451  0.1130 -0.0546  0.0335
   23BDD     S210698  15.910   5.674   1.345  0.2549 -0.2028  0.3107
   23BDD    C1010699  15.784   5.546   1.350  0.3258 -0.2663  0.4629
   23BDD    C1110700  15.839   5.420   1.285  1.4504  0.0006 -2.5812
   23BDD    C1210701  15.800   5.373   1.142 -0.8377 -0.0923  0.8451
   23BDD    C1310702  15.662   5.322   1.109 -0.6166  0.1950 -0.9081
   23BDD    C1410703  15.624   5.176   1.156  1.0346  0.6895  0.3216
   23BDD    C1510704  15.487   5.125   1.103 -0.7750 -0.2658 -0.8219
   23BDD    C1610705  15.355   5.193   1.152  0.1616 -0.0627 -0.5553
   23BDD    C1710706  15.834   5.462   1.015 -0.6808  0.1177  0.1850
   23BDD    C1810707  15.982   5.480   0.993 -0.2509  1.2968 -1.1965
   23BDD    C1910708  15.864   5.918   1.462 -0.0650 -0.7054 -0.0708
   23BDD    C2010709  15.778   6.055   1.440  2.1716  1.2330 -0.6350
   23BDD    C2110710  15.717   6.036   1.300 -0.5616 -0.2817  0.6018
   23BDD    C2210711  15.605   6.116   1.231 -0.3648  0.0710 -0.1905
   23BDD    C2310712  15.474   6.114   1.302 -0.0824 -0.6566 -0.4769
   23BDD    C2410713  15.395   5.996   1.290  0.8167 -2.2592 -0.2945
   23BDD    C2510714  15.839   6.180   1.473 -0.5924  0.9658 -0.8449
   23BDD    C2610715  15.745   6.298   1.485  0.2324 -2.3865 -0.0296
   24TPM     C110716  15.326   5.860   1.726 -0.3993 -0.7953 -0.3941
   24TPM     C210717  15.392   5.907   1.836  0.1023 -1.1975 -0.5141
   24TPM     C310718  15.310   5.987   1.923  0.7613 -0.6496 -0.3780
   24TPM     C410719  15.181   6.001   1.879  0.7622  0.1704 -0.1542
   24TPM     S110720  15.154   5.913   1.724 -0.0758  0.3152 -0.0976
   25BDTP    C110721  14.754   6.256   2.260 -0.0201  0.3426 -0.1456
   25BDTP    C210722  14.672   6.196   2.160 -0.0323  0.1897 -0.0442
   25BDTP    C310723  14.724   6.133   2.048 -0.0496  0.1324 -0.0204
   25BDTP    C410724  14.864   6.129   2.033 -0.0551  0.2307 -0.1003
   25BDTP    C510725  14.946   6.189   2.133 -0.0429  0.3836 -0.2017
   25BDTP    C610726  14.894   6.252   2.246 -0.0257  0.4407 -0.2255
   25BDTP    C710727  14.941   6.070   1.926 -0.0723  0.1974 -0.0943
   25BDTP    C810728  15.075   6.083   1.940 -0.0736  0.3163 -0.1851
   25BDTP    S110729  15.123   6.171   2.091 -0.0532  0.4872 -0.2910
   25BDTP    C910730  14.677   6.315   2.368 -0.0029  0.3759 -0.1516
   25BDTP   C1010731  14.543   6.302   2.354 -0.0017  0.2570 -0.0609
   25BDTP    S210732  14.495   6.214   2.202 -0.0220  0.0860  0.0450
   26FTM     S110733  14.673   5.952   1.834 -0.1876 -0.2480  0.2471
   26FTM     C110734  14.512   5.956   1.755 -0.8657 -1.0309  1.5159
   26FTM     C210735  14.433   6.050   1.814 -0.1791 -0.0685  0.9647
   26FTM     C310736  14.492   6.122   1.923  0.8901  1.3032 -0.4437
   26FTM     C410737  14.620   6.083   1.947  1.0270  1.3941 -0.9888
   26FTM     F110738  14.303   6.075   1.774 -0.4783 -0.3725  1.7029
   26FTM     C510739  14.509   5.902   1.618 -0.6951 -0.4340 -0.8027
   26FTM     C610740  14.393   5.942   1.527  1.6452  0.5301  0.8956
   26FTM     C710741  14.368   5.827   1.434  1.1246  0.3772 -0.0850
   26FTM     C810742  14.253   5.731   1.501 -1.0717  0.2662 -0.0272
   26FTM     C910743  14.106   5.797   1.501 -0.8955 -0.1489  1.0602
   26FTM    C1010744  14.015   5.692   1.567  0.3152 -0.0741  0.4822
   26FTM    C1110745  14.411   6.065   1.452  0.5601  0.6326  0.5499
   26FTM    C1210746  14.312   6.134   1.357  0.9542  0.7657  0.8644
   27FTM     S110747  15.090   6.461   2.258  0.0589 -0.0161  0.3570
   27FTM     C110748  15.143   6.511   2.423  0.1979 -0.4748  0.4538
   27FTM     C210749  15.080   6.435   2.517  0.5507 -0.9832  0.2878
   27FTM     C310750  14.989   6.336   2.467  0.7300 -1.0458  0.0801
   27FTM     C410751  14.982   6.336   2.331  0.5073 -0.5695  0.0873
   27FTM     F110752  15.101   6.451   2.653  0.7321 -1.4224  0.3139
   27FTM     C510753  15.219   6.640   2.453 -1.1001 -0.1408 -1.2760
   27FTM     C610754  15.218   6.703   2.590  0.5656 -0.8527 -1.3813
   27FTM     C710755  15.320   6.818   2.601  0.1951 -0.7319  0.1574
   27FTM     C810756  15.466   6.807   2.564 -0.7218  0.6698 -0.6217
   27FTM     C910757  15.562   6.890   2.651 -0.3643  0.7409  0.5652
   27FTM    C1010758  15.703   6.866   2.600 -0.1517  0.2901 -1.3124
   27FTM    C1110759  15.060   6.720   2.656 -1.4962 -0.9345 -0.4497
   27FTM    C1210760  14.961   6.823   2.586 -0.6455  0.5806  1.2635
   28TPM     C110761  14.429   6.332   2.435 -0.2294 -1.0204  0.5118
   28TPM     C210762  14.328   6.243   2.460 -0.2285 -0.8423  1.2063
   28TPM     C310763  14.225   6.295   2.546  0.0015 -0.3332  1.1821
   28TPM     C410764  14.247   6.423   2.587  0.1760 -0.1235  0.4692
   28TPM     S110765  14.402   6.488   2.520  0.0625 -0.5558 -0.2324
   29BDD     C110766  13.964   6.530   2.829  0.6124  0.0120  0.2668
   29BDD     C210767  14.003   6.646   2.768  0.4424  0.0544  0.2376
   29BDD     C310768  14.108   6.626   2.669  0.1500  0.1177 -0.0892
   29BDD     C410769  14.147   6.496   2.657  0.1013  0.1225 -0.3045
   29BDD     S110770  14.056   6.388   2.768  0.4182  0.0483 -0.1128
   29BDD     C510771  13.946   6.778   2.797  0.5425  0.0385  0.5091
   29BDD     C610772  14.165   6.737   2.591 -0.0705  0.1712 -0.1760
   29BDD     O110773  14.256   6.720   2.505 -0.3226  0.2258 -0.4578
   29BDD     O210774  13.856   6.795   2.883  0.7946 -0.0161  0.7910
   29BDD     C710775  14.108   6.870   2.620  0.0297  0.1550  0.0955
   29BDD     C810776  14.003   6.890   2.719  0.3221  0.0918  0.4223
   29BDD     C910777  13.964   7.020   2.731  0.3708  0.0869  0.6376
   29BDD     S210778  14.055   7.127   2.620  0.0539  0.1611  0.4459
   29BDD    C1010779  14.147   6.986   2.559 -0.1403  0.1975  0.0663
   29BDD    C1110780  14.265   7.017   2.465  0.5427 -0.6426  0.7635
   29BDD    C1210781  14.341   7.158   2.481  0.1181 -0.1603  0.0906
   29BDD    C1310782  14.381   7.214   2.626  0.3855 -0.7856  0.4970
   29BDD    C1410783  14.447   7.356   2.634  0.1974  0.5803 -0.3868
   29BDD    C1510784  14.501   7.437   2.531 -0.8566 -1.0640  0.5903
   29BDD    C1610785  14.569   7.563   2.587 -0.7363 -0.4704  0.4230
   29BDD    C1710786  14.450   7.158   2.372  0.0348  0.5618  0.0205
   29BDD    C1810787  14.568   7.056   2.384 -0.3117 -0.1199  0.4002
   29BDD    C1910788  13.850   7.096   2.809 -0.6882 -0.3681 -0.4901
   29BDD    C2010789  13.712   7.127   2.754 -0.3978 -0.7081 -0.0406
   29BDD    C2110790  13.696   7.249   2.675 -0.4218 -0.0645  0.4657
   29BDD    C2210791  13.575   7.354   2.647 -0.3484  0.2188 -0.1947
   29BDD    C2310792  13.436   7.340   2.701 -1.0326  0.1740  0.0646
   29BDD    C2410793  13.393   7.398   2.829  0.3704 -0.6399 -0.3609
   29BDD    C2510794  13.597   7.026   2.765 -1.4583  1.1155 -0.4314
   29BDD    C2610795  13.581   6.942   2.882 -0.8325  1.1940 -0.3811
   30TPM     C110796  13.861   6.491   2.925 -0.4899 -0.0686 -0.0731
   30TPM     C210797  13.859   6.558   3.044 -0.9119 -0.0252 -0.1027
   30TPM     C310798  13.785   6.489   3.147 -0.7038 -0.3198 -0.1479
   30TPM     C410799  13.731   6.370   3.106 -0.1232 -0.5880 -0.1530
   30TPM     S110800  13.770   6.336   2.934  0.2085 -0.4886 -0.1003
   31BDTP    C110801  13.458   5.946   3.481 -0.2231  0.1664  0.0300
   31BDTP    C210802  13.489   5.870   3.364 -0.1022  0.0273  0.1519
   31BDTP    C310803  13.546   5.926   3.251  0.0510 -0.1153  0.1588
   31BDTP    C410804  13.575   6.064   3.253  0.0870 -0.1214  0.0399
   31BDTP    C510805  13.545   6.140   3.369 -0.0338  0.0178 -0.0821
   31BDTP    C610806  13.487   6.084   3.482 -0.1870  0.1604 -0.0890
   31BDTP    C710807  13.635   6.144   3.148  0.2371 -0.2553  0.0224
   31BDTP    C810808  13.650   6.274   3.179  0.2347 -0.2240 -0.1053
   31BDTP    S110809  13.591   6.315   3.346  0.0422 -0.0204 -0.2213
   31BDTP    C910810  13.398   5.866   3.586 -0.3731  0.3004  0.0475
   31BDTP   C1010811  13.383   5.735   3.554 -0.3708  0.2691  0.1752
   31BDTP    S210812  13.442   5.695   3.387 -0.1782  0.0655  0.2911
   32FTM     S110813  13.646   5.678   3.123  0.0338 -0.1736 -0.3801
   32FTM     C110814  13.577   5.647   2.959  0.0755 -0.5303 -0.3299
   32FTM     C210815  13.498   5.751   2.921  0.4676 -0.3887 -0.7786
   32FTM     C310816  13.486   5.859   3.015  0.7526 -0.0033 -1.1793
   32FTM     C410817  13.559   5.837   3.128  0.5728  0.1553 -1.0324
   32FTM     F110818  13.432   5.754   2.799  0.5918 -0.5997 -0.8535
   32FTM     C510819  13.612   5.531   2.879  0.9001  0.7772  0.3128
   32FTM     C610820  13.754   5.517   2.820 -0.2232 -0.8253 -0.6202
   32FTM     C710821  13.773   5.391   2.747 -0.5120  0.3756 -0.7164
   32FTM     C810822  13.765   5.262   2.830  2.2640  1.1827  0.0258
   32FTM     C910823  13.642   5.197   2.890 -0.3364  0.6393  0.2647
   32FTM    C1010824  13.654   5.033   2.904 -0.6574  1.5871 -0.4589
   32FTM    C1110825  13.790   5.634   2.732  0.0396  1.4218  1.7731
   32FTM    C1210826  13.930   5.669   2.698  0.7832  0.0402  0.8505
   33FTM     S110827  13.636   6.227   3.682  0.2204 -0.0014 -0.2503
   33FTM     C110828  13.543   6.297   3.819 -0.1913  0.2326 -0.6398
   33FTM     C210829  13.413   6.260   3.811 -0.1537  0.1575 -0.9238
   33FTM     C310830  13.377   6.177   3.700  0.1893 -0.0812 -0.8575
   33FTM     C410831  13.484   6.149   3.620  0.4219 -0.1920 -0.5113
   33FTM     F110832  13.317   6.299   3.904 -0.4276  0.2998 -1.2608
   33FTM     C510833  13.608   6.386   3.925 -0.0889 -0.5921 -0.9957
   33FTM     C610834  13.732   6.470   3.870 -0.1283 -0.1539 -0.4950
   33FTM     C710835  13.831   6.537   3.977  0.2624  0.7413 -0.2937
   33FTM     C810836  13.790   6.640   4.078  0.1440  0.1326 -1.2559
   33FTM     C910837  13.903   6.720   4.151 -0.0107 -1.3652  0.5462
   33FTM    C1010838  13.892   6.869   4.101  0.9666 -0.1179 -0.7663
   33FTM    C1110839  13.705   6.586   3.764  0.2798 -0.1102 -0.7904
   33FTM    C1210840  13.578   6.686   3.793 -0.1942  0.6301 -0.0090
   34TPM     C110841  13.314   5.629   3.632  0.1300 -0.9023  0.6013
   34TPM     C210842  13.371   5.514   3.678 -0.4398 -1.1164  0.7961
   34TPM     C310843  13.290   5.442   3.772 -0.9617 -0.7502  0.6348
   34TPM     C410844  13.170   5.502   3.799 -0.7898 -0.2565  0.3169
   34TPM     S110845  13.151   5.655   3.706  0.0511 -0.2160  0.1958
   35BDD     C110846  12.868   5.481   4.044 -0.1666 -0.2144  0.2812
   35BDD     C210847  12.919   5.355   4.042 -0.1009 -0.1873  0.2141
   35BDD     C310848  13.040   5.342   3.963  0.0666 -0.0215  0.4416
   35BDD     C410849  13.079   5.460   3.905  0.1264  0.0754  0.6788
   35BDD     S110850  12.968   5.594   3.946 -0.0231 -0.0343  0.6337
   35BDD     C510851  12.858   5.240   4.113 -0.1899 -0.3127 -0.0614
   35BDD     C610852  13.112   5.214   3.947  0.1614  0.0348  0.4153
   35BDD     O110853  13.216   5.203   3.878  0.3059  0.1777  0.6114
   35BDD     O210854  12.753   5.251   4.181 -0.3344 -0.4557 -0.2575
   35BDD     C710855  13.051   5.100   4.018  0.0724 -0.0906  0.1396
   35BDD     C810856  12.930   5.112   4.097 -0.0951 -0.2564 -0.0877
   35BDD     C910857  12.890   4.994   4.154 -0.1549 -0.3532 -0.3247
   35BDD     S210858  13.002   4.860   4.113 -0.0054 -0.2437 -0.2799
   35BDD    C1010859  13.102   4.973   4.016  0.1381 -0.0634  0.0726
   35BDD    C1110860  13.219   4.899   3.954 -0.7100  0.3588  0.3740
   35BDD    C1210861  13.311   4.795   4.015 -0.6695 -0.4191 -0.2300
   35BDD    C1310862  13.257   4.660   3.953 -0.8985 -0.2365  0.0692
   35BDD    C1410863  13.297   4.649   3.806 -0.1224 -0.4957  0.1191
   35BDD    C1510864  13.203   4.533   3.754 -0.4132 -0.2765  1.3026
   35BDD    C1610865  13.190   4.526   3.600 -0.4324  0.7980 -0.9514
   35BDD    C1710866  13.309   4.800   4.176 -0.4328 -0.7958 -0.6872
   35BDD    C1810867  13.440   4.738   4.239  0.1516  0.5946  0.4047
   35BDD    C1910868  12.780   4.966   4.252  0.5775 -0.4033 -0.4252
   35BDD    C2010869  12.820   4.888   4.376 -0.2625  0.2280 -0.3994
   35BDD    C2110870  12.949   4.936   4.455  0.2253 -0.3280  0.5402
   35BDD    C2210871  12.964   4.921   4.607 -0.6083 -0.4969  0.1266
   35BDD    C2310872  12.868   4.939   4.716  1.3677 -0.5436 -0.2797
   35BDD    C2410873  12.737   4.868   4.704 -0.3406  1.1205  1.3693
   35BDD    C2510874  12.775   4.742   4.368  1.2877 -0.2099  0.2342
   35BDD    C2610875  12.851   4.638   4.446  0.5326  0.3175 -0.8079
   36TPM     C110876  12.742   5.561   4.099  0.2649  0.6334  0.1295
   36TPM     C210877  12.654   5.520   4.195  0.9162  0.7578  0.7993
   36TPM     C310878  12.544   5.612   4.216  0.7410  0.5044  1.0039
   36TPM     C410879  12.549   5.722   4.136 -0.0438  0.1868  0.4901
   36TPM     S110880  12.693   5.720   4.028 -0.6271  0.1832 -0.2982
   37BDTP    C110881  12.298   6.291   4.225 -0.2096  0.1950 -0.2674
   37BDTP    C210882  12.230   6.211   4.321 -0.0642  0.1887 -0.1681
   37BDTP    C310883  12.253   6.075   4.334  0.0336  0.2079 -0.1390
   37BDTP    C410884  12.348   6.014   4.249 -0.0139  0.2345 -0.2112
   37BDTP    C510885  12.416   6.095   4.154 -0.1593  0.2407 -0.3107
   37BDTP    C610886  12.393   6.231   4.140 -0.2571  0.2214 -0.3396
   37BDTP    C710887  12.388   5.875   4.245  0.0677  0.2578 -0.1986
   37BDTP    C810888  12.482   5.848   4.152 -0.0084  0.2805 -0.2826
   37BDTP    S110889  12.533   5.994   4.056 -0.1942  0.2762 -0.3896
   37BDTP    C910890  12.258   6.430   4.229 -0.2912  0.1718 -0.2800
   37BDTP   C1010891  12.163   6.458   4.323 -0.2151  0.1488 -0.1960
   37BDTP    S210892  12.113   6.311   4.418 -0.0293  0.1531 -0.0890
   38FTM     S110893  12.196   5.988   4.593  0.0812 -0.5152 -0.0911
   38FTM     C110894  12.050   5.885   4.623 -0.4165 -0.2069 -1.3141
   38FTM     C210895  11.988   5.857   4.505 -0.1919  0.9446 -1.7328
   38FTM     C310896  12.048   5.913   4.388  0.3673  1.6401 -1.1429
   38FTM     C410897  12.160   5.985   4.416  0.5778  1.0006 -0.2426
   38FTM     F110898  11.873   5.780   4.498 -0.4793  1.4368 -2.6757
   38FTM     C510899  12.024   5.880   4.775  0.2838 -0.4901  1.6032
   38FTM     C610900  12.059   5.742   4.832  1.0867  0.0618 -1.5790
   38FTM     C710901  11.950   5.708   4.941  1.5703  0.3008  1.1731
   38FTM     C810902  11.790   5.701   4.890  0.0626  0.4832 -0.3160
   38FTM     C910903  11.680   5.779   4.978 -1.1111  0.2744  1.2696
   38FTM    C1010904  11.633   5.910   4.898 -0.3227  0.5794  0.2323
   38FTM    C1110905  12.204   5.718   4.883  1.4718 -0.0465  0.3558
   38FTM    C1210906  12.326   5.717   4.780 -0.5423  0.6797  0.6622
   39FTM     S110907  12.541   6.490   4.091  0.1154  0.2360  0.0061
   39FTM     C110908  12.664   6.480   3.959  0.1198  0.3250  0.0034
   39FTM     C210909  12.665   6.355   3.907  0.6913  0.1280  0.4697
   39FTM     C310910  12.573   6.261   3.964  1.1497 -0.0986  0.8482
   39FTM     C410911  12.499   6.316   4.064  0.9216 -0.0745  0.6661
   39FTM     F110912  12.750   6.317   3.804  0.8335  0.1413  0.5813
   39FTM     C510913  12.726   6.599   3.921 -0.8645 -1.5385 -0.2914
   39FTM     C610914  12.647   6.731   3.918  0.2471  0.8615  0.0248
   39FTM     C710915  12.536   6.759   3.799 -0.2299  0.0227 -0.4342
   39FTM     C810916  12.415   6.654   3.781  0.1225  1.2914 -0.5899
   39FTM     C910917  12.302   6.685   3.671 -0.2828 -0.8246  0.1229
   39FTM    C1010918  12.343   6.786   3.546 -1.3592  1.0511  0.7077
   39FTM    C1110919  12.735   6.849   3.933 -0.5555  0.2756  1.0261
   39FTM    C1210920  12.813   6.928   3.818 -0.3878  0.9028  0.0761
   40TPM     C110921  12.076   6.570   4.337 -0.6331 -1.0901  0.0332
   40TPM     C210922  12.115   6.701   4.328 -0.3113 -1.2330 -0.9494
   40TPM     C310923  12.014   6.794   4.368  0.1421 -0.7154 -0.9869
   40TPM     C410924  11.897   6.736   4.407  0.1659 -0.1779 -0.0329
   40TPM     S110925  11.906   6.556   4.396 -0.3866 -0.2845  0.9950
   41BDD     C110926  11.592   6.963   4.469  0.5562  0.1314  0.0260
   41BDD     C210927  11.661   6.964   4.587  0.4643 -0.0030  0.0819
   41BDD     C310928  11.784   6.886   4.582  0.4426 -0.0383  0.1032
   41BDD     C410929  11.805   6.827   4.461  0.5184  0.0703  0.0633
   41BDD     S110930  11.675   6.865   4.345  0.6220  0.2238 -0.0037
   41BDD     C510931  11.618   7.037   4.708  0.3930 -0.1043  0.1175
   41BDD     C610932  11.874   6.873   4.698  0.3476 -0.1782  0.1625
   41BDD     O110933  11.980   6.806   4.694  0.3290 -0.2085  0.1808
   41BDD     O210934  11.513   7.105   4.712  0.4117 -0.0740  0.0991
   41BDD     C710935  11.831   6.946   4.819  0.2763 -0.2795  0.1982
   41BDD     C810936  11.709   7.024   4.824  0.2980 -0.2443  0.1768
   41BDD     C910937  11.687   7.084   4.945  0.2222 -0.3525  0.2167
   41BDD     S210938  11.818   7.046   5.062  0.1186 -0.5061  0.2839
   41BDD    C1010939  11.901   6.947   4.937  0.1844 -0.4140  0.2542
   41BDD    C1110940  12.032   6.878   4.971  0.6985  0.5254  0.1201
   41BDD    C1210941  12.008   6.736   5.043 -0.3421 -0.8762 -0.9486
   41BDD    C1310942  11.890   6.647   4.963 -0.0737  0.7314  1.0524
   41BDD    C1410943  11.901   6.505   5.013 -0.4900  0.6730 -0.7067
   41BDD    C1510944  11.802   6.397   4.957 -0.1757  0.3487 -0.4689
   41BDD    C1610945  11.719   6.427   4.838 -0.8335  0.2984  0.3243
   41BDD    C1710946  11.987   6.720   5.198  0.4202 -1.4420  0.9115
   41BDD    C1810947  12.078   6.633   5.268 -0.5767  0.4593  0.0143
   41BDD    C1910948  11.586   7.193   4.997  0.1490  0.5076  0.5606
   41BDD    C2010949  11.629   7.333   4.980 -0.7725  0.0515  0.6258
   41BDD    C2110950  11.614   7.345   4.832  0.0088 -0.6958  0.2988
   41BDD    C2210951  11.668   7.459   4.737 -0.8440 -0.2758 -0.4084
   41BDD    C2310952  11.815   7.494   4.774  0.6090 -1.1702 -0.5251
   41BDD    C2410953  11.863   7.578   4.650 -0.0219  0.2165 -0.1364
   41BDD    C2510954  11.568   7.454   5.050  1.0391 -0.7439  0.8491
   41BDD    C2610955  11.623   7.508   5.171  0.0335 -1.0315 -1.0814
   42TPM     C110956  11.474   7.039   4.415 -0.2633 -0.5024  0.7194
   42TPM     C210957  11.356   6.984   4.374 -0.4408 -0.7095  1.4719
   42TPM     C310958  11.253   7.081   4.347 -0.5386 -0.8373  1.3810
   42TPM     C410959  11.292   7.210   4.367 -0.4354 -0.7275  0.5595
   42TPM     S110960  11.464   7.219   4.423 -0.2051 -0.4523 -0.1688
   43BDTP    C110961  10.900   7.696   4.349  0.3068 -0.0455 -0.0062
   43BDTP    C210962  10.957   7.711   4.479  0.1748 -0.0919  0.0571
   43BDTP    C310963  11.051   7.623   4.530  0.1581 -0.0831  0.1036
   43BDTP    C410964  11.092   7.515   4.449  0.2770 -0.0262  0.0870
   43BDTP    C510965  11.035   7.500   4.319  0.4086  0.0204  0.0237
   43BDTP    C610966  10.941   7.588   4.268  0.4252  0.0115 -0.0227
   43BDTP    C710967  11.189   7.412   4.480  0.2852 -0.0061  0.1271
   43BDTP    C810968  11.207   7.321   4.381  0.4151  0.0520  0.0973
   43BDTP    S110969  11.104   7.354   4.234  0.5453  0.0900  0.0143
   43BDTP    C910970  10.803   7.799   4.318  0.2983 -0.0652 -0.0461
   43BDTP   C1010971  10.785   7.890   4.417  0.1683 -0.1236 -0.0161
   43BDTP    S210972  10.888   7.857   4.563  0.0383 -0.1614  0.0667
   44FTM     S110973  10.958   7.618   4.795  0.0052 -0.1178  0.2395
   44FTM     C110974  11.075   7.604   4.931  0.5656  1.1740 -0.0846
   44FTM     C210975  11.202   7.603   4.883  0.4389  2.1015 -0.4776
   44FTM     C310976  11.216   7.613   4.740 -0.0885  1.8700 -0.5485
   44FTM     C410977  11.095   7.621   4.678 -0.3755  0.7278 -0.1985
   44FTM     F110978  11.314   7.594   4.965  0.7932  3.2154 -0.7960
   44FTM     C510979  11.015   7.554   5.052  0.7557 -2.6548 -0.8169
   44FTM     C610980  10.973   7.666   5.155  0.0416 -0.2695 -0.9793
   44FTM     C710981  10.940   7.647   5.299 -0.1975  0.1242 -1.6822
   44FTM     C810982  10.891   7.503   5.346 -0.4208  1.3930  0.5955
   44FTM     C910983  10.755   7.467   5.293  0.5764  0.2952  0.8478
   44FTM    C1010984  10.741   7.307   5.261  0.4332  1.1312 -0.1155
   44FTM    C1110985  10.902   7.804   5.105  0.2267 -1.3625  0.3938
   44FTM    C1210986  11.007   7.923   5.067  0.4444  0.4085  0.1308
   45FTM     S110987  10.721   7.573   4.064 -0.1679  0.3459 -0.1732
   45FTM     C110988  10.782   7.574   3.894 -0.2264  1.5958 -0.2035
   45FTM     C210989  10.917   7.571   3.893 -0.2270  1.5799 -0.2728
   45FTM     C310990  10.981   7.567   4.022 -0.1829  0.6183 -0.3058
   45FTM     C410991  10.891   7.568   4.124 -0.1475 -0.1268 -0.2603
   45FTM     F110992  10.992   7.571   3.777 -0.2673  2.4356 -0.3104
   45FTM     C510993  10.686   7.572   3.779 -0.7029  0.5294  1.3544
   45FTM     C610994  10.573   7.669   3.786  0.2159 -0.8854  1.3006
   45FTM     C710995  10.623   7.827   3.794 -1.4009  1.0824 -0.4826
   45FTM     C810996  10.553   7.900   3.908  0.3115  0.0767 -0.0606
   45FTM     C910997  10.412   7.917   3.863 -0.4175 -0.0999 -1.1416
   45FTM    C1010998  10.355   7.980   3.995 -0.1887  0.3038  0.3206
   45FTM    C1110999  10.464   7.664   3.677 -0.6435  0.3478  0.5236
   45FTM    C1211000  10.378   7.549   3.691  0.7916  0.6228 -1.6857
   46TPM     C111001  10.714   8.004   4.410 -0.6965  0.2552  0.0374
   46TPM     C211002  10.582   8.013   4.378 -0.8762  0.4714  0.8039
   46TPM     C311003  10.527   8.145   4.395 -0.5987  0.5341  1.2434
   46TPM     C411004  10.618   8.237   4.440 -0.2071  0.3659  0.8122
   46TPM     S111005  10.781   8.163   4.464 -0.1582  0.1129 -0.1904
   47BDD     C111006  10.464   8.599   4.345  0.7342  0.1691 -0.1168
   47BDD     C211007  10.549   8.620   4.450  0.6678  0.0403 -0.0368
   47BDD     C311008  10.615   8.499   4.496  0.3245 -0.0882  0.1274
   47BDD     C411009  10.580   8.388   4.425  0.1342 -0.0559  0.1705
   47BDD     S111010  10.461   8.427   4.296  0.3717  0.1378  0.0083
   47BDD     C511011  10.572   8.752   4.513  0.9170  0.0317 -0.1085
   47BDD     C611012  10.711   8.499   4.609  0.1976 -0.2384  0.2360
   47BDD     O111013  10.768   8.395   4.648 -0.0982 -0.3495  0.3777
   47BDD     O211014  10.515   8.856   4.473  1.2131  0.1426 -0.2501
   47BDD     C711015  10.734   8.631   4.671  0.4475 -0.2477  0.1644
   47BDD     C811016  10.668   8.752   4.625  0.7906 -0.1190  0.0000
   47BDD     C911017  10.703   8.863   4.696  0.9811 -0.1512 -0.0427
   47BDD     S211018  10.822   8.825   4.825  0.7440 -0.3452  0.1194
   47BDD    C1011019  10.819   8.652   4.776  0.3812 -0.3762  0.2445
   47BDD    C1111020  10.907   8.560   4.861  0.9190  0.4405  0.3430
   47BDD    C1211021  10.946   8.581   5.003 -0.7476 -0.6140  0.0911
   47BDD    C1311022  10.840   8.651   5.082 -1.2931  1.0357 -1.0402
   47BDD    C1411023  10.695   8.578   5.112  0.0221 -1.3103  0.9632
   47BDD    C1511024  10.673   8.445   5.175  0.5219 -0.2706 -0.6288
   47BDD    C1611025  10.721   8.455   5.323  0.6751  1.7823 -0.0565
   47BDD    C1711026  11.026   8.477   5.065 -0.8614  0.8315 -0.9626
   47BDD    C1811027  11.161   8.520   5.108 -0.2128  0.2441  0.7644
   47BDD    C1911028  10.653   9.007   4.689  1.2048 -0.0035  0.6976
   47BDD    C2011029  10.536   9.033   4.787 -1.2130  0.2948 -0.7830
   47BDD    C2111030  10.586   9.075   4.935  0.1875  0.7216  0.6638
   47BDD    C2211031  10.676   9.183   4.953  0.2174 -0.5007 -0.6523
   47BDD    C2311032  10.621   9.326   4.922  0.2750 -0.3060 -0.7712
   47BDD    C2411033  10.706   9.437   4.978  0.6148 -0.6939  0.9286
   47BDD    C2511034  10.415   9.095   4.715 -0.5752 -0.0187 -0.2119
   47BDD    C2611035  10.296   9.056   4.807  0.2694 -0.5478  1.9315
   48TPM     C111036  10.352   8.680   4.285  0.1713  0.3983 -0.1950
   48TPM     C211037  10.360   8.808   4.239  0.1025  0.4928  0.0498
   48TPM     C311038  10.246   8.848   4.160  0.1495  0.5326  0.0023
   48TPM     C411039  10.152   8.750   4.146  0.2539  0.4680 -0.2791
   48TPM     S111040  10.199   8.599   4.233  0.3014  0.3517 -0.5072
   49BDTP    C111041   9.583   8.784   3.884 -0.0274  0.2515  0.0753
   49BDTP    C211042   9.581   8.657   3.949 -0.0389  0.1879 -0.0477
   49BDTP    C311043   9.690   8.607   4.019  0.0482 -0.0072 -0.3184
   49BDTP    C411044   9.806   8.685   4.026  0.1514 -0.1462 -0.4756
   49BDTP    C511045   9.809   8.812   3.961  0.1628 -0.0827 -0.3526
   49BDTP    C611046   9.700   8.862   3.890  0.0756  0.1118 -0.0820
   49BDTP    C711047   9.931   8.655   4.092  0.2533 -0.3557 -0.7596
   49BDTP    C811048  10.026   8.751   4.081  0.3397 -0.4518 -0.8545
   49BDTP    S111049   9.970   8.894   3.983  0.3040 -0.2899 -0.5975
   49BDTP    C911050   9.458   8.815   3.817 -0.1295  0.4611  0.3592
   49BDTP   C1011051   9.364   8.718   3.829 -0.2158  0.5572  0.4542
   49BDTP    S211052   9.420   8.575   3.926 -0.1801  0.3949  0.1972
   50FTM     S111053   9.612   8.442   4.253  0.2836 -0.0142 -0.0885
   50FTM     C111054   9.572   8.272   4.208 -0.7410  0.3770 -0.7191
   50FTM     C211055   9.605   8.249   4.078 -1.4048  0.8051 -0.9772
   50FTM     C311056   9.663   8.360   4.008 -1.1625  0.8540 -0.7068
   50FTM     C411057   9.674   8.471   4.086 -0.2850  0.4502 -0.2259
   50FTM     F111058   9.586   8.127   4.016 -2.2709  1.1780 -1.4732
   50FTM     C511059   9.503   8.159   4.295 -0.0773 -0.4115  0.2509
   50FTM     C611060   9.405   8.194   4.413  0.1244  0.0676  0.2984
   50FTM     C711061   9.272   8.266   4.382  0.4102  0.1711  0.9283
   50FTM     C811062   9.265   8.415   4.393 -0.3597 -0.3325  1.0137
   50FTM     C911063   9.155   8.495   4.322  0.6145 -0.5502 -0.7547
   50FTM    C1011064   9.009   8.437   4.325  1.2092  0.1210 -0.1669
   50FTM    C1111065   9.348   8.063   4.482 -0.5869  0.5350  0.3901
   50FTM    C1211066   9.442   7.998   4.583  0.3445 -0.7311  0.0914
   51FTM     S111067   9.679   9.119   4.016 -0.6296 -0.2742  0.2411
   51FTM     C111068   9.708   9.259   3.906  0.3673 -0.3121  0.4336
   51FTM     C211069   9.711   9.216   3.777  0.8738 -0.2661  0.4300
   51FTM     C311070   9.693   9.076   3.756  0.5260 -0.2000  0.2810
   51FTM     C411071   9.674   9.008   3.873 -0.2727 -0.1954  0.1668
   51FTM     F111072   9.732   9.302   3.670  1.6825 -0.2811  0.5615
   51FTM     C511073   9.767   9.379   3.965  0.0757 -0.7443  0.3184
   51FTM     C611074   9.912   9.402   3.997  1.2178 -1.2988  0.7903
   51FTM     C711075   9.926   9.545   4.041 -0.0465 -0.4811 -0.4588
   51FTM     C811076  10.058   9.586   4.121 -0.1730  1.1461  0.8333
   51FTM     C911077  10.182   9.596   4.039  0.9379 -0.7122  1.3382
   51FTM    C1011078  10.192   9.654   3.891  0.7946  0.3984  0.4987
   51FTM    C1111079  10.031   9.348   3.917  0.3442  1.0506  1.1639
   51FTM    C1211080  10.036   9.201   3.899 -1.1856 -1.7805 -0.9431
   52TPM     C111081   9.236   8.727   3.775  0.1716 -0.1855  0.0918
   52TPM     C211082   9.136   8.646   3.821 -0.0861  0.1583  0.1459
   52TPM     C311083   9.016   8.653   3.741 -0.0086  0.3614  0.0440
   52TPM     C411084   9.024   8.739   3.636  0.3082  0.1726 -0.0878
   52TPM     S111085   9.186   8.819   3.628  0.5349 -0.2802 -0.0934
   53BDD     C111086   8.681   8.721   3.439  0.1787 -0.0630 -0.1887
   53BDD     C211087   8.723   8.851   3.427  0.1540 -0.0467 -0.0935
   53BDD     C311088   8.848   8.877   3.497 -0.1249  0.0551  0.3749
   53BDD     C411089   8.899   8.767   3.561 -0.3090  0.1151  0.6302
   53BDD     S111090   8.795   8.623   3.537 -0.1462  0.0482  0.3017
   53BDD     C511091   8.651   8.955   3.352  0.3862 -0.1240 -0.4297
   53BDD     C611092   8.912   9.011   3.498 -0.1986  0.0894  0.5524
   53BDD     O111093   9.019   9.033   3.559 -0.4392  0.1774  0.9563
   53BDD     O211094   8.543   8.932   3.292  0.6266 -0.2120 -0.8337
   53BDD     C711095   8.839   9.115   3.423  0.0336  0.0122  0.2161
   53BDD     C811096   8.714   9.088   3.353  0.3126 -0.0896 -0.2524
   53BDD     C911097   8.663   9.198   3.290  0.4966 -0.1493 -0.5078
   53BDD     S211098   8.767   9.342   3.313  0.3336 -0.0822 -0.1793
   53BDD    C1011099   8.881   9.244   3.412  0.0091  0.0288  0.3111
   53BDD    C1111100   8.977   9.334   3.487  0.1965  0.2531 -0.0537
   53BDD    C1211101   9.092   9.395   3.417 -1.5573 -0.6028 -0.0705
   53BDD    C1311102   9.240   9.346   3.430  0.5817  0.4801 -0.7169
   53BDD    C1411103   9.288   9.209   3.407 -1.2321  0.2388  0.7947
   53BDD    C1511104   9.304   9.164   3.259  0.3294  1.7541 -0.6053
   53BDD    C1611105   9.165   9.112   3.186 -0.5165  0.0697 -0.3899
   53BDD    C1711106   9.074   9.548   3.414  1.1198  0.1888 -0.1187
   53BDD    C1811107   9.156   9.623   3.500 -0.1781  0.1295  0.2919
   53BDD    C1911108   8.562   9.238   3.198  0.5901 -0.5974  0.2257
   53BDD    C2011109   8.473   9.352   3.264 -0.8568 -1.2661 -0.5886
   53BDD    C2111110   8.407   9.321   3.397 -0.7581 -0.3831  0.4553
   53BDD    C2211111   8.287   9.408   3.460 -1.3275  0.0678 -0.3005
   53BDD    C2311112   8.193   9.303   3.522 -0.2609 -0.1225 -0.7449
   53BDD    C2411113   8.152   9.321   3.676  0.1322 -0.6294 -0.6626
   53BDD    C2511114   8.440   9.473   3.174  0.5696  0.2815  0.2907
   53BDD    C2611115   8.445   9.619   3.218 -0.1713  0.4180  0.0534
   54TPM     C111116   8.563   8.649   3.400 -0.2499  0.2787 -0.3552
   54TPM     C211117   8.529   8.641   3.268 -0.0360 -0.1760 -0.3884
   54TPM     C311118   8.441   8.531   3.238  0.3574 -0.5410 -0.2338
   54TPM     C411119   8.408   8.455   3.346  0.4436 -0.3647 -0.0828
   54TPM     S111120   8.487   8.517   3.496  0.0311  0.2808 -0.1244
   55BDTP    C111121   8.082   7.926   3.436  0.4692  0.1260 -0.1373
   55BDTP    C211122   8.056   8.000   3.554  0.2685  0.2433 -0.2546
   55BDTP    C311123   8.108   8.128   3.575  0.1526  0.3035 -0.3348
   55BDTP    C411124   8.189   8.184   3.475  0.2389  0.2463 -0.2977
   55BDTP    C511125   8.215   8.109   3.357  0.4399  0.1285 -0.1804
   55BDTP    C611126   8.163   7.982   3.336  0.5556  0.0680 -0.1002
   55BDTP    C711127   8.253   8.314   3.475  0.1485  0.2905 -0.3649
   55BDTP    C811128   8.325   8.340   3.363  0.2704  0.2134 -0.3045
   55BDTP    S111129   8.322   8.203   3.243  0.5164  0.0734 -0.1541
   55BDTP    C911130   8.018   7.796   3.437  0.5596  0.0813 -0.0702
   55BDTP   C1011131   7.946   7.770   3.548  0.4380  0.1583 -0.1305
   55BDTP    S211132   7.949   7.906   3.668  0.1916  0.2982 -0.2810
   56FTM     S111133   8.134   8.263   3.828 -0.1427  0.4051  0.0314
   56FTM     C111134   7.996   8.363   3.885  0.3260  1.3087 -0.3928
   56FTM     C211135   7.897   8.362   3.792  0.8481  2.5208 -1.0166
   56FTM     C311136   7.922   8.284   3.674  0.9139  2.8133 -1.1981
   56FTM     C411137   8.044   8.224   3.677  0.4258  1.7925 -0.6972
   56FTM     F111138   7.778   8.431   3.808  1.2976  3.4373 -1.4599
   56FTM     C511139   7.987   8.415   4.018  0.6226  0.5427 -1.1572
   56FTM     C611140   8.073   8.527   4.072 -1.2700 -0.5137 -0.0700
   56FTM     C711141   8.059   8.648   3.983 -0.7254 -0.2006  0.0855
   56FTM     C811142   8.151   8.775   3.988  1.1882  0.5547  0.5597
   56FTM     C911143   8.184   8.863   3.866  0.3849 -0.8052  1.1682
   56FTM    C1011144   8.179   8.784   3.729 -0.5931  0.4094  0.0381
   56FTM    C1111145   8.080   8.543   4.231 -1.1765  1.3946  1.2674
   56FTM    C1211146   7.946   8.600   4.294 -0.9511 -0.1811 -0.2648
   57FTM     S111147   8.178   7.726   3.195 -0.2649 -0.4882 -0.5531
   57FTM     C111148   8.184   7.740   3.015  0.9883 -0.1386 -0.5034
   57FTM     C211149   8.180   7.871   2.979  1.8439 -0.0402 -0.2707
   57FTM     C311150   8.173   7.966   3.086  1.5833 -0.2261 -0.1205
   57FTM     C411151   8.171   7.906   3.208  0.4926 -0.4752 -0.2422
   57FTM     F111152   8.184   7.913   2.847  2.9137  0.2244 -0.1799
   57FTM     C511153   8.163   7.615   2.943 -0.3709 -0.3797 -0.0093
   57FTM     C611154   8.274   7.515   2.961 -2.1871  0.1326  0.6910
   57FTM     C711155   8.415   7.565   2.891  0.9754  0.5435 -0.3164
   57FTM     C811156   8.501   7.626   3.007  0.5649  0.2413  2.2403
   57FTM     C911157   8.622   7.544   3.043 -1.7033  0.3348 -0.3007
   57FTM    C1011158   8.730   7.552   2.931 -0.0092 -0.5345  0.1464
   57FTM    C1111159   8.214   7.377   2.930  0.3960  0.3957 -0.2867
   57FTM    C1211160   8.111   7.332   3.040  0.3679 -0.3077  0.8487
   58TPM     C111161   7.850   7.667   3.574  1.2435 -0.7502  0.8612
   58TPM     C211162   7.777   7.628   3.683  2.1031 -1.0895  1.3382
   58TPM     C311163   7.712   7.500   3.665  1.5583 -0.8035  1.2487
   58TPM     C411164   7.735   7.443   3.544  0.2834 -0.2461  0.7033
   58TPM     S111165   7.842   7.545   3.441 -0.3328 -0.0375  0.2571
   59BDD     C111166   7.545   7.131   3.408 -0.0718  0.3578 -0.4514
   59BDD     C211167   7.669   7.087   3.445 -0.1624  0.2347 -0.2933
   59BDD     C311168   7.752   7.191   3.504 -0.2652  0.0675  0.1584
   59BDD     C411169   7.690   7.313   3.510 -0.2515  0.0653  0.3380
   59BDD     S111170   7.523   7.306   3.443 -0.1090  0.2729 -0.0458
   59BDD     C511171   7.716   6.948   3.428 -0.1574  0.2662 -0.5515
   59BDD     C611172   7.889   7.166   3.551 -0.3731 -0.0843  0.3954
   59BDD     O111173   7.961   7.256   3.601 -0.4619 -0.2285  0.7848
   59BDD     O211174   7.644   6.859   3.378 -0.0687  0.4104 -0.9409
   59BDD     C711175   7.936   7.027   3.534 -0.3684 -0.0528  0.1372
   59BDD     C811176   7.853   6.923   3.476 -0.2655  0.1144 -0.3145
   59BDD     C911177   7.915   6.801   3.469 -0.2792  0.1165 -0.4942
   59BDD     S211178   8.082   6.808   3.536 -0.4216 -0.0910 -0.1103
   59BDD    C1011179   8.060   6.983   3.572 -0.4590 -0.1758  0.2953
   59BDD    C1111180   8.197   7.012   3.635 -0.1188 -0.2192  0.3501
   59BDD    C1211181   8.326   7.022   3.544 -0.1286 -0.0167 -1.2942
   59BDD    C1311182   8.465   6.983   3.624 -0.6745 -0.0759 -1.3177
   59BDD    C1411183   8.497   7.050   3.756 -1.1754  0.1356  0.9719
   59BDD    C1511184   8.643   7.036   3.803 -0.6134  0.1265  1.4268
   59BDD    C1611185   8.713   7.120   3.907 -0.0833 -0.9992  0.3716
   59BDD    C1711186   8.310   7.157   3.474  0.7431 -0.3167  1.3207
   59BDD    C1811187   8.334   7.146   3.317 -1.7243 -0.6874 -1.5674
   59BDD    C1911188   7.863   6.657   3.439 -0.4919 -0.9601 -0.7259
   59BDD    C2011189   7.808   6.604   3.556  0.7416  0.8891 -1.3044
   59BDD    C2111190   7.683   6.664   3.625 -0.3266  1.0011 -1.2683
   59BDD    C2211191   7.560   6.587   3.616  0.2047 -0.1620  1.1261
   59BDD    C2311192   7.466   6.643   3.723  0.4415 -0.6538  0.6846
   59BDD    C2411193   7.309   6.623   3.694 -0.6870 -0.2629 -0.4414
   59BDD    C2511194   7.838   6.462   3.609 -0.3329  1.0492 -0.0533
   59BDD    C2611195   7.984   6.423   3.627 -1.3068 -0.2755 -0.0414
   60TPM     C111196   7.433   7.058   3.358 -0.0798 -0.0829  0.2474
   60TPM     C211197   7.394   6.962   3.446 -0.6504  0.3409  0.4677
   60TPM     C311198   7.256   6.921   3.431 -0.8208  0.9212  0.3893
   60TPM     C411199   7.191   6.986   3.330 -0.3804  0.9398  0.1090
   60TPM     S111200   7.298   7.104   3.247  0.2892  0.2203 -0.0790
    1BDTP    C111201   4.342   6.394   4.487  0.3023  0.1708  0.0941
    1BDTP    C211202   4.221   6.465   4.507  0.2017  0.1401 -0.3673
    1BDTP    C311203   4.104   6.404   4.549  0.0995  0.1348 -0.6609
    1BDTP    C411204   4.106   6.265   4.571  0.0960  0.1611 -0.4922
    1BDTP    C511205   4.227   6.193   4.550  0.1965  0.1919 -0.0310
    1BDTP    C611206   4.345   6.255   4.509  0.2987  0.1972  0.2626
    1BDTP    C711207   3.997   6.180   4.614  0.0000  0.1613 -0.7319
    1BDTP    C811208   4.030   6.049   4.626  0.0231  0.1906 -0.4759
    1BDTP    S111209   4.204   6.016   4.585  0.1700  0.2220  0.1045
    1BDTP    C911210   4.451   6.479   4.444  0.3983  0.1706  0.3335
    1BDTP   C1011211   4.418   6.610   4.431  0.3750  0.1411  0.0775
    1BDTP    S211212   4.244   6.643   4.472  0.2282  0.1101 -0.5030
    2FTM     S111213   3.863   6.459   4.688  0.1275  0.0370 -0.2812
    2FTM     C111214   3.778   6.614   4.654 -0.2052 -0.2317 -0.6963
    2FTM     C211215   3.848   6.686   4.562 -0.5921 -0.5205 -1.2292
    2FTM     C311216   3.969   6.626   4.514 -0.6520 -0.5498 -1.3442
    2FTM     C411217   3.992   6.505   4.571 -0.2995 -0.2743 -0.8846
    2FTM     F111218   3.807   6.810   4.516 -0.9150 -0.7753 -1.6441
    2FTM     C511219   3.646   6.630   4.725 -0.3529 -0.4065  0.8249
    2FTM     C611220   3.653   6.681   4.870  0.8956  1.1496 -0.7893
    2FTM     C711221   3.559   6.606   4.988  1.2034  0.4401 -0.6296
    2FTM     C811222   3.596   6.476   5.057  1.0620  0.8230 -1.4266
    2FTM     C911223   3.531   6.434   5.195 -0.8593  1.0137 -1.0086
    2FTM    C1011224   3.559   6.531   5.310  0.6977 -0.0269  0.1537
    2FTM    C1111225   3.681   6.814   4.902  0.6631 -0.0117  0.0673
    2FTM    C1211226   3.601   6.930   4.838 -0.9612 -0.1016 -0.1790
    3FTM     S111227   4.602   6.129   4.534 -0.4149  0.0398 -0.2142
    3FTM     C111228   4.658   6.032   4.393 -0.2929  0.2117 -0.2842
    3FTM     C211229   4.565   6.037   4.293 -0.1556  0.4253 -0.4019
    3FTM     C311230   4.448   6.115   4.320 -0.1374  0.4671 -0.4435
    3FTM     C411231   4.451   6.171   4.444 -0.2650  0.2794 -0.3550
    3FTM     F111232   4.581   5.972   4.172 -0.0383  0.5956 -0.4786
    3FTM     C511233   4.784   5.952   4.392 -1.1612  0.8117 -0.6219
    3FTM     C611234   4.822   5.865   4.523  0.3795 -0.3076 -0.0382
    3FTM     C711235   4.872   5.944   4.661 -0.1629 -0.3724  2.1032
    3FTM     C811236   5.022   5.989   4.644 -0.5011  0.9558 -0.7340
    3FTM     C911237   5.127   5.881   4.662 -0.1160 -1.4366  0.4247
    3FTM    C1011238   5.216   5.963   4.760 -0.2604  1.1966 -0.1730
    3FTM    C1111239   4.734   5.750   4.546 -0.0362 -0.2663 -1.6100
    3FTM    C1211240   4.700   5.657   4.443 -1.7016  1.3145  0.7152
    4TPM     C111241   4.512   6.729   4.403  0.5306  0.2080  1.4706
    4TPM     C211242   4.491   6.861   4.430  0.7430  0.1546  1.9155
    4TPM     C311243   4.607   6.944   4.408  0.4330  0.2779  0.5964
    4TPM     C411244   4.716   6.876   4.364 -0.0160  0.4253 -0.8537
    4TPM     S111245   4.681   6.700   4.347 -0.0823  0.4200 -0.6648
    5BDD     C111246   4.998   7.159   4.316 -0.2487 -0.0768  0.3669
    5BDD     C211247   5.062   7.042   4.287 -0.0936  0.0174  0.3304
    5BDD     C311248   4.977   6.924   4.299  0.1088 -0.1171  0.4702
    5BDD     C411249   4.849   6.954   4.337  0.1051 -0.3118  0.6108
    5BDD     S111250   4.826   7.130   4.361 -0.1520 -0.3401  0.5783
    5BDD     C511251   5.204   7.033   4.247 -0.1258  0.2340  0.1661
    5BDD     C611252   5.026   6.788   4.271  0.2986 -0.0476  0.4587
    5BDD     O111253   4.953   6.687   4.281  0.4730 -0.1634  0.5792
    5BDD     O211254   5.278   7.134   4.237 -0.3002  0.3499  0.0457
    5BDD     C711255   5.168   6.779   4.232  0.2663  0.1693  0.2944
    5BDD     C811256   5.253   6.896   4.220  0.0640  0.3036  0.1549
    5BDD     C911257   5.381   6.867   4.182  0.0678  0.4982  0.0138
    5BDD     S211258   5.404   6.691   4.158  0.3249  0.5265  0.0465
    5BDD    C1011259   5.233   6.662   4.202  0.4215  0.2631  0.2580
    5BDD    C1111260   5.207   6.519   4.194  0.5600  1.3236 -0.5081
    5BDD    C1211261   5.111   6.424   4.268 -0.6068  0.3350 -2.4300
    5BDD    C1311262   5.107   6.450   4.432 -0.6183  0.1458 -0.9075
    5BDD    C1411263   5.228   6.505   4.505 -0.4514 -0.1782  0.3512
    5BDD    C1511264   5.319   6.402   4.578 -1.4972 -0.5453 -0.4877
    5BDD    C1611265   5.342   6.251   4.523  1.2765 -0.6262  0.4063
    5BDD    C1711266   4.998   6.353   4.211 -0.1637 -0.2938  1.1023
    5BDD    C1811267   5.003   6.317   4.055  0.2173 -0.3979 -0.9021
    5BDD    C1911268   5.503   6.953   4.182 -0.5515  0.5802  0.0955
    5BDD    C2011269   5.605   6.926   4.298  0.5906  0.0409 -0.3292
    5BDD    C2111270   5.744   6.984   4.258  0.6554  0.6454 -0.8044
    5BDD    C2211271   5.838   6.874   4.216  0.3139 -0.0447  0.9950
    5BDD    C2311272   5.886   6.766   4.312  0.5714 -0.2898 -0.3327
    5BDD    C2411273   5.962   6.665   4.232 -0.5983 -0.2639 -0.1966
    5BDD    C2511274   5.553   6.976   4.443  0.0208 -0.4738 -0.2580
    5BDD    C2611275   5.545   7.137   4.451 -1.1774  1.1244  0.5160
    6TPM     C111276   5.042   7.301   4.305  0.5599  0.4688 -0.5161
    6TPM     C211277   4.996   7.390   4.212  1.5968  0.2483 -1.2871
    6TPM     C311278   5.071   7.512   4.206  1.9947  0.0169 -1.1315
    6TPM     C411279   5.174   7.518   4.295  1.2612  0.0612 -0.2419
    6TPM     S111280   5.186   7.366   4.393  0.0014  0.4009  0.4740
    7BDTP    C111281   5.599   7.938   4.484  0.0490  0.0403  0.1504
    7BDTP    C211282   5.522   8.011   4.388 -0.0790 -0.1099  0.1382
    7BDTP    C311283   5.415   7.955   4.319 -0.0814 -0.2614  0.2640
    7BDTP    C411284   5.383   7.821   4.345  0.0484 -0.2650  0.4089
    7BDTP    C511285   5.459   7.748   4.441  0.1768 -0.1147  0.4214
    7BDTP    C611286   5.566   7.804   4.510  0.1790  0.0369  0.2955
    7BDTP    C711287   5.277   7.741   4.286  0.0726 -0.4067  0.5556
    7BDTP    C811288   5.270   7.614   4.332  0.2108 -0.3705  0.6758
    7BDTP    S111289   5.398   7.577   4.457  0.3300 -0.1519  0.6205
    7BDTP    C911290   5.704   8.018   4.543  0.0250  0.1822  0.0041
    7BDTP   C1011291   5.711   8.145   4.496 -0.1132  0.1462 -0.1162
    7BDTP    S211292   5.584   8.182   4.372 -0.2323 -0.0726 -0.0609
    8FTM     S111293   5.196   8.122   4.269 -0.1572 -0.2184 -0.5674
    8FTM     C111294   5.194   8.205   4.109  0.0555 -0.2238 -0.5739
    8FTM     C211295   5.298   8.163   4.034  0.4799  0.1822 -0.2266
    8FTM     C311296   5.384   8.065   4.094  0.6616  0.5143  0.0589
    8FTM     C411297   5.345   8.032   4.220  0.3664  0.3575 -0.0743
    8FTM     F111298   5.322   8.210   3.905  0.7297  0.2773 -0.1465
    8FTM     C511299   5.070   8.280   4.047  0.3312  0.4368 -0.3964
    8FTM     C611300   4.963   8.329   4.139  0.5200  0.3375  0.4333
    8FTM     C711301   4.967   8.484   4.130  0.3063 -1.0064 -0.6760
    8FTM     C811302   5.092   8.563   4.105 -0.8522  1.0488 -0.1181
    8FTM     C911303   5.089   8.714   4.093 -0.7870  1.1794  0.6344
    8FTM    C1011304   5.114   8.741   3.936 -0.6978 -0.2528  0.5270
    8FTM    C1111305   4.803   8.285   4.103  0.0588  1.1303  0.3780
    8FTM    C1211306   4.754   8.256   3.961  1.0704  1.0650 -1.7355
    9FTM     S111307   5.720   7.751   4.744 -0.4282 -0.3854  0.4126
    9FTM     C111308   5.821   7.602   4.735 -0.0318 -0.1574  0.9740
    9FTM     C211309   5.801   7.539   4.616  0.8047 -0.1874  0.8395
    9FTM     C311310   5.709   7.602   4.526  1.1793 -0.3841  0.3047
    9FTM     C411311   5.656   7.716   4.579  0.6112 -0.5094  0.0202
    9FTM     F111312   5.866   7.422   4.581  1.2807 -0.0379  1.1928
    9FTM     C511313   5.906   7.572   4.853  0.1256  0.7174  0.3316
    9FTM     C611314   5.824   7.544   4.991 -1.1701  0.4828 -1.2035
    9FTM     C711315   5.801   7.657   5.103 -0.3178 -0.2568  0.5612
    9FTM     C811316   5.920   7.749   5.120  0.4667  0.2943 -0.3780
    9FTM     C911317   5.891   7.890   5.186  0.3202  1.2108  1.3593
    9FTM    C1011318   5.979   7.992   5.110  0.6308 -0.8580  0.8909
    9FTM    C1111319   5.708   7.439   4.981 -0.7481  1.0291 -0.0691
    9FTM    C1211320   5.668   7.339   5.095  0.4434 -0.1493 -0.3077
   10TPM     C111321   5.804   8.247   4.530  0.3177  0.1586 -0.1649
   10TPM     C211322   5.931   8.241   4.481  0.3507  0.5338 -0.1245
   10TPM     C311323   5.995   8.370   4.472  0.0229  0.7093  0.0228
   10TPM     C411324   5.917   8.474   4.514 -0.2599  0.4677  0.0946
   10TPM     S111325   5.755   8.416   4.569 -0.1332 -0.0035 -0.0192
   11BDD     C111326   5.917   8.868   4.551 -0.1100  0.3058 -0.0410
   11BDD     C211327   6.047   8.831   4.571 -0.1050  0.2999 -0.0842
   11BDD     C311328   6.069   8.688   4.557 -0.1522  0.2744  0.0963
   11BDD     C411329   5.956   8.618   4.527 -0.1929  0.2619  0.2745
   11BDD     S111330   5.813   8.726   4.513 -0.1743  0.2806  0.2286
   11BDD     C511331   6.155   8.926   4.603 -0.0566  0.3171 -0.2929
   11BDD     C611332   6.202   8.627   4.575 -0.1556  0.2639  0.0854
   11BDD     O111333   6.222   8.503   4.563 -0.1962  0.2420  0.2409
   11BDD     O211334   6.136   9.049   4.615 -0.0159  0.3388 -0.4486
   11BDD     C711335   6.311   8.721   4.607 -0.1072  0.2809 -0.1235
   11BDD     C811336   6.288   8.864   4.621 -0.0600  0.3064 -0.3040
   11BDD     C911337   6.402   8.934   4.651 -0.0196  0.3192 -0.4821
   11BDD     S211338   6.544   8.826   4.665 -0.0378  0.3003 -0.4362
   11BDD    C1011339   6.441   8.685   4.627 -0.1020  0.2749 -0.1667
   11BDD    C1111340   6.505   8.552   4.642 -0.8189 -0.7334  0.7642
   11BDD    C1211341   6.585   8.512   4.509  0.0444 -0.3360  0.3208
   11BDD    C1311342   6.596   8.363   4.505  0.0288  0.3887  0.3141
   11BDD    C1411343   6.654   8.280   4.618 -0.8610  0.5513  0.8430
   11BDD    C1511344   6.648   8.131   4.571 -0.7760  0.1025  0.7557
   11BDD    C1611345   6.749   8.052   4.647  0.4602 -0.3447 -1.1819
   11BDD    C1711346   6.729   8.590   4.494  0.1882  0.2466  0.3583
   11BDD    C1811347   6.807   8.587   4.368 -0.8445 -0.2258 -0.4929
   11BDD    C1911348   6.438   9.091   4.683  0.6632  1.3771  0.3329
   11BDD    C2011349   6.366   9.156   4.817  0.3809  0.2761  0.7691
   11BDD    C2111350   6.358   9.314   4.840 -0.0285 -0.3214  0.5966
   11BDD    C2211351   6.485   9.389   4.866  0.1339 -1.2680 -0.6069
   11BDD    C2311352   6.475   9.533   4.921 -0.8368  1.2307  0.8018
   11BDD    C2411353   6.448   9.648   4.811 -0.9760  0.7973  0.5304
   11BDD    C2511354   6.368   9.068   4.933  1.4656 -1.0741  0.3063
   11BDD    C2611355   6.484   9.066   5.020 -0.8514 -0.1859 -0.3726
   12TPM     C111356   5.857   8.998   4.565  0.5462  0.1050  0.2550
   12TPM     C211357   5.855   9.061   4.686  0.0072  0.1762  0.2149
   12TPM     C311358   5.748   9.156   4.699 -0.4210 -0.2496 -0.0893
   12TPM     C411359   5.669   9.166   4.589 -0.2087 -0.6452 -0.2813
   12TPM     S111360   5.723   9.054   4.458  0.5547 -0.5097 -0.0910
   13BDTP    C111361   5.137   9.478   4.466  0.3215  0.1400  0.1217
   13BDTP    C211362   5.122   9.452   4.605  0.2124  0.2670  0.1351
   13BDTP    C311363   5.219   9.385   4.679  0.1367  0.2985  0.2633
   13BDTP    C411364   5.335   9.342   4.613  0.1699  0.2000  0.3840
   13BDTP    C511365   5.350   9.369   4.473  0.2789  0.0730  0.3705
   13BDTP    C611366   5.253   9.435   4.400  0.3545  0.0416  0.2423
   13BDTP    C711367   5.449   9.271   4.668  0.1063  0.2094  0.5278
   13BDTP    C811368   5.547   9.244   4.578  0.1613  0.0970  0.6217
   13BDTP    S111369   5.508   9.304   4.411  0.3017 -0.0367  0.5412
   13BDTP    C911370   5.023   9.549   4.411  0.3852  0.1304 -0.0221
   13BDTP   C1011371   4.925   9.577   4.500  0.3301  0.2429 -0.1160
   13BDTP    S211372   4.964   9.517   4.668  0.1897  0.3769 -0.0356
   14FTM     S111373   5.097   9.236   4.890 -0.5227 -0.1817  0.5304
   14FTM     C111374   5.103   9.321   5.049  0.9128 -0.2799  0.5501
   14FTM     C211375   5.182   9.431   5.040  1.3713 -0.6342  0.0985
   14FTM     C311376   5.240   9.456   4.911  0.6516 -0.8457 -0.2810
   14FTM     C411377   5.205   9.362   4.820 -0.3919 -0.6474 -0.1148
   14FTM     F111378   5.205   9.516   5.147  2.4699 -0.7880  0.0021
   14FTM     C511379   5.057   9.263   5.183  2.0433 -0.7556 -1.6604
   14FTM     C611380   5.130   9.142   5.234 -0.5848 -1.9722  0.0786
   14FTM     C711381   5.255   9.175   5.315 -1.0053  0.5343 -0.7231
   14FTM     C811382   5.398   9.112   5.303  0.6696  0.0876  0.3051
   14FTM     C911383   5.467   9.093   5.171  1.4347 -1.1734 -0.2060
   14FTM    C1011384   5.546   9.209   5.127 -0.2772 -0.0022 -1.4084
   14FTM    C1111385   5.055   9.047   5.317  0.5497  0.1465 -0.4104
   14FTM    C1211386   5.058   8.894   5.290  0.2343 -1.7280  0.3311
   15FTM     S111387   5.362   9.334   4.159  0.1626  0.7082 -0.0934
   15FTM     C111388   5.354   9.436   4.011 -0.0681  0.2939 -0.3702
   15FTM     C211389   5.287   9.551   4.037 -0.5226  0.1235 -0.7395
   15FTM     C311390   5.239   9.567   4.171 -0.7145  0.3006 -0.8277
   15FTM     C411391   5.270   9.460   4.250 -0.3966  0.6168 -0.5156
   15FTM     F111392   5.265   9.649   3.942 -0.7919 -0.2024 -1.0197
   15FTM     C511393   5.435   9.416   3.879  0.1555  0.0006 -0.3329
   15FTM     C611394   5.492   9.275   3.842 -0.8931  0.6785  0.5169
   15FTM     C711395   5.638   9.304   3.782  1.1776  0.6508 -0.2980
   15FTM     C811396   5.746   9.222   3.857  0.0185 -0.2960 -0.5007
   15FTM     C911397   5.746   9.228   4.010 -0.1660  0.0549 -1.0577
   15FTM    C1011398   5.854   9.120   4.046 -0.9675 -0.3117  0.4503
   15FTM    C1111399   5.376   9.199   3.763 -0.8936 -0.3190 -0.5564
   15FTM    C1211400   5.389   9.048   3.801 -0.4190 -0.2409  1.1011
   16TPM     C111401   4.799   9.638   4.469 -0.0416 -0.3621 -0.0044
   16TPM     C211402   4.780   9.715   4.358  0.4277 -0.0362  0.1318
   16TPM     C311403   4.655   9.785   4.356  0.7296  0.5088  0.1191
   16TPM     C411404   4.578   9.763   4.467  0.4904  0.5981 -0.0270
   16TPM     S111405   4.659   9.650   4.582 -0.1395 -0.0032 -0.1607
   17BDD     C111406   4.197   9.845   4.551 -0.3718  0.1806 -0.2405
   17BDD     C211407   4.236   9.950   4.473 -0.3542  0.2222 -0.1760
   17BDD     C311408   4.375   9.940   4.429 -0.2753  0.3619  0.0401
   17BDD     C411409   4.438   9.828   4.475 -0.2341  0.4249  0.1371
   17BDD     S111410   4.330   9.727   4.576 -0.2910  0.3133 -0.0352
   17BDD     C511411   4.149  10.063   4.435 -0.4091  0.1349 -0.3107
   17BDD     C611412   4.438  10.043   4.344 -0.2438  0.4277  0.1422
   17BDD     O111413   4.558  10.035   4.306 -0.1758  0.5486  0.3283
   17BDD     O211414   4.030  10.071   4.473 -0.4771  0.0141 -0.4970
   17BDD     C711415   4.351  10.156   4.306 -0.2989  0.3409  0.0074
   17BDD     C811416   4.212  10.165   4.350 -0.3778  0.2012 -0.2086
   17BDD     C911417   4.149  10.277   4.304 -0.4190  0.1383 -0.3058
   17BDD     S211418   4.257  10.378   4.203 -0.3621  0.2495 -0.1335
   17BDD    C1011419   4.390  10.260   4.228 -0.2812  0.3827  0.0718
   17BDD    C1111420   4.533  10.287   4.165  1.5648  0.6456  0.9483
   17BDD    C1211421   4.533  10.270   4.007 -0.3065  0.9091  0.7536
   17BDD    C1311422   4.656  10.335   3.964 -0.3789 -0.5064  0.1826
   17BDD    C1411423   4.794  10.287   4.017  1.1934  1.3100 -0.1856
   17BDD    C1511424   4.876  10.404   4.078  1.0286  0.1390  0.2592
   17BDD    C1611425   4.981  10.373   4.178 -1.2891 -0.1293  1.5158
   17BDD    C1711426   4.514  10.130   3.943 -0.0266  1.2240 -0.9810
   17BDD    C1811427   4.456  10.116   3.809 -0.5703  0.0615  0.6946
   17BDD    C1911428   4.001  10.324   4.334 -0.5501 -1.1518 -0.6573
   17BDD    C2011429   3.992  10.484   4.316 -0.3759  0.1530  0.4095
   17BDD    C2111430   3.919  10.517   4.183 -1.0665  0.5376  1.0350
   17BDD    C2211431   3.799  10.591   4.185 -0.9051  0.5773 -1.4766
   17BDD    C2311432   3.811  10.726   4.110  0.4597  0.3883  0.7293
   17BDD    C2411433   3.774  10.860   4.185 -0.0921 -0.1623  0.3402
   17BDD    C2511434   4.039  10.609   4.389  1.3830 -0.7428  0.0766
   17BDD    C2611435   3.971  10.633   4.523  0.2303  1.2390 -0.2757
   18TPM     C111436   4.079   9.789   4.610 -0.1803 -0.6820  0.2556
   18TPM     C211437   4.069   9.678   4.689 -0.0105 -0.4103  0.6679
   18TPM     C311438   3.938   9.659   4.746 -0.0523 -0.5383  0.5291
   18TPM     C411439   3.848   9.755   4.710 -0.2540 -0.9085  0.0106
   18TPM     S111440   3.922   9.878   4.602 -0.4079 -1.1249 -0.3448
   19BDTP    C111441   3.235   9.661   4.827  0.1415  0.1078 -0.0843
   19BDTP    C211442   3.230   9.796   4.780  0.0288  0.0019 -0.3825
   19BDTP    C311443   3.343   9.867   4.743 -0.0382 -0.0098 -0.6130
   19BDTP    C411444   3.468   9.802   4.752  0.0079  0.0877 -0.5466
   19BDTP    C511445   3.473   9.667   4.799  0.1206  0.1938 -0.2480
   19BDTP    C611446   3.359   9.597   4.836  0.1875  0.2055 -0.0175
   19BDTP    C711447   3.599   9.855   4.720 -0.0452  0.0964 -0.7478
   19BDTP    C811448   3.700   9.767   4.739  0.0212  0.2027 -0.6166
   19BDTP    S111449   3.645   9.606   4.802  0.1603  0.3068 -0.2196
   19BDTP    C911450   3.104   9.608   4.860  0.1946  0.0992  0.1172
   19BDTP   C1011451   3.002   9.696   4.840  0.1283 -0.0074 -0.0141
   19BDTP    S211452   3.058   9.857   4.777 -0.0111 -0.1113 -0.4110
   20FTM     S111453   3.428  10.079   4.584 -0.5491 -0.3939 -0.1079
   20FTM     C111454   3.396  10.243   4.652  0.5992 -0.3607  0.4019
   20FTM     C211455   3.315  10.233   4.760  0.9356 -0.1585  0.6773
   20FTM     C311456   3.273  10.101   4.796  0.3354 -0.0210  0.5130
   20FTM     C411457   3.324  10.006   4.713 -0.4874 -0.1207  0.0979
   20FTM     F111458   3.273  10.343   4.833  1.8070 -0.0868  1.0949
   20FTM     C511459   3.474  10.356   4.596  1.0998  0.6897 -0.7637
   20FTM     C611460   3.494  10.407   4.448 -1.0662  0.3777  1.7355
   20FTM     C711461   3.379  10.505   4.396 -1.0856 -0.3531  0.0349
   20FTM     C811462   3.373  10.652   4.458 -0.6678 -0.6598  0.1538
   20FTM     C911463   3.248  10.680   4.520 -0.6377 -0.2188 -0.5327
   20FTM    C1011464   3.211  10.817   4.563  0.2802  0.6670 -0.2935
   20FTM    C1111465   3.500  10.308   4.320  0.6591 -0.3672 -1.5072
   20FTM    C1211466   3.607  10.202   4.345 -0.1403  1.6225 -0.0654
   21FTM     S111467   3.302   9.344   4.761  0.4598  0.1130  0.0891
   21FTM     C111468   3.374   9.209   4.856  1.0069  0.0142 -0.4529
   21FTM     C211469   3.447   9.259   4.959  1.6343 -0.0916 -0.8382
   21FTM     C311470   3.452   9.402   4.970  1.7254 -0.1018 -0.7380
   21FTM     C411471   3.380   9.464   4.872  1.1492 -0.0009 -0.2602
   21FTM     F111472   3.515   9.179   5.050  2.1634 -0.1855 -1.3046
   21FTM     C511473   3.341   9.073   4.823  0.2299  0.0803  0.4684
   21FTM     C611474   3.370   8.995   4.700 -1.1079  0.8384  0.6833
   21FTM     C711475   3.321   9.062   4.572 -0.5918  1.2431  0.9804
   21FTM     C811476   3.377   8.995   4.441  1.4297  0.6131 -0.1303
   21FTM     C911477   3.416   9.067   4.306 -0.7812 -0.2387 -0.6085
   21FTM    C1011478   3.302   9.059   4.214 -0.7443 -0.3060  0.9303
   21FTM    C1111479   3.333   8.841   4.712  1.0157 -0.8110  0.5040
   21FTM    C1211480   3.421   8.731   4.649  0.0727 -1.8999 -1.3175
   22TPM     C111481   2.867   9.691   4.881  0.6597  0.4883  0.2988
   22TPM     C211482   2.770   9.784   4.861  0.7601  0.4804 -0.2576
   22TPM     C311483   2.647   9.756   4.931  0.3835  0.5093 -0.8973
   22TPM     C411484   2.650   9.641   5.004 -0.0042  0.5398 -0.8288
   22TPM     S111485   2.810   9.558   4.990  0.0770  0.5336  0.0562
   23BDD     C111486   2.428   9.350   5.126 -0.1289  0.1019  0.0396
   23BDD     C211487   2.359   9.463   5.158 -0.1355  0.1214 -0.0422
   23BDD     C311488   2.426   9.585   5.118 -0.1139  0.0982 -0.0763
   23BDD     C411489   2.546   9.563   5.055 -0.0911  0.0611 -0.0199
   23BDD     S111490   2.582   9.388   5.042 -0.0951  0.0532  0.0799
   23BDD     C511491   2.228   9.464   5.227 -0.1620  0.1619 -0.0921
   23BDD     C611492   2.370   9.719   5.142 -0.1166  0.1132 -0.1637
   23BDD     O111493   2.428   9.825   5.108 -0.0980  0.0935 -0.1931
   23BDD     O211494   2.170   9.358   5.262 -0.1807  0.1819 -0.0628
   23BDD     C711495   2.239   9.720   5.212 -0.1431  0.1538 -0.2136
   23BDD     C811496   2.172   9.598   5.252 -0.1647  0.1769 -0.1795
   23BDD     C911497   2.052   9.620   5.315 -0.1875  0.2139 -0.2358
   23BDD     S211498   2.016   9.795   5.327 -0.1835  0.2223 -0.3357
   23BDD    C1011499   2.170   9.833   5.244 -0.1497  0.1736 -0.2954
   23BDD    C1111500   2.222   9.970   5.235  0.5199  1.0391  0.9661
   23BDD    C1211501   2.245  10.060   5.120  1.0222 -0.4870  0.6378
   23BDD    C1311502   2.307  10.197   5.173  0.6262  0.8617  1.4142
   23BDD    C1411503   2.215  10.306   5.221  1.0181  0.1388  0.0769
   23BDD    C1511504   2.146  10.295   5.366  0.2600  0.3518 -0.3070
   23BDD    C1611505   2.011  10.361   5.351 -1.2526  0.6185  0.1734
   23BDD    C1711506   2.112  10.069   5.025 -0.6947  0.5805 -0.8586
   23BDD    C1811507   2.122  10.166   4.911 -0.2231 -0.1962  0.6581
   23BDD    C1911508   1.946   9.539   5.368 -0.8319 -1.4496 -0.1781
   23BDD    C2011509   1.840   9.490   5.282  0.8373  0.2823 -0.5538
   23BDD    C2111510   1.754   9.574   5.184  0.2430  1.5721 -0.2688
   23BDD    C2211511   1.844   9.597   5.070 -0.7140 -0.0786  0.6019
   23BDD    C2311512   1.879   9.498   4.959 -0.2669 -0.7643 -0.4931
   23BDD    C2411513   1.770   9.455   4.861 -0.1922  0.7414 -0.3792
   23BDD    C2511514   1.736   9.399   5.365  1.4798 -0.6094  0.8853
   23BDD    C2611515   1.778   9.266   5.420  0.0446  0.9497  0.3588
   24TPM     C111516   2.395   9.207   5.114  0.1508  0.4316 -0.5728
   24TPM     C211517   2.338   9.135   5.215  0.8851  0.8194  0.1427
   24TPM     C311518   2.323   8.995   5.185  0.9590  0.6332  0.9336
   24TPM     C411519   2.368   8.960   5.061  0.2811  0.1030  0.8214
   24TPM     S111520   2.434   9.103   4.972 -0.5093 -0.2043 -0.3010
   25BDTP    C111521   2.249   8.375   4.871 -0.1757  0.3400 -0.0379
   25BDTP    C211522   2.255   8.442   4.746 -0.2365  0.2205 -0.1044
   25BDTP    C311523   2.279   8.578   4.734 -0.2618  0.2136 -0.2444
   25BDTP    C411524   2.298   8.652   4.852 -0.2256  0.3293 -0.3228
   25BDTP    C511525   2.293   8.586   4.978 -0.1648  0.4489 -0.2562
   25BDTP    C611526   2.269   8.449   4.989 -0.1394  0.4559 -0.1162
   25BDTP    C711527   2.324   8.794   4.865 -0.2421  0.3461 -0.4690
   25BDTP    C811528   2.338   8.837   4.993 -0.1970  0.4709 -0.5147
   25BDTP    S111529   2.320   8.703   5.115 -0.1275  0.5846 -0.3793
   25BDTP    C911530   2.223   8.233   4.858 -0.1593  0.3238  0.1082
   25BDTP   C1011531   2.209   8.191   4.730 -0.2043  0.1988  0.1541
   25BDTP    S211532   2.227   8.324   4.609 -0.2738  0.0853  0.0187
   26FTM     S111533   2.106   8.743   4.591 -0.0408 -0.1442 -0.1540
   26FTM     C111534   2.183   8.823   4.449  0.6570 -0.2305  0.1675
   26FTM     C211535   2.308   8.772   4.429  0.8334 -0.1247  0.9086
   26FTM     C311536   2.349   8.669   4.520  0.4462  0.0260  1.2631
   26FTM     C411537   2.254   8.641   4.613 -0.0428  0.0357  0.7777
   26FTM     F111538   2.391   8.814   4.326  1.3561 -0.1578  1.3100
   26FTM     C511539   2.128   8.957   4.423  1.1927  0.9800  0.9836
   26FTM     C611540   1.992   8.969   4.335 -0.9009  0.3160  1.0112
   26FTM     C711541   1.870   8.908   4.408  0.6491  0.0915 -0.8224
   26FTM     C811542   1.798   9.023   4.484  0.8537  1.7604  0.0507
   26FTM     C911543   1.731   9.135   4.386  1.7795 -0.0742  0.3108
   26FTM    C1011544   1.654   9.237   4.475  0.8360  1.2755  0.6626
   26FTM    C1111545   2.009   8.906   4.188 -1.2980 -0.3781  0.1185
   26FTM    C1211546   2.124   8.961   4.099 -0.4636 -0.1329 -0.4488
   27FTM     S111547   2.453   8.409   5.201  0.3506 -0.6971  0.4000
   27FTM     C111548   2.403   8.308   5.341 -0.1289 -0.4698  0.3980
   27FTM     C211549   2.278   8.258   5.321 -0.3919  0.1678  0.4247
   27FTM     C311550   2.215   8.295   5.198 -0.2402  0.5102  0.4481
   27FTM     C411551   2.294   8.376   5.121  0.1516  0.1218  0.4386
   27FTM     F111552   2.213   8.177   5.412 -0.7855  0.4797  0.4300
   27FTM     C511553   2.512   8.252   5.450 -0.2234  1.4486 -0.5702
   27FTM     C611554   2.501   8.197   5.596 -0.2255  0.1731 -0.9178
   27FTM     C711555   2.475   8.044   5.624 -0.8351 -0.9891 -0.8502
   27FTM     C811556   2.481   7.961   5.498 -0.5259  0.2613  0.3382
   27FTM     C911557   2.613   7.904   5.443  0.2621 -1.5843 -0.1054
   27FTM    C1011558   2.742   7.915   5.519 -0.2643  0.2237  0.6512
   27FTM    C1111559   2.491   8.308   5.709 -0.1073  1.0156  0.7793
   27FTM    C1211560   2.544   8.255   5.847  0.3159  1.1034 -1.0148
   28TPM     C111561   2.191   8.063   4.684  0.1349  0.8312  0.5633
   28TPM     C211562   2.213   8.021   4.556  0.9284  0.9780  0.6380
   28TPM     C311563   2.211   7.878   4.541  1.1856  0.9899  0.4910
   28TPM     C411564   2.189   7.810   4.658  0.5881  0.8526  0.3040
   28TPM     S111565   2.168   7.923   4.797 -0.3528  0.6958  0.2993
   29BDD     C111566   2.272   7.424   4.656  0.0304 -0.3992 -0.2378
   29BDD     C211567   2.145   7.436   4.706  0.1045 -0.3550 -0.0564
   29BDD     C311568   2.096   7.573   4.705  0.2613 -0.2939  0.2925
   29BDD     C411569   2.186   7.663   4.655  0.3044 -0.2926  0.3720
   29BDD     S111570   2.339   7.583   4.605  0.1516 -0.3676  0.0157
   29BDD     C511571   2.065   7.322   4.755  0.0340 -0.3670 -0.1973
   29BDD     C611572   1.961   7.609   4.754  0.3627 -0.2389  0.5343
   29BDD     O111573   1.918   7.726   4.753  0.4978 -0.1863  0.8351
   29BDD     O211574   2.108   7.205   4.756 -0.1011 -0.4196 -0.4981
   29BDD     C711575   1.881   7.495   4.804  0.2921 -0.2513  0.3935
   29BDD     C811576   1.930   7.359   4.804  0.1353 -0.3123  0.0447
   29BDD     C911577   1.840   7.268   4.854  0.0922 -0.3135 -0.0348
   29BDD     S211578   1.687   7.348   4.904  0.2450 -0.2384  0.3216
   29BDD    C1011579   1.754   7.507   4.853  0.3662 -0.2068  0.5751
   29BDD    C1111580   1.649   7.623   4.860  0.7711 -0.6717 -0.5352
   29BDD    C1211581   1.555   7.645   4.974  0.8484 -0.0291  0.6857
   29BDD    C1311582   1.618   7.651   5.114 -0.9333  1.1706 -0.9757
   29BDD    C1411583   1.560   7.523   5.203  0.2836 -0.3085  0.6726
   29BDD    C1511584   1.404   7.521   5.230 -0.4284 -1.2633  0.0888
   29BDD    C1611585   1.319   7.422   5.152  0.3763  0.2541  0.1955
   29BDD    C1711586   1.453   7.748   4.924  1.1587  0.6805 -0.0158
   29BDD    C1811587   1.312   7.690   4.930 -0.5321  0.3445 -0.8060
   29BDD    C1911588   1.840   7.118   4.876  1.0609  0.9700  0.1439
   29BDD    C2011589   1.952   7.034   4.951  0.4755 -0.6883 -0.0541
   29BDD    C2111590   2.002   7.109   5.080  1.1774 -1.0567 -0.0995
   29BDD    C2211591   2.139   7.071   5.146  0.3335 -0.1301 -1.1102
   29BDD    C2311592   2.276   7.093   5.063  0.6894  0.1100  1.3991
   29BDD    C2411593   2.308   7.000   4.932  0.1433 -0.9395  0.3761
   29BDD    C2511594   1.902   6.891   4.962  0.0055 -0.0036 -0.5701
   29BDD    C2611595   2.020   6.785   4.982 -0.0475  0.1412  0.0239
   30TPM     C111596   2.371   7.313   4.641 -0.3131 -0.1115  0.1931
   30TPM     C211597   2.342   7.185   4.605  0.1529 -0.4616  1.0064
   30TPM     C311598   2.458   7.102   4.586  0.4913  0.0314  0.8750
   30TPM     C411599   2.576   7.167   4.608  0.2835  0.7570 -0.0384
   30TPM     S111600   2.549   7.339   4.654 -0.3610  0.8754 -0.8094
   31BDTP    C111601   3.109   6.942   4.361  0.1248 -0.0405 -0.1328
   31BDTP    C211602   3.090   6.853   4.470  0.1589  0.0315 -0.0676
   31BDTP    C311603   2.984   6.864   4.559  0.1631  0.0648 -0.0669
   31BDTP    C411604   2.892   6.969   4.539  0.1322  0.0253 -0.1332
   31BDTP    C511605   2.911   7.058   4.430  0.0981 -0.0466 -0.1981
   31BDTP    C611606   3.017   7.047   4.341  0.0940 -0.0800 -0.1989
   31BDTP    C711607   2.775   7.000   4.618  0.1300  0.0485 -0.1458
   31BDTP    C811608   2.705   7.108   4.574  0.0962 -0.0021 -0.2162
   31BDTP    S111609   2.779   7.184   4.426  0.0625 -0.0862 -0.2764
   31BDTP    C911610   3.226   6.910   4.282  0.1270 -0.0635 -0.1200
   31BDTP   C1011611   3.296   6.803   4.326  0.1608 -0.0129 -0.0496
   31BDTP    S211612   3.222   6.726   4.474  0.1944  0.0711  0.0106
   32FTM     S111613   2.880   6.624   4.689  0.3430 -0.2886 -0.1095
   32FTM     C111614   2.939   6.604   4.858 -0.4999 -0.1415  0.2160
   32FTM     C211615   3.018   6.710   4.892 -0.4422 -0.2477  0.4152
   32FTM     C311616   3.035   6.810   4.792  0.2441 -0.4451  0.3282
   32FTM     C411617   2.969   6.781   4.677  0.7280 -0.4917  0.0539
   32FTM     F111618   3.078   6.721   5.016 -1.0078 -0.1725  0.6875
   32FTM     C511619   2.862   6.503   4.942 -0.1193  0.1401 -0.6178
   32FTM     C611620   2.896   6.415   5.065 -0.4893 -0.1957  0.5057
   32FTM     C711621   2.806   6.320   5.122 -0.7830  0.8050  0.6428
   32FTM     C811622   2.661   6.363   5.188 -1.0086 -0.1852  0.0201
   32FTM     C911623   2.668   6.411   5.339  0.2342 -0.7307  1.6255
   32FTM    C1011624   2.525   6.443   5.358 -0.4156  0.3469 -1.1546
   32FTM    C1111625   3.036   6.349   5.064  0.1157  0.4094 -0.0026
   32FTM    C1211626   3.165   6.443   5.061 -1.8034  0.1688  0.8057
   33FTM     S111627   2.912   7.232   4.151  0.3492  0.1465  0.2226
   33FTM     C111628   3.026   7.334   4.056  0.1604  0.2270  0.0803
   33FTM     C211629   3.154   7.304   4.090  0.2227  0.3549 -0.0396
   33FTM     C311630   3.171   7.202   4.189  0.4164  0.3967 -0.0284
   33FTM     C411631   3.052   7.153   4.233  0.5052  0.2978  0.1047
   33FTM     F111632   3.264   7.367   4.033  0.1079  0.4413 -0.1668
   33FTM     C511633   2.984   7.404   3.931  0.6751  0.2391 -0.7621
   33FTM     C611634   2.997   7.366   3.793 -0.8962  1.4303  0.1359
   33FTM     C711635   2.956   7.464   3.677 -0.2036 -0.2223  0.7515
   33FTM     C811636   2.826   7.536   3.650  0.2790  0.3186 -0.2406
   33FTM     C911637   2.702   7.481   3.718  1.2303 -1.5795  1.3316
   33FTM    C1011638   2.672   7.555   3.843  0.2515 -0.1121 -0.2558
   33FTM    C1111639   2.996   7.205   3.763  1.0397 -0.4587 -0.3347
   33FTM    C1211640   3.054   7.169   3.635  0.3568  0.4984  0.6432
   34TPM     C111641   3.413   6.736   4.287  0.7311 -0.3861 -0.5593
   34TPM     C211642   3.509   6.797   4.211  0.7293 -1.3092 -1.3384
   34TPM     C311643   3.606   6.705   4.156  0.0207 -2.1347 -1.2530
   34TPM     C411644   3.584   6.575   4.190 -0.5175 -1.8416 -0.4085
   34TPM     S111645   3.438   6.558   4.295 -0.1686 -0.4892  0.3499
   35BDD     C111646   3.825   6.311   4.045 -0.0027  0.1372  0.0725
   35BDD     C211647   3.712   6.305   3.968 -0.0817  0.1245  0.1877
   35BDD     C311648   3.611   6.402   4.005 -0.1603 -0.0590  0.4573
   35BDD     C411649   3.648   6.481   4.111 -0.1403 -0.1835  0.5436
   35BDD     S111650   3.812   6.438   4.170 -0.0215 -0.0796  0.2934
   35BDD     C511651   3.693   6.209   3.856 -0.0875  0.2806  0.0543
   35BDD     C611652   3.482   6.413   3.935 -0.2525 -0.1042  0.6192
   35BDD     O111653   3.394   6.497   3.968 -0.3204 -0.2625  0.8516
   35BDD     O211654   3.780   6.126   3.824 -0.0197  0.4389 -0.1780
   35BDD     C711655   3.463   6.318   3.824 -0.2583  0.0519  0.4859
   35BDD     C811656   3.564   6.221   3.786 -0.1796  0.2354  0.2164
   35BDD     C911657   3.527   6.142   3.681 -0.1997  0.3600  0.1300
   35BDD     S211658   3.363   6.184   3.621 -0.3185  0.2562  0.3802
   35BDD    C1011659   3.350   6.312   3.747 -0.3372  0.0391  0.6010
   35BDD    C1111660   3.244   6.424   3.740  0.2913 -0.1456  1.0150
   35BDD    C1211661   3.128   6.423   3.839 -0.5998 -0.1418 -0.3517
   35BDD    C1311662   3.041   6.544   3.838 -0.7975  1.4008  0.5557
   35BDD    C1411663   3.092   6.671   3.911 -0.4375  1.1709 -0.2377
   35BDD    C1511664   3.015   6.776   3.982  0.3750  0.9967 -1.0499
   35BDD    C1611665   2.891   6.703   4.049  0.4244 -0.2992 -0.3572
   35BDD    C1711666   3.030   6.328   3.801  0.3918  1.0542  0.3469
   35BDD    C1811667   3.033   6.168   3.833 -0.0824 -0.2174 -0.1961
   35BDD    C1911668   3.610   6.028   3.595  1.4963 -1.3360  0.1155
   35BDD    C2011669   3.666   6.056   3.459 -0.2131  0.6471  1.3927
   35BDD    C2111670   3.770   6.169   3.411 -0.0586 -0.7237  1.3701
   35BDD    C2211671   3.729   6.325   3.431  0.4068  0.1075  1.0093
   35BDD    C2311672   3.612   6.410   3.398 -0.9605  0.9362 -0.7512
   35BDD    C2411673   3.616   6.534   3.484 -0.5964 -2.1826  0.1667
   35BDD    C2511674   3.548   6.050   3.352 -0.4040  1.2281  0.5010
   35BDD    C2611675   3.499   5.902   3.322  0.1883  0.2916 -0.4890
   36TPM     C111676   3.946   6.234   4.061  0.4044  0.6048  0.1022
   36TPM     C211677   4.062   6.292   4.103  0.6070  0.3451 -0.0941
   36TPM     C311678   4.178   6.207   4.088  0.3961  0.0886 -0.3000
   36TPM     C411679   4.150   6.084   4.036  0.0329  0.1525 -0.2612
   36TPM     S111680   3.974   6.066   4.000 -0.0720  0.5449  0.0413
   37BDTP    C111681   4.570   5.625   3.928  0.2121  0.0173  0.0112
   37BDTP    C211682   4.482   5.567   4.024  0.1128  0.0057 -0.0848
   37BDTP    C311683   4.373   5.635   4.077  0.0801  0.0128 -0.1616
   37BDTP    C411684   4.348   5.766   4.032  0.1488  0.0321 -0.1432
   37BDTP    C511685   4.435   5.824   3.935  0.2481  0.0439 -0.0473
   37BDTP    C611686   4.545   5.756   3.883  0.2807  0.0367  0.0296
   37BDTP    C711687   4.241   5.855   4.071  0.1321  0.0428 -0.2111
   37BDTP    C811688   4.244   5.976   4.010  0.2134  0.0615 -0.1714
   37BDTP    S111689   4.382   5.993   3.893  0.3219  0.0684 -0.0423
   37BDTP    C911690   4.676   5.536   3.888  0.2285  0.0068  0.0792
   37BDTP   C1011691   4.674   5.415   3.949  0.1476 -0.0120  0.0394
   37BDTP    S211692   4.536   5.398   4.066  0.0388 -0.0187 -0.0897
   38FTM     S111693   4.101   5.531   4.082 -0.4274 -0.4788 -0.5219
   38FTM     C111694   4.068   5.425   4.225 -0.5460 -0.4669 -0.5404
   38FTM     C211695   4.175   5.425   4.308 -0.6465 -0.3958 -0.4102
   38FTM     C311696   4.287   5.505   4.267 -0.6373 -0.3474 -0.2911
   38FTM     C411697   4.265   5.569   4.149 -0.5263 -0.3826 -0.3312
   38FTM     F111698   4.179   5.353   4.426 -0.7523 -0.3703 -0.3912
   38FTM     C511699   3.930   5.371   4.244 -1.0499  0.4804 -0.0804
   38FTM     C611700   3.832   5.444   4.335 -0.0250 -0.2089  0.4694
   38FTM     C711701   3.825   5.597   4.300  0.2638 -0.1262 -1.5806
   38FTM     C811702   3.914   5.704   4.388 -0.6744  0.1669  0.7856
   38FTM     C911703   3.911   5.688   4.538 -0.6121  0.6515 -1.1472
   38FTM    C1011704   4.028   5.711   4.613  0.0549  1.6757 -0.5165
   38FTM    C1111705   3.697   5.369   4.380  0.5359 -0.6864  0.3342
   38FTM    C1211706   3.698   5.220   4.381 -1.0272  0.5681 -0.5752
   39FTM     S111707   4.671   5.820   3.617 -0.1423 -0.0308  0.1419
   39FTM     C111708   4.835   5.895   3.627 -0.0673 -0.0799 -0.5959
   39FTM     C211709   4.867   5.919   3.757  0.3963  0.2004 -0.7566
   39FTM     C311710   4.768   5.882   3.854  0.7139  0.4640 -0.3264
   39FTM     C411711   4.658   5.827   3.797  0.4858  0.3830  0.1805
   39FTM     F111712   4.987   5.977   3.795  0.5609  0.2351 -1.3030
   39FTM     C511713   4.916   5.884   3.502  0.1695 -0.5158  0.9331
   39FTM     C611714   5.070   5.929   3.494 -0.1843 -0.3668 -0.0805
   39FTM     C711715   5.168   5.872   3.604  0.4756 -1.0546 -0.1429
   39FTM     C811716   5.195   5.714   3.614 -0.0223 -0.6180 -0.4126
   39FTM     C911717   5.299   5.675   3.514 -1.1498  1.2359  0.3469
   39FTM    C1011718   5.334   5.521   3.544 -1.0500  1.1300 -1.1569
   39FTM    C1111719   5.084   6.075   3.462 -0.8890 -0.0357  0.7582
   39FTM    C1211720   5.014   6.146   3.353 -0.5792 -0.3843  0.5686
   40TPM     C111721   4.756   5.299   3.905  0.0932  0.4154 -0.1449
   40TPM     C211722   4.770   5.185   3.979  0.4638  1.0535  0.8183
   40TPM     C311723   4.879   5.102   3.937  0.5357  0.8954  1.3064
   40TPM     C411724   4.949   5.152   3.831  0.2197  0.1370  0.7154
   40TPM     S111725   4.882   5.310   3.776 -0.1963 -0.4410 -0.5129
   41BDD     C111726   5.310   5.122   3.683 -0.1040  0.1448 -0.5512
   41BDD     C211727   5.234   5.028   3.619 -0.0302 -0.0021 -0.4249
   41BDD     C311728   5.100   5.016   3.671  0.0749 -0.2542 -0.2090
   41BDD     C411729   5.074   5.101   3.775  0.0793 -0.2956 -0.1738
   41BDD     S111730   5.218   5.202   3.814 -0.0473 -0.0222 -0.4085
   41BDD     C511731   5.283   4.946   3.506 -0.0534  0.0837 -0.4981
   41BDD     C611732   5.001   4.921   3.617  0.1667 -0.4447 -0.0455
   41BDD     O111733   4.885   4.911   3.662  0.2571 -0.6620  0.1406
   41BDD     O211734   5.399   4.956   3.460 -0.1440  0.3010 -0.6843
   41BDD     C711735   5.050   4.839   3.504  0.1434 -0.3589 -0.1187
   41BDD     C811736   5.184   4.850   3.451  0.0385 -0.1069 -0.3346
   41BDD     C911737   5.209   4.765   3.347  0.0337 -0.0653 -0.3697
   41BDD     S211738   5.066   4.665   3.308  0.1604 -0.3390 -0.1351
   41BDD    C1011739   4.974   4.745   3.440  0.2172 -0.5059  0.0076
   41BDD    C1111740   4.834   4.693   3.463  1.7873  0.0373  0.0308
   41BDD    C1211741   4.711   4.745   3.388  0.2079 -0.4932  0.7093
   41BDD    C1311742   4.651   4.878   3.425 -0.1482 -0.3979 -0.1417
   41BDD    C1411743   4.571   4.892   3.564 -0.7615  1.5665 -1.4041
   41BDD    C1511744   4.502   5.025   3.566  0.3178  0.2824  0.0743
   41BDD    C1611745   4.363   5.037   3.500  0.4902 -0.1478 -0.9648
   41BDD    C1711746   4.732   4.735   3.238  1.8556 -0.3685 -0.5887
   41BDD    C1811747   4.820   4.849   3.171  0.4268 -0.4329  1.5080
   41BDD    C1911748   5.320   4.743   3.249 -0.5828 -0.0385  1.5869
   41BDD    C2011749   5.326   4.825   3.111  0.5289  1.0904  0.0780
   41BDD    C2111750   5.318   4.982   3.122 -1.1462  0.9329 -0.7958
   41BDD    C2211751   5.458   5.030   3.101  2.5927 -0.4759  0.3594
   41BDD    C2311752   5.508   5.127   3.199  0.2734  0.7165  0.2815
   41BDD    C2411753   5.664   5.134   3.197  0.8114  0.6528  0.1456
   41BDD    C2511754   5.221   4.767   3.020  0.9368  0.7327 -1.2457
   41BDD    C2611755   5.200   4.609   3.010  0.1553 -0.0471 -0.2112
   42TPM     C111756   5.455   5.159   3.677 -0.3013  0.3822  0.3449
   42TPM     C211757   5.490   5.271   3.749 -0.2178  0.5482  0.0479
   42TPM     C311758   5.627   5.310   3.731 -0.2137  0.4567 -0.1352
   42TPM     C411759   5.697   5.229   3.647 -0.2943  0.2205  0.0220
   42TPM     S111760   5.595   5.096   3.582 -0.3822  0.0948  0.4168
   43BDTP    C111761   6.319   5.296   3.676  0.3721 -0.1656 -0.0414
   43BDTP    C211762   6.304   5.155   3.696  0.2527 -0.1122  0.2567
   43BDTP    C311763   6.181   5.092   3.694  0.1997 -0.0132  0.3845
   43BDTP    C411764   6.066   5.171   3.671  0.2669  0.0352  0.2105
   43BDTP    C511765   6.081   5.311   3.651  0.3864 -0.0185 -0.0876
   43BDTP    C611766   6.205   5.374   3.653  0.4396 -0.1172 -0.2154
   43BDTP    C711767   5.928   5.128   3.664  0.2309  0.1370  0.2945
   43BDTP    C811768   5.840   5.228   3.640  0.3163  0.1622  0.0765
   43BDTP    S111769   5.919   5.390   3.623  0.4547  0.0606 -0.2656
   43BDTP    C911770   6.457   5.339   3.683  0.4082 -0.2675 -0.1253
   43BDTP   C1011771   6.546   5.239   3.706  0.3223 -0.2928  0.0926
   43BDTP    S211772   6.466   5.076   3.723  0.1845 -0.1910  0.4348
   44FTM     S111773   6.245   4.900   3.906  0.0019 -0.3292  0.1507
   44FTM     C111774   6.178   4.735   3.876  0.2067 -0.3897  0.0186
   44FTM     C211775   6.111   4.734   3.758  0.1085 -0.3457  0.0730
   44FTM     C311776   6.109   4.857   3.685 -0.1264 -0.2644  0.2173
   44FTM     C411777   6.175   4.957   3.750 -0.2107 -0.2453  0.2752
   44FTM     F111778   6.049   4.620   3.708  0.2253 -0.3766 -0.0046
   44FTM     C511779   6.180   4.630   3.983 -1.3997  0.8182  1.1160
   44FTM     C611780   6.260   4.643   4.117 -0.0146  0.0948 -1.2519
   44FTM     C711781   6.418   4.604   4.142  0.7769 -0.6961  0.4487
   44FTM     C811782   6.445   4.500   4.038  0.4164 -0.2203  0.4644
   44FTM     C911783   6.590   4.447   4.037  0.0220  0.4221 -1.3209
   44FTM    C1011784   6.586   4.315   3.953  1.0021 -1.1831 -0.1337
   44FTM    C1111785   6.192   4.729   4.222 -0.5977  0.4590 -0.6722
   44FTM    C1211786   6.209   4.691   4.379  0.7819 -0.4290 -0.4913
   45FTM     S111787   6.213   5.554   3.843 -0.2501  0.0247 -0.2558
   45FTM     C111788   6.203   5.732   3.813  0.4093  0.0496 -0.3698
   45FTM     C211789   6.194   5.756   3.679  1.0011  0.0297 -0.4184
   45FTM     C311790   6.195   5.641   3.594  0.9785 -0.0052 -0.3712
   45FTM     C411791   6.205   5.525   3.665  0.3488 -0.0126 -0.2834
   45FTM     F111792   6.184   5.884   3.626  1.5986  0.0422 -0.5086
   45FTM     C511793   6.180   5.840   3.921  0.5848  0.3292  0.1409
   45FTM     C611794   6.268   5.842   4.041 -0.6905  1.1432 -0.2737
   45FTM     C711795   6.417   5.816   4.022 -0.2104  0.9695  1.3781
   45FTM     C811796   6.468   5.729   4.137  0.4976 -0.1218  0.0215
   45FTM     C911797   6.599   5.669   4.158  1.4297  0.4207 -0.8766
   45FTM    C1011798   6.588   5.520   4.221  0.1455 -1.2986 -1.2904
   45FTM    C1111799   6.270   5.951   4.140 -0.4230 -0.1923  0.7105
   45FTM    C1211800   6.145   6.030   4.168 -0.1177 -1.3442 -0.1833
   46TPM     C111801   6.691   5.273   3.713  0.2876 -0.1545 -0.2026
   46TPM     C211802   6.791   5.240   3.626  0.6802  0.5412 -0.0283
   46TPM     C311803   6.919   5.296   3.662  0.3529  0.9707  0.5146
   46TPM     C411804   6.917   5.371   3.776 -0.2892  0.6027  0.7542
   46TPM     S111805   6.751   5.377   3.847 -0.5324 -0.3225  0.3094
   47BDD     C111806   7.132   5.630   3.971  0.0600  0.3093 -0.0205
   47BDD     C211807   7.220   5.531   3.935  0.0539  0.2736  0.0636
   47BDD     C311808   7.158   5.426   3.856  0.0806  0.2847  0.0281
   47BDD     C411809   7.025   5.446   3.833  0.1065  0.3287 -0.0827
   47BDD     S111810   6.967   5.599   3.908  0.0993  0.3591 -0.1500
   47BDD     C511811   7.363   5.530   3.972  0.0236  0.2282  0.1799
   47BDD     C611812   7.234   5.309   3.807  0.0793  0.2514  0.1053
   47BDD     O111813   7.181   5.218   3.739  0.1023  0.2609  0.0745
   47BDD     O211814   7.416   5.621   4.040  0.0006  0.2187  0.2104
   47BDD     C711815   7.377   5.308   3.844  0.0490  0.2058  0.2214
   47BDD     C811816   7.438   5.413   3.923  0.0224  0.1948  0.2569
   47BDD     C911817   7.572   5.393   3.946 -0.0036  0.1507  0.3676
   47BDD     S211818   7.629   5.241   3.871  0.0035  0.1202  0.4350
   47BDD    C1011819   7.464   5.209   3.809  0.0429  0.1700  0.3055
   47BDD    C1111820   7.456   5.111   3.702 -0.2362 -1.2453  0.6422
   47BDD    C1211821   7.423   4.969   3.715  0.4142  1.2482 -0.1209
   47BDD    C1311822   7.336   4.891   3.609 -0.7570 -1.2893 -0.3239
   47BDD    C1411823   7.387   4.910   3.462  0.3882  0.5696 -0.0563
   47BDD    C1511824   7.280   4.853   3.363 -0.4760  0.3102  0.0384
   47BDD    C1611825   7.160   4.950   3.338  0.2885 -0.4543  0.2338
   47BDD    C1711826   7.481   4.865   3.820 -0.4089 -1.3339  0.4799
   47BDD    C1811827   7.631   4.841   3.845  0.2335  0.4274  0.1154
   47BDD    C1911828   7.680   5.458   4.024 -0.9076  0.3587  0.8780
   47BDD    C2011829   7.735   5.589   3.959 -1.1097  1.5103 -0.4527
   47BDD    C2111830   7.698   5.607   3.812 -0.4067  0.2217  0.9453
   47BDD    C2211831   7.675   5.744   3.758 -0.8022 -0.4422 -0.1077
   47BDD    C2311832   7.706   5.724   3.612  0.0557 -0.6534 -0.5213
   47BDD    C2411833   7.752   5.853   3.535 -0.9829  0.5254 -1.2183
   47BDD    C2511834   7.877   5.614   4.003 -0.7548 -0.2060 -0.3482
   47BDD    C2611835   7.984   5.523   3.939 -0.2000 -0.1524 -0.1182
   48TPM     C111836   7.132   5.759   4.051 -0.4874 -0.6072  0.6812
   48TPM     C211837   7.044   5.857   4.016 -1.1178 -0.9809  1.1652
   48TPM     C311838   7.061   5.979   4.090 -0.8088 -0.7046  0.6518
   48TPM     C411839   7.162   5.974   4.182  0.0573 -0.1202 -0.2236
   48TPM     S111840   7.243   5.814   4.182  0.5537  0.1284 -0.4693
   49BDTP    C111841   7.250   6.450   4.584  0.1758 -0.0083 -0.3856
   49BDTP    C211842   7.198   6.345   4.665  0.3960 -0.0341 -0.2759
   49BDTP    C311843   7.164   6.220   4.615  0.5161 -0.1093 -0.1727
   49BDTP    C411844   7.183   6.197   4.477  0.4145 -0.1615 -0.1777
   49BDTP    C511845   7.235   6.302   4.396  0.1943 -0.1359 -0.2875
   49BDTP    C611846   7.269   6.427   4.446  0.0743 -0.0607 -0.3906
   49BDTP    C711847   7.155   6.077   4.402  0.5059 -0.2422 -0.0828
   49BDTP    C811848   7.183   6.085   4.270  0.3668 -0.2778 -0.1153
   49BDTP    S111849   7.249   6.248   4.222  0.1004 -0.2142 -0.2710
   49BDTP    C911850   7.278   6.570   4.659  0.0844  0.0722 -0.4807
   49BDTP   C1011851   7.250   6.562   4.791  0.2235  0.1079 -0.4481
   49BDTP    S211852   7.184   6.399   4.839  0.4899  0.0443 -0.2924
   50FTM     S111853   7.178   5.957   4.728  0.3472  0.2666 -0.6071
   50FTM     C111854   7.045   5.912   4.841  0.6262 -0.3257 -0.5136
   50FTM     C211855   6.963   6.018   4.862  0.4228 -0.5575 -0.0992
   50FTM     C311856   6.997   6.138   4.792  0.0470 -0.2952  0.1643
   50FTM     C411857   7.109   6.124   4.716 -0.0404  0.1522 -0.0554
   50FTM     F111858   6.852   6.012   4.944  0.5652 -1.0213  0.0658
   50FTM     C511859   7.017   5.775   4.884 -0.5363 -0.1488  1.3345
   50FTM     C611860   6.939   5.676   4.795 -0.0237 -0.1818  0.2027
   50FTM     C711861   7.017   5.540   4.780 -0.2947  0.0922  0.4381
   50FTM     C811862   7.097   5.511   4.652  0.1844 -1.8863  0.0516
   50FTM     C911863   7.229   5.594   4.620 -0.7164  0.0461 -0.4057
   50FTM    C1011864   7.257   5.578   4.470  1.0671 -0.4225  0.2018
   50FTM    C1111865   6.790   5.660   4.841 -0.9074 -0.3398  0.5434
   50FTM    C1211866   6.708   5.569   4.766 -0.4389  0.0952 -0.8791
   51FTM     S111867   7.241   6.696   4.337 -0.0878 -0.2398 -0.3220
   51FTM     C111868   7.376   6.743   4.227  1.2887  0.3718  1.5367
   51FTM     C211869   7.465   6.641   4.217  1.4642  0.4582  2.1126
   51FTM     C311870   7.435   6.523   4.291  0.5609  0.0638  1.1667
   51FTM     C411871   7.319   6.534   4.361 -0.3357 -0.3380 -0.1775
   51FTM     F111872   7.580   6.649   4.139  2.4534  0.8997  3.5309
   51FTM     C511873   7.370   6.877   4.163  0.8901 -0.3929  1.8541
   51FTM     C611874   7.259   6.911   4.039  0.3286 -0.2809 -0.2522
   51FTM     C711875   7.338   7.011   3.969 -0.4116 -1.1081  0.3367
   51FTM     C811876   7.292   7.072   3.837  0.4025  0.2540  0.2368
   51FTM     C911877   7.407   7.160   3.768  1.6608 -0.1018 -1.7558
   51FTM    C1011878   7.441   7.282   3.849  0.7974 -0.2589 -0.4600
   51FTM    C1111879   7.118   6.949   4.096  1.3353  0.2316  0.7930
   51FTM    C1211880   7.006   6.963   3.993  1.5949  0.4400  0.1375
   52TPM     C111881   7.285   6.643   4.905  0.8636  0.3665 -0.4476
   52TPM     C211882   7.369   6.609   5.007  1.4149  0.8374 -0.7377
   52TPM     C311883   7.374   6.707   5.113  0.6615  0.5333 -0.4117
   52TPM     C411884   7.293   6.814   5.092 -0.4644 -0.1695  0.1268
   52TPM     S111885   7.204   6.801   4.936 -0.6619 -0.5046  0.2649
   53BDD     C111886   7.455   7.168   5.126 -0.1369  0.1029  0.3061
   53BDD     C211887   7.418   7.134   5.253 -0.0023  0.0098  0.3208
   53BDD     C311888   7.355   7.004   5.262  0.1193 -0.0502  0.3113
   53BDD     C411889   7.345   6.940   5.141  0.0758 -0.0018  0.2893
   53BDD     S111890   7.414   7.040   5.008 -0.1205  0.1221  0.2792
   53BDD     C511891   7.439   7.220   5.372  0.0194 -0.0278  0.3442
   53BDD     C611892   7.307   6.947   5.389  0.2745 -0.1533  0.3241
   53BDD     O111893   7.252   6.834   5.396  0.3794 -0.2050  0.3159
   53BDD     O211894   7.493   7.333   5.364 -0.0854  0.0238  0.3524
   53BDD     C711895   7.328   7.033   5.508  0.2961 -0.1910  0.3476
   53BDD     C811896   7.391   7.163   5.499  0.1744 -0.1310  0.3572
   53BDD     C911897   7.401   7.226   5.620  0.2182 -0.1796  0.3792
   53BDD     S211898   7.332   7.127   5.752  0.4145 -0.3035  0.3893
   53BDD    C1011899   7.290   6.998   5.635  0.4308 -0.2843  0.3625
   53BDD    C1111900   7.217   6.878   5.706 -0.1637 -0.0898 -0.3134
   53BDD    C1211901   7.299   6.812   5.823  0.3560  1.2173  0.3226
   53BDD    C1311902   7.289   6.879   5.951 -0.2190  0.1162 -0.5758
   53BDD    C1411903   7.302   6.821   6.098  0.8502 -0.4088 -0.1417
   53BDD    C1511904   7.242   6.921   6.198  0.9499  0.3066  0.6267
   53BDD    C1611905   7.260   6.849   6.337  0.9244  1.0489  0.4062
   53BDD    C1711906   7.417   6.741   5.763 -0.0528 -0.2571 -0.9499
   53BDD    C1811907   7.440   6.626   5.849 -0.3533  0.0863  0.6216
   53BDD    C1911908   7.446   7.355   5.691 -0.7959  0.6991 -0.4432
   53BDD    C2011909   7.583   7.412   5.646 -0.2149 -1.6216 -0.7734
   53BDD    C2111910   7.582   7.564   5.625 -0.2353 -1.6195  0.6316
   53BDD    C2211911   7.696   7.653   5.574 -1.5912  0.0660  1.0244
   53BDD    C2311912   7.835   7.603   5.566  0.3179  0.4397 -0.2316
   53BDD    C2411913   7.846   7.521   5.437 -0.9780 -0.7283 -0.8658
   53BDD    C2511914   7.669   7.355   5.759 -1.4103 -0.2811 -0.1060
   53BDD    C2611915   7.757   7.232   5.746 -0.4114 -0.4597 -1.5584
   54TPM     C111916   7.543   7.278   5.065 -0.5198  0.4058 -0.1107
   54TPM     C211917   7.659   7.226   5.016 -0.2818 -0.0857  0.9089
   54TPM     C311918   7.768   7.320   5.015  0.1327 -0.5283  1.8073
   54TPM     C411919   7.735   7.443   5.063  0.2106 -0.3740  1.4728
   54TPM     S111920   7.563   7.450   5.114 -0.2368  0.3476 -0.0147
   55BDTP    C111921   8.142   7.884   4.904  0.0784  0.2806  0.4393
   55BDTP    C211922   8.023   7.941   4.850  0.1671  0.2213  0.1775
   55BDTP    C311923   7.899   7.880   4.860  0.1545  0.2165  0.0086
   55BDTP    C411924   7.892   7.757   4.927  0.0494  0.2729  0.1019
   55BDTP    C511925   8.011   7.700   4.981 -0.0396  0.3322  0.3636
   55BDTP    C611926   8.135   7.761   4.970 -0.0270  0.3370  0.5325
   55BDTP    C711927   7.775   7.674   4.951  0.0165  0.2799 -0.0365
   55BDTP    C811928   7.800   7.560   5.019 -0.0917  0.3408  0.1067
   55BDTP    S111929   7.975   7.540   5.063 -0.1669  0.3978  0.4371
   55BDTP    C911930   8.259   7.966   4.880  0.1116  0.2736  0.5777
   55BDTP   C1011931   8.234   8.081   4.812  0.2193  0.2129  0.4345
   55BDTP    S211932   8.059   8.101   4.768  0.2942  0.1559  0.1040
   56FTM     S111933   7.640   8.028   4.904 -0.4453 -0.2154 -0.0530
   56FTM     C111934   7.539   8.048   4.755 -0.2222 -0.0304 -0.1810
   56FTM     C211935   7.598   7.985   4.650 -0.2836 -0.2792 -0.0690
   56FTM     C311936   7.723   7.919   4.678 -0.5023 -0.6206  0.1184
   56FTM     C411937   7.760   7.932   4.808 -0.6123 -0.6337  0.1509
   56FTM     F111938   7.544   7.984   4.523 -0.1452 -0.2123 -0.1295
   56FTM     C511939   7.403   8.099   4.754  0.9361  0.9802 -0.5961
   56FTM     C611940   7.281   8.006   4.727  0.8343  0.4187  0.5105
   56FTM     C711941   7.279   7.870   4.792 -0.4232 -0.5005 -0.1725
   56FTM     C811942   7.387   7.767   4.763  0.0014  0.3052 -0.7864
   56FTM     C911943   7.388   7.622   4.806  0.5837  1.0199  0.4285
   56FTM    C1011944   7.514   7.557   4.732 -0.4962 -0.7096 -1.0160
   56FTM    C1111945   7.230   8.011   4.578 -0.2462  0.2866  0.0650
   56FTM    C1211946   7.206   8.143   4.503  0.1424  0.5460 -0.0160
   57FTM     S111947   8.366   7.739   5.138 -0.2399  0.1474 -0.4350
   57FTM     C111948   8.472   7.596   5.105  0.0353  0.3416 -0.3993
   57FTM     C211949   8.421   7.524   5.002  0.1192  0.1609 -0.3150
   57FTM     C311950   8.300   7.574   4.944 -0.0224 -0.1318 -0.2739
   57FTM     C411951   8.256   7.688   5.004 -0.2208 -0.1772 -0.3286
   57FTM     F111952   8.481   7.409   4.954  0.3290  0.2506 -0.2700
   57FTM     C511953   8.600   7.586   5.190 -1.2410 -0.6680 -0.4154
   57FTM     C611954   8.603   7.513   5.317 -0.3884  1.0603 -1.0140
   57FTM     C711955   8.746   7.499   5.367  0.4191 -0.9300  1.4301
   57FTM     C811956   8.827   7.369   5.329  1.5185 -1.7846  0.5753
   57FTM     C911957   8.963   7.360   5.388 -1.3000 -0.0728  1.2290
   57FTM    C1011958   9.070   7.449   5.301  0.2833  1.3999  0.6052
   57FTM    C1111959   8.500   7.574   5.428  0.4827  0.7376 -0.5639
   57FTM    C1211960   8.505   7.716   5.464 -2.0454 -0.6944 -0.9420
   58TPM     C111961   8.328   8.175   4.748  0.3970 -0.1942 -0.0893
   58TPM     C211962   8.452   8.212   4.791  0.3920 -0.1633 -0.1016
   58TPM     C311963   8.519   8.304   4.703  0.3977 -0.2179 -0.1535
   58TPM     C411964   8.447   8.336   4.592  0.4071 -0.2904 -0.1808
   58TPM     S111965   8.287   8.253   4.590  0.4096 -0.2955 -0.1429
   59BDD     C111966   8.553   8.448   4.224 -0.2979  0.1017  0.1455
   59BDD     C211967   8.599   8.545   4.309 -0.2842  0.0830  0.1591
   59BDD     C311968   8.579   8.513   4.449 -0.2589  0.0515  0.1556
   59BDD     C411969   8.517   8.393   4.469 -0.2536  0.0460  0.1394
   59BDD     S111970   8.481   8.311   4.314 -0.2801  0.0808  0.1274
   59BDD     C511971   8.663   8.670   4.265 -0.2937  0.0942  0.1760
   59BDD     C611972   8.621   8.603   4.559 -0.2406  0.0274  0.1684
   59BDD     O111973   8.603   8.576   4.679 -0.2184  0.0000  0.1652
   59BDD     O211974   8.681   8.698   4.144 -0.3154  0.1214  0.1791
   59BDD     C711975   8.685   8.729   4.514 -0.2501  0.0381  0.1850
   59BDD     C811976   8.706   8.761   4.374 -0.2754  0.0699  0.1886
   59BDD     C911977   8.767   8.881   4.354 -0.2801  0.0751  0.2049
   59BDD     S211978   8.804   8.963   4.509 -0.2537  0.0405  0.2168
   59BDD    C1011979   8.732   8.825   4.599 -0.2358  0.0196  0.1986
   59BDD    C1111980   8.740   8.847   4.751  1.0494  0.6219  0.4622
   59BDD    C1211981   8.879   8.842   4.830  0.0867  1.6477 -0.0644
   59BDD    C1311982   8.922   8.683   4.832  1.5326  0.7353 -0.0996
   59BDD    C1411983   9.057   8.625   4.817 -0.0632 -0.9149  0.2621
   59BDD    C1511984   9.191   8.687   4.874 -1.6185  0.2290  0.8772
   59BDD    C1611985   9.305   8.588   4.880 -0.5296 -0.1836  0.2214
   59BDD    C1711986   8.862   8.884   4.981 -1.4295 -0.6004  0.4955
   59BDD    C1811987   8.842   9.035   5.018  1.0743  0.8816  0.6803
   59BDD    C1911988   8.829   8.956   4.244 -0.0758  0.8438 -0.0052
   59BDD    C2011989   8.745   9.047   4.165  0.0114  0.2341  1.3722
   59BDD    C2111990   8.628   8.986   4.081 -0.1528  0.0146 -0.0718
   59BDD    C2211991   8.615   9.084   3.953 -0.8635  1.0346  0.9574
   59BDD    C2311992   8.570   8.973   3.858  0.7758 -0.5262  0.1798
   59BDD    C2411993   8.519   8.998   3.709  0.7943 -0.3213 -1.0456
   59BDD    C2511994   8.694   9.166   4.249  0.3068  0.4227  0.9254
   59BDD    C2611995   8.781   9.257   4.329  0.3001 -0.8859  0.6028
   60TPM     C111996   8.539   8.444   4.068 -0.2375  0.2128  0.3533
   60TPM     C211997   8.475   8.548   4.008 -0.3543  0.1311  0.3353
   60TPM     C311998   8.441   8.523   3.870 -0.1943  0.1237  0.2963
   60TPM     C411999   8.478   8.400   3.826  0.0444  0.1998  0.2846
   60TPM     S112000   8.561   8.305   3.956  0.0860  0.2871  0.3222
    1BDTP    C112001   1.369   0.615   4.330  0.2231  0.2698 -0.0142
    1BDTP    C212002   1.304   0.516   4.250  0.2591  0.2644 -0.0368
    1BDTP    C312003   1.223   0.417   4.304  0.0778  0.3859 -0.0852
    1BDTP    C412004   1.205   0.416   4.444 -0.1499  0.5191 -0.1129
    1BDTP    C512005   1.269   0.514   4.524 -0.1860  0.5245 -0.0900
    1BDTP    C612006   1.351   0.613   4.469 -0.0047  0.4030 -0.0418
    1BDTP    C712007   1.125   0.323   4.523 -0.3648  0.6591 -0.1633
    1BDTP    C812008   1.127   0.348   4.656 -0.5579  0.7680 -0.1798
    1BDTP    S112009   1.230   0.491   4.700 -0.4949  0.7085 -0.1333
    1BDTP    C912010   1.448   0.707   4.251  0.4379  0.1297  0.0365
    1BDTP   C1012011   1.446   0.682   4.118  0.6311  0.0208  0.0527
    1BDTP    S212012   1.343   0.539   4.073  0.5680  0.0803  0.0061
    2FTM     S112013   1.206   0.142   4.233  0.1282  0.2959 -0.2084
    2FTM     C112014   1.053   0.085   4.156  0.6110  0.2859 -1.1987
    2FTM     C212015   0.971   0.191   4.131  0.6929  0.2633 -1.5687
    2FTM     C312016   1.021   0.320   4.169  0.3925  0.2527 -1.1160
    2FTM     C412017   1.145   0.312   4.224  0.0700  0.2676 -0.3749
    2FTM     F112018   0.846   0.177   4.072  1.0448  0.2510 -2.3397
    2FTM     C512019   1.028  -0.065   4.141 -0.1160 -0.2218 -0.2140
    2FTM     C612020   0.907  -0.139   4.194 -0.2732  0.9559  0.4209
    2FTM     C712021   0.915  -0.183   4.350  0.5951  0.0063  1.3508
    2FTM     C812022   0.888  -0.083   4.465  0.1480 -1.6463  0.2827
    2FTM     C912023   0.742  -0.034   4.486 -0.8569 -0.7901 -0.5708
    2FTM    C1012024   0.651   0.046   4.395  0.2089 -0.4945  1.0529
    2FTM    C1112025   0.871  -0.245   4.086  0.4578 -0.1392  0.2538
    2FTM    C1212026   0.912  -0.386   4.060 -0.3630 -0.4725  1.1968
    3FTM     S112027   1.314   0.795   4.690 -0.2268 -0.2663  0.3844
    3FTM     C112028   1.451   0.904   4.733 -0.2932 -0.1731  0.3622
    3FTM     C212029   1.554   0.885   4.646 -0.5646  0.4213 -0.1017
    3FTM     C312030   1.533   0.788   4.543 -0.7334  0.8306 -0.4594
    3FTM     C412031   1.410   0.730   4.551 -0.5864  0.5401 -0.2633
    3FTM     F112032   1.674   0.955   4.655 -0.6764  0.6301 -0.2298
    3FTM     C512033   1.457   1.014   4.843  1.4359  1.6525  0.1079
    3FTM     C612034   1.530   0.977   4.970  0.0539 -0.0344 -0.1404
    3FTM     C712035   1.569   1.104   5.047 -0.6795 -0.4681 -0.5883
    3FTM     C812036   1.663   1.221   4.983  0.2636  0.1916 -0.8038
    3FTM     C912037   1.789   1.172   4.919 -0.7829  0.3329  0.6679
    3FTM    C1012038   1.806   1.248   4.794  0.4132 -0.2443  0.1467
    3FTM    C1112039   1.470   0.864   5.058  1.1154 -0.0608 -0.3249
    3FTM    C1212040   1.540   0.731   5.039 -0.5030  0.6569  0.1136
    4TPM     C112041   1.531   0.757   4.023  0.9945 -0.4020  0.3545
    4TPM     C212042   1.614   0.865   4.029  1.7138 -0.9477  0.5909
    4TPM     C312043   1.693   0.885   3.910  1.2910 -0.7909  0.3325
    4TPM     C412044   1.670   0.792   3.813  0.2491 -0.1257 -0.1009
    4TPM     S112045   1.547   0.671   3.865 -0.2827  0.3581 -0.2175
    5BDD     C112046   2.001   0.726   3.601  0.3209 -0.0307  0.0208
    5BDD     C212047   1.923   0.814   3.531  0.3077  0.0295  0.1110
    5BDD     C312048   1.794   0.839   3.592  0.4108  0.1545  0.2780
    5BDD     C412049   1.775   0.770   3.708  0.5010  0.1877  0.3129
    5BDD     S112050   1.917   0.668   3.749  0.4632  0.0648  0.1389
    5BDD     C512051   1.965   0.879   3.404  0.1999 -0.0256  0.0468
    5BDD     C612052   1.694   0.931   3.534  0.4160  0.2364  0.3970
    5BDD     O112053   1.583   0.953   3.587  0.5049  0.3442  0.5411
    5BDD     O212054   2.076   0.858   3.351  0.1110 -0.1333 -0.0972
    5BDD     C712055   1.736   0.996   3.408  0.3082  0.1813  0.3330
    5BDD     C812056   1.865   0.971   3.346  0.2051  0.0564  0.1659
    5BDD     C912057   1.884   1.041   3.230  0.1148  0.0232  0.1310
    5BDD     S212058   1.742   1.142   3.190  0.1527  0.1461  0.3049
    5BDD    C1012059   1.658   1.084   3.338  0.2950  0.2416  0.4230
    5BDD    C1112060   1.507   1.150   3.358 -0.9018  0.9393  0.6595
    5BDD    C1212061   1.402   1.108   3.260  0.2991 -0.0626  0.6727
    5BDD    C1312062   1.319   1.210   3.172  0.2825 -0.0291 -0.0223
    5BDD    C1412063   1.209   1.300   3.236  0.6134  2.5107  0.1764
    5BDD    C1512064   1.085   1.330   3.156  0.4807  0.2717  0.8976
    5BDD    C1612065   1.112   1.393   3.009  0.3136  0.0219  1.1056
    5BDD    C1712066   1.338   0.962   3.300 -0.7303 -1.4027 -1.6213
    5BDD    C1812067   1.262   0.880   3.192 -0.7161 -0.0075 -0.0689
    5BDD    C1912068   1.996   1.052   3.121  1.1280  0.0220 -0.8313
    5BDD    C2012069   1.956   0.982   2.991 -1.3128 -0.7868  0.0614
    5BDD    C2112070   2.026   0.840   2.957 -0.0763  0.0242  0.1644
    5BDD    C2212071   2.133   0.815   2.844  0.5853  1.4761 -0.3710
    5BDD    C2312072   2.165   0.666   2.854  0.1053 -0.3357  0.3459
    5BDD    C2412073   2.314   0.645   2.856  0.3110 -1.3341  1.8481
    5BDD    C2512074   1.896   1.076   2.878 -0.6658  0.4400 -0.3203
    5BDD    C2612075   1.977   1.154   2.773  0.3323 -0.2210  0.2330
    6TPM     C112076   2.142   0.660   3.586  0.0322  0.6479 -0.2712
    6TPM     C212077   2.184   0.553   3.659 -0.3093  0.4972 -0.2926
    6TPM     C312078   2.324   0.523   3.644 -0.3558  0.1853 -0.1303
    6TPM     C412079   2.389   0.608   3.559 -0.0496  0.0982  0.0149
    6TPM     S112080   2.278   0.732   3.491  0.3239  0.4058 -0.0425
    7BDTP    C112081   3.015   0.593   3.518 -0.1503 -0.2017  0.0414
    7BDTP    C212082   2.981   0.663   3.398 -0.2218 -0.1655  0.0826
    7BDTP    C312083   2.850   0.695   3.365 -0.2535 -0.2625  0.1122
    7BDTP    C412084   2.748   0.658   3.454 -0.2130 -0.4019  0.1007
    7BDTP    C512085   2.782   0.588   3.574 -0.1415 -0.4382  0.0594
    7BDTP    C612086   2.913   0.556   3.607 -0.1097 -0.3412  0.0299
    7BDTP    C712087   2.606   0.680   3.441 -0.2344 -0.5205  0.1258
    7BDTP    C812088   2.532   0.632   3.544 -0.1830 -0.6424  0.1058
    7BDTP    S112089   2.633   0.551   3.672 -0.1004 -0.6243  0.0523
    7BDTP    C912090   3.158   0.571   3.531 -0.1289 -0.0832  0.0163
    7BDTP   C1012091   3.231   0.619   3.428 -0.1802  0.0388  0.0362
    7BDTP    S212092   3.131   0.700   3.300 -0.2628  0.0206  0.0897
    8FTM     S112093   2.907   0.892   3.134 -0.6480  0.8938  0.1551
    8FTM     C112094   2.831   0.822   2.986  0.1604  0.5530 -0.1115
    8FTM     C212095   2.745   0.723   3.021  0.7156 -0.0582 -0.4339
    8FTM     C312096   2.733   0.696   3.162  0.5502 -0.2932 -0.4917
    8FTM     C412097   2.813   0.777   3.236 -0.1546  0.1527 -0.2043
    8FTM     F112098   2.672   0.651   2.928  1.4064 -0.4413 -0.6958
    8FTM     C512099   2.886   0.861   2.849  0.3914  2.4774 -0.0605
    8FTM     C612100   2.793   0.867   2.733  0.1431 -0.0030  1.0175
    8FTM     C712101   2.687   0.979   2.749 -0.3316  0.9418  0.0412
    8FTM     C812102   2.538   0.945   2.784 -0.4832 -0.4943 -0.7091
    8FTM     C912103   2.479   1.067   2.839 -0.1600 -0.5225  1.3906
    8FTM    C1012104   2.492   1.070   2.978 -0.6548  0.2484 -0.3187
    8FTM    C1112105   2.755   0.742   2.661  1.3479 -0.8030 -0.3052
    8FTM    C1212106   2.841   0.689   2.556  1.6830 -1.0092 -0.3696
    9FTM     S112107   2.958   0.545   3.901 -0.0681  0.0852 -0.0604
    9FTM     C112108   2.964   0.377   3.965 -0.1823  0.2786  0.4723
    9FTM     C212109   2.955   0.288   3.862 -1.1203 -0.0519  0.8201
    9FTM     C312110   2.943   0.344   3.731 -1.7912 -0.4656  0.6966
    9FTM     C412111   2.943   0.481   3.733 -1.3526 -0.4515  0.2393
    9FTM     F112112   2.958   0.151   3.881 -1.4270  0.0007  1.2709
    9FTM     C512113   3.006   0.331   4.100 -0.7540  0.8056 -1.3140
    9FTM     C612114   2.897   0.344   4.209  2.3189 -0.4618 -0.1285
    9FTM     C712115   2.928   0.425   4.334 -0.6381  0.9442 -0.1241
    9FTM     C812116   2.928   0.577   4.302  0.2408 -0.8608 -0.9552
    9FTM     C912117   2.795   0.645   4.270  0.1312  0.2196  2.0859
    9FTM    C1012118   2.668   0.618   4.351 -0.5797 -0.4291  0.0305
    9FTM    C1112119   2.783   0.249   4.245 -0.1027  0.1569  0.4662
    9FTM    C1212120   2.826   0.128   4.317  1.0411 -0.2550 -1.1949
   10TPM     C112121   3.375   0.621   3.429  0.0327 -0.4630 -0.5329
   10TPM     C212122   3.445   0.663   3.319  0.2709 -0.9646 -0.5771
   10TPM     C312123   3.587   0.643   3.330  0.2917 -0.5485 -0.0012
   10TPM     C412124   3.626   0.586   3.448  0.0692  0.2705  0.4821
   10TPM     S112125   3.484   0.553   3.555 -0.1857  0.5820  0.2454
   11BDD     C112126   3.972   0.538   3.634  0.0000  0.4830 -0.1950
   11BDD     C212127   3.995   0.497   3.506  0.0052  0.3394 -0.1486
   11BDD     C312128   3.882   0.516   3.417 -0.0908 -0.0297 -0.1081
   11BDD     C412129   3.773   0.571   3.479 -0.1677 -0.1622 -0.1242
   11BDD     S112130   3.806   0.603   3.653 -0.1254  0.1660 -0.1912
   11BDD     C512131   4.123   0.439   3.459  0.0988  0.5362 -0.1398
   11BDD     C612132   3.885   0.479   3.274 -0.1026 -0.2376 -0.0550
   11BDD     O112133   3.787   0.495   3.198 -0.1854 -0.5559 -0.0200
   11BDD     O212134   4.221   0.422   3.536  0.1817  0.8545 -0.1746
   11BDD     C712135   4.013   0.421   3.228 -0.0091 -0.0408 -0.0462
   11BDD     C812136   4.126   0.402   3.316  0.0869  0.3284 -0.0867
   11BDD     C912137   4.235   0.346   3.254  0.1639  0.4608 -0.0706
   11BDD     S212138   4.202   0.315   3.081  0.1216  0.1326 -0.0036
   11BDD    C1012139   4.036   0.380   3.100 -0.0039 -0.1844  0.0001
   11BDD    C1112140   3.930   0.370   2.993 -0.6137 -0.5200 -1.1431
   11BDD    C1212141   3.934   0.254   2.900  0.8827  0.8828 -0.9800
   11BDD    C1312142   3.844   0.121   2.914 -0.6885  1.0513 -0.8679
   11BDD    C1412143   3.839   0.011   2.806  0.0651  0.4442  0.0765
   11BDD    C1512144   3.729   0.027   2.722  0.0306  0.0640  0.3075
   11BDD    C1612145   3.781   0.030   2.580 -0.2294 -0.5630 -0.0532
   11BDD    C1712146   3.912   0.297   2.756 -0.5205 -0.4490  1.3007
   11BDD    C1812147   3.962   0.432   2.705 -1.2900 -0.1697 -0.5487
   11BDD    C1912148   4.353   0.261   3.288 -1.4696 -0.6758 -0.1112
   11BDD    C2012149   4.476   0.331   3.352  1.3229 -0.6627 -1.8996
   11BDD    C2112150   4.538   0.437   3.251 -0.8257  0.2851  0.0275
   11BDD    C2212151   4.611   0.572   3.291 -0.3398  0.5064  1.4159
   11BDD    C2312152   4.545   0.690   3.354 -0.7048  0.1418  0.1037
   11BDD    C2412153   4.660   0.773   3.411 -1.2751  0.0782  0.8397
   11BDD    C2512154   4.567   0.265   3.452  1.0932 -0.2174  0.5439
   11BDD    C2612155   4.646   0.162   3.373 -0.0933 -1.1906 -0.0702
   12TPM     C112156   4.048   0.546   3.760  0.2473  0.3287  0.2548
   12TPM     C212157   4.090   0.664   3.815  0.4267  0.4408 -0.1131
   12TPM     C312158   4.191   0.648   3.916  0.5076  0.6166 -0.1656
   12TPM     C412159   4.227   0.518   3.938  0.3897  0.6385  0.1621
   12TPM     S112160   4.135   0.405   3.832  0.1657  0.4373  0.5659
   13BDTP    C112161   4.582   0.399   4.440 -0.3041 -0.1577 -0.0106
   13BDTP    C212162   4.576   0.271   4.378 -0.0013 -0.1201 -0.1210
   13BDTP    C312163   4.509   0.248   4.259  0.2445 -0.1311 -0.2593
   13BDTP    C412164   4.444   0.357   4.198  0.1894 -0.1815 -0.2904
   13BDTP    C512165   4.450   0.485   4.259 -0.1134 -0.2190 -0.1800
   13BDTP    C612166   4.517   0.508   4.378 -0.3590 -0.2080 -0.0418
   13BDTP    C712167   4.368   0.357   4.074  0.4074 -0.2018 -0.4255
   13BDTP    C812168   4.317   0.478   4.041  0.2843 -0.2522 -0.4220
   13BDTP    S112169   4.358   0.608   4.161 -0.1247 -0.2809 -0.2472
   13BDTP    C912170   4.658   0.399   4.563 -0.5219 -0.1373  0.1243
   13BDTP   C1012171   4.709   0.278   4.597 -0.3989 -0.0869  0.1211
   13BDTP    S212172   4.668   0.148   4.477  0.0101 -0.0582 -0.0538
   14FTM     S112173   4.540   0.049   4.049  0.0046  0.2481  0.1535
   14FTM     C112174   4.555  -0.120   4.111  1.2327  0.2310 -0.1230
   14FTM     C212175   4.523  -0.123   4.243  1.2487 -0.2177 -0.1272
   14FTM     C312176   4.486   0.002   4.303  0.3291 -0.5670  0.0796
   14FTM     C412177   4.490   0.105   4.213 -0.4151 -0.3797  0.2475
   14FTM     F112178   4.525  -0.239   4.319  2.0968 -0.3386 -0.3185
   14FTM     C512179   4.614  -0.212   4.012 -1.2042 -0.0746  0.8581
   14FTM     C612180   4.768  -0.228   4.000  0.7925  0.6200  1.3417
   14FTM     C712181   4.839  -0.330   3.901  1.0104  0.9278  0.7621
   14FTM     C812182   4.808  -0.464   3.853 -1.9509  1.6376  1.2764
   14FTM     C912183   4.803  -0.569   3.953  1.1599  0.4311 -1.8917
   14FTM    C1012184   4.663  -0.595   4.021  0.7803 -1.2622  1.3198
   14FTM    C1112185   4.846  -0.212   4.128 -0.1764 -0.4245  1.0678
   14FTM    C1212186   4.840  -0.309   4.245  0.6654 -0.0564 -0.8640
   15FTM     S112187   4.641   0.758   4.360 -0.4176  0.0797  0.0511
   15FTM     C112188   4.557   0.899   4.435 -0.8357  0.2078 -0.6384
   15FTM     C212189   4.451   0.856   4.509 -0.8153  0.2712 -0.5718
   15FTM     C312190   4.429   0.715   4.512 -0.4814  0.2252  0.0051
   15FTM     C412191   4.521   0.647   4.437 -0.2382  0.1232  0.3933
   15FTM     F112192   4.368   0.943   4.578 -1.0978  0.3747 -1.0298
   15FTM     C512193   4.628   1.037   4.446 -1.0588  0.9346  0.3671
   15FTM     C612194   4.767   1.037   4.517  0.3894  0.7506 -0.8254
   15FTM     C712195   4.782   0.986   4.667  0.4307 -0.5164  0.1395
   15FTM     C812196   4.710   1.059   4.779 -0.2873  0.6042 -0.5245
   15FTM     C912197   4.562   1.054   4.791 -0.4859 -0.4216  0.4663
   15FTM    C1012198   4.498   0.987   4.907 -1.1168 -0.5411  0.2152
   15FTM    C1112199   4.883   1.070   4.440  2.1232 -0.5945  0.6793
   15FTM    C1212200   4.970   1.161   4.513 -0.3994  0.4353  0.9187
   16TPM     C112201   4.802   0.247   4.710 -0.4031  0.7372  0.3452
   16TPM     C212202   4.837   0.319   4.820 -0.2520  0.2055  0.6542
   16TPM     C312203   4.909   0.244   4.919 -0.2687 -0.3220  0.2689
   16TPM     C412204   4.929   0.113   4.884 -0.4322 -0.1924 -0.3338
   16TPM     S112205   4.858   0.076   4.723 -0.5792  0.6121 -0.4626
   17BDD     C112206   4.876  -0.181   5.152 -0.2929 -0.0357 -0.1803
   17BDD     C212207   4.970  -0.098   5.206 -0.2626 -0.0842 -0.1590
   17BDD     C312208   5.004   0.014   5.121 -0.2040 -0.0870 -0.1401
   17BDD     C412209   4.935   0.015   5.003 -0.1905 -0.0410 -0.1472
   17BDD     S112210   4.823  -0.124   4.990 -0.2506  0.0095 -0.1783
   17BDD     C512211   5.032  -0.119   5.339 -0.2861 -0.1290 -0.1550
   17BDD     C612212   5.103   0.116   5.160 -0.1632 -0.1354 -0.1153
   17BDD     O112213   5.132   0.213   5.086 -0.1128 -0.1383 -0.0991
   17BDD     O212214   5.003  -0.216   5.412 -0.3366 -0.1264 -0.1712
   17BDD     C712215   5.166   0.095   5.292 -0.1868 -0.1810 -0.1115
   17BDD     C812216   5.132  -0.017   5.378 -0.2455 -0.1779 -0.1304
   17BDD     C912217   5.200  -0.018   5.496 -0.2588 -0.2239 -0.1229
   17BDD     S212218   5.312   0.121   5.508 -0.1988 -0.2746 -0.0919
   17BDD    C1012219   5.260   0.178   5.346 -0.1564 -0.2294 -0.0899
   17BDD    C1112220   5.333   0.302   5.296 -0.4703  0.0647 -0.6673
   17BDD    C1212221   5.281   0.427   5.365  0.0857 -1.2712 -0.5274
   17BDD    C1312222   5.380   0.539   5.358  1.5992 -0.8281  0.9382
   17BDD    C1412223   5.494   0.550   5.455 -0.3220 -0.4062  0.9202
   17BDD    C1512224   5.626   0.615   5.415 -0.6373 -0.3402  0.7234
   17BDD    C1612225   5.728   0.607   5.530  0.2642 -0.6739  0.7378
   17BDD    C1712226   5.142   0.463   5.329  1.1741 -0.3268  1.6602
   17BDD    C1812227   5.105   0.504   5.188  0.4674 -0.8026  0.3664
   17BDD    C1912228   5.189  -0.100   5.620  0.5166  0.4990 -0.0598
   17BDD    C2012229   5.296  -0.206   5.647  0.0517 -1.5300 -0.7605
   17BDD    C2112230   5.290  -0.250   5.797  0.9700  0.4668  0.8882
   17BDD    C2212231   5.158  -0.272   5.864 -0.8282 -0.5960 -0.4785
   17BDD    C2312232   5.150  -0.307   6.010 -0.5293  0.0252  0.3257
   17BDD    C2412233   5.206  -0.437   6.053 -0.1480  0.8430  1.0882
   17BDD    C2512234   5.287  -0.316   5.549  0.3815 -0.6943 -0.0271
   17BDD    C2612235   5.398  -0.424   5.547 -0.2368 -0.0375 -0.5399
   18TPM     C112236   4.803  -0.293   5.201 -0.2326  0.8681 -0.1971
   18TPM     C212237   4.811  -0.415   5.141  0.1206  0.9952 -0.4158
   18TPM     C312238   4.714  -0.510   5.189  0.5236  0.5624 -0.4375
   18TPM     C412239   4.632  -0.460   5.286  0.4776  0.1059 -0.2350
   18TPM     S112240   4.672  -0.288   5.324 -0.0825  0.1872  0.0004
   19BDTP    C112241   4.446  -0.963   5.586 -0.1469  0.1674 -0.1773
   19BDTP    C212242   4.468  -0.871   5.692 -0.0587  0.1211 -0.1546
   19BDTP    C312243   4.497  -0.737   5.670 -0.1347  0.1433 -0.1204
   19BDTP    C412244   4.506  -0.692   5.537 -0.3059  0.2151 -0.1076
   19BDTP    C512245   4.484  -0.784   5.431 -0.3941  0.2608 -0.1304
   19BDTP    C612246   4.455  -0.918   5.453 -0.3181  0.2387 -0.1646
   19BDTP    C712247   4.535  -0.558   5.490 -0.4112  0.2500 -0.0734
   19BDTP    C812248   4.536  -0.546   5.355 -0.5722  0.3197 -0.0690
   19BDTP    S112249   4.500  -0.702   5.269 -0.6130  0.3500 -0.1080
   19BDTP    C912250   4.417  -1.097   5.634 -0.0416  0.1318 -0.2117
   19BDTP   C1012251   4.416  -1.109   5.769  0.1193  0.0627 -0.2160
   19BDTP    S212252   4.451  -0.953   5.854  0.1601  0.0322 -0.1769
   20FTM     S112253   4.633  -0.510   5.813 -0.2646 -0.1873 -0.3363
   20FTM     C112254   4.537  -0.453   5.954 -0.4562  0.8171 -0.8535
   20FTM     C212255   4.435  -0.540   5.978 -0.8186  1.2774 -0.7077
   20FTM     C312256   4.425  -0.653   5.891 -0.9658  0.8869 -0.1971
   20FTM     C412257   4.523  -0.653   5.796 -0.7078  0.1019  0.0564
   20FTM     F112258   4.344  -0.521   6.081 -1.0383  2.0802 -1.0281
   20FTM     C512259   4.547  -0.315   6.021 -0.5953  1.0947  1.0808
   20FTM     C612260   4.474  -0.206   5.973 -0.0716  0.7249 -1.8482
   20FTM     C712261   4.320  -0.210   6.012  0.1931 -0.2507 -0.1423
   20FTM     C812262   4.246  -0.257   6.142  1.2786  0.6553 -0.9323
   20FTM     C912263   4.292  -0.251   6.280 -0.8096  0.3455 -0.4113
   20FTM    C1012264   4.380  -0.122   6.294 -1.0871  0.1694 -0.2325
   20FTM    C1112265   4.502  -0.170   5.831  0.0968 -0.8700 -0.2296
   20FTM    C1212266   4.414  -0.248   5.719 -0.1283  1.2491  0.3173
   21FTM     S112267   4.278  -1.012   5.246  0.2648  0.2249 -0.1574
   21FTM     C112268   4.337  -1.155   5.153 -0.2186 -0.2360  0.2275
   21FTM     C212269   4.459  -1.192   5.199 -0.5623 -0.8528  0.6664
   21FTM     C312270   4.513  -1.115   5.306 -0.4729 -1.0009  0.7286
   21FTM     C412271   4.429  -1.014   5.344 -0.0466 -0.4806  0.3243
   21FTM     F112272   4.529  -1.300   5.146 -0.9785 -1.3199  1.0380
   21FTM     C512273   4.254  -1.221   5.058  0.4889  0.6439 -0.4504
   21FTM     C612274   4.249  -1.160   4.919 -0.3565 -0.1304  0.3327
   21FTM     C712275   4.377  -1.174   4.840 -0.5362  0.0413 -0.2711
   21FTM     C812276   4.410  -1.311   4.782  0.9703  0.3731 -0.8794
   21FTM     C912277   4.555  -1.313   4.772  1.2704 -0.2416 -0.0677
   21FTM    C1012278   4.648  -1.435   4.799  0.3079 -0.3225  0.5338
   21FTM    C1112279   4.109  -1.142   4.844  1.3413 -0.9602  0.2822
   21FTM    C1212280   3.981  -1.061   4.883  0.4230 -0.1251  0.8129
   22TPM     C112281   4.390  -1.237   5.845  0.6149 -0.1204  0.4658
   22TPM     C212282   4.460  -1.350   5.817  1.0760  0.1173  0.6369
   22TPM     C312283   4.454  -1.449   5.921  0.6871 -0.1249  0.3915
   22TPM     C412284   4.380  -1.411   6.029 -0.0705 -0.5473  0.0334
   22TPM     S112285   4.310  -1.246   6.007 -0.3536 -0.6728 -0.0221
   23BDD     C112286   4.291  -1.556   6.376  0.2803 -0.1216  0.2577
   23BDD     C212287   4.426  -1.534   6.384  0.2681 -0.0489  0.2652
   23BDD     C312288   4.484  -1.485   6.260  0.2329  0.0684  0.2953
   23BDD     C412289   4.393  -1.470   6.160  0.2188  0.0836  0.3100
   23BDD     S112290   4.228  -1.517   6.212  0.2486 -0.0482  0.2877
   23BDD     C512291   4.506  -1.558   6.506  0.2881 -0.0849  0.2451
   23BDD     C612292   4.628  -1.455   6.247  0.2148  0.1612  0.3080
   23BDD     O112293   4.678  -1.412   6.140  0.1845  0.2625  0.3339
   23BDD     O212294   4.455  -1.600   6.612  0.3184 -0.1857  0.2192
   23BDD     C712295   4.708  -1.478   6.369  0.2347  0.1254  0.2879
   23BDD     C812296   4.650  -1.527   6.492  0.2699  0.0081  0.2578
   23BDD     C912297   4.741  -1.542   6.593  0.2838 -0.0069  0.2431
   23BDD     S212298   4.906  -1.496   6.540  0.2541  0.1246  0.2656
   23BDD    C1012299   4.843  -1.456   6.377  0.2226  0.1981  0.2955
   23BDD    C1112300   4.935  -1.400   6.271  0.4663 -0.6650 -1.5054
   23BDD    C1212301   5.036  -1.286   6.284  0.1539 -1.2430 -0.8316
   23BDD    C1312302   4.982  -1.139   6.311 -0.7626  0.2636 -0.2196
   23BDD    C1412303   4.887  -1.075   6.212 -1.5007  0.1505 -1.6023
   23BDD    C1512304   4.864  -0.924   6.210 -0.6232  0.2042 -0.6025
   23BDD    C1612305   4.852  -0.879   6.061  0.6515  0.9225 -0.6015
   23BDD    C1712306   5.145  -1.292   6.386 -0.6570 -0.5719 -1.8053
   23BDD    C1812307   5.281  -1.247   6.370  0.9262  0.3966 -0.0946
   23BDD    C1912308   4.734  -1.594   6.745  0.9049  0.3967  0.8567
   23BDD    C2012309   4.713  -1.484   6.848 -0.0025  0.0246 -0.2066
   23BDD    C2112310   4.604  -1.372   6.853  1.7034 -0.2140 -0.3157
   23BDD    C2212311   4.452  -1.420   6.874  0.1185  0.1762  0.7708
   23BDD    C2312312   4.448  -1.487   7.003 -0.1316  0.5896 -2.1540
   23BDD    C2412313   4.306  -1.524   7.027  1.4146 -1.1345  0.9239
   23BDD    C2512314   4.845  -1.432   6.891 -1.2398 -0.6145  0.2965
   23BDD    C2612315   4.849  -1.407   7.032  0.5510 -0.2841  0.2845
   24TPM     C112316   4.186  -1.591   6.476 -0.5047  0.2580  0.0444
   24TPM     C212317   4.064  -1.531   6.480 -0.6590 -0.0710  0.4708
   24TPM     C312318   3.979  -1.577   6.587 -0.2744 -0.5152  0.5873
   24TPM     C412319   4.037  -1.674   6.664  0.1732 -0.5249  0.2496
   24TPM     S112320   4.204  -1.713   6.608  0.1433  0.0304 -0.2455
   25BDTP    C112321   3.701  -1.764   7.189 -0.2607 -0.4699 -0.2154
   25BDTP    C212322   3.718  -1.622   7.186 -0.0172 -0.4904  0.1189
   25BDTP    C312323   3.793  -1.558   7.089  0.0666 -0.3846  0.2520
   25BDTP    C412324   3.854  -1.636   6.989 -0.0970 -0.2527  0.0465
   25BDTP    C512325   3.836  -1.778   6.992 -0.3404 -0.2322 -0.2878
   25BDTP    C612326   3.762  -1.842   7.090 -0.4243 -0.3379 -0.4212
   25BDTP    C712327   3.935  -1.592   6.878 -0.0518 -0.1275  0.1291
   25BDTP    C812328   3.980  -1.692   6.798 -0.2471 -0.0153 -0.1237
   25BDTP    S112329   3.924  -1.857   6.853 -0.5157 -0.0527 -0.5021
   25BDTP    C912330   3.619  -1.808   7.300 -0.3058 -0.5951 -0.2981
   25BDTP   C1012331   3.575  -1.708   7.380 -0.1104 -0.7074 -0.0453
   25BDTP    S212332   3.630  -1.544   7.325  0.1581 -0.6697  0.3330
   26FTM     S112333   3.957  -1.410   7.241 -0.1765 -0.8694 -0.5473
   26FTM     C112334   3.969  -1.232   7.211  0.4312 -0.7823  0.1513
   26FTM     C212335   3.883  -1.196   7.113  0.2956 -0.0362  0.5305
   26FTM     C312336   3.804  -1.301   7.056 -0.2751  0.5014  0.3061
   26FTM     C412337   3.831  -1.422   7.113 -0.5868  0.1546 -0.2632
   26FTM     F112338   3.870  -1.065   7.068  0.6804  0.2055  1.1029
   26FTM     C512339   4.070  -1.141   7.285  0.4589 -0.5368  0.9429
   26FTM     C612340   4.212  -1.137   7.217 -0.4374  0.0383 -0.0785
   26FTM     C712341   4.301  -1.067   7.329 -0.2370  0.9288  2.0491
   26FTM     C812342   4.452  -1.034   7.306  0.6485 -0.4231  0.6211
   26FTM     C912343   4.525  -1.026   7.432  0.2451 -0.2597 -0.1035
   26FTM    C1012344   4.675  -1.029   7.429 -0.1659 -1.1269  0.7914
   26FTM    C1112345   4.233  -1.097   7.075 -0.1112  0.6553  0.6651
   26FTM    C1212346   4.196  -0.960   7.025  0.7683  0.9276  0.7776
   27FTM     S112347   3.929  -2.084   7.052  0.4287 -0.1345  0.0746
   27FTM     C112348   3.854  -2.239   7.105  0.0963 -0.1450 -0.4053
   27FTM     C212349   3.728  -2.216   7.152 -0.2648 -0.1771 -1.3130
   27FTM     C312350   3.684  -2.080   7.150 -0.3040 -0.1960 -1.6816
   27FTM     C412351   3.778  -1.996   7.099  0.0382 -0.1764 -1.0351
   27FTM     F112352   3.646  -2.317   7.201 -0.5811 -0.1922 -1.8640
   27FTM     C512353   3.935  -2.353   7.134 -1.5483 -0.3724 -1.6383
   27FTM     C612354   3.986  -2.449   7.037 -0.8835  0.1404 -0.5752
   27FTM     C712355   3.885  -2.536   7.001  0.5517 -0.1217 -0.2990
   27FTM     C812356   3.851  -2.487   6.858 -0.1402  1.3793 -1.1948
   27FTM     C912357   3.821  -2.612   6.769  0.6564 -0.4005 -0.2584
   27FTM    C1012358   3.698  -2.615   6.663 -0.8518 -0.9705 -0.8505
   27FTM    C1112359   4.114  -2.526   7.091  0.6550  1.0784 -0.7688
   27FTM    C1212360   4.247  -2.453   7.085  0.0934 -1.2568 -0.2215
   28TPM     C112361   3.485  -1.728   7.483  0.6802  0.2220  0.7497
   28TPM     C212362   3.506  -1.805   7.594  0.8169  0.8991  1.2112
   28TPM     C312363   3.404  -1.791   7.694  0.6024  1.0495  0.9753
   28TPM     C412364   3.305  -1.703   7.661  0.3021  0.4876  0.3339
   28TPM     S112365   3.334  -1.631   7.498  0.2668 -0.2818 -0.0245
   29BDD     C112366   2.972  -1.710   7.869 -0.0515  0.0725  0.3615
   29BDD     C212367   3.008  -1.578   7.863  0.0001  0.0513  0.1909
   29BDD     C312368   3.134  -1.555   7.794 -0.1928 -0.0484 -0.2049
   29BDD     C412369   3.193  -1.670   7.750 -0.3887 -0.1018 -0.3303
   29BDD     S112370   3.094  -1.815   7.790 -0.3452 -0.0305  0.0384
   29BDD     C512371   2.927  -1.468   7.919  0.2287  0.1211  0.3856
   29BDD     C612372   3.191  -1.420   7.776 -0.1757 -0.0877 -0.4443
   29BDD     O112373   3.300  -1.401   7.717 -0.3421 -0.1738 -0.7856
   29BDD     O212374   2.818  -1.487   7.978  0.3951  0.2072  0.7269
   29BDD     C712375   3.110  -1.310   7.832  0.0529 -0.0176 -0.2497
   29BDD     C812376   2.984  -1.333   7.901  0.2457  0.0823  0.1460
   29BDD     C912377   2.925  -1.218   7.945  0.4417  0.1349  0.2714
   29BDD     S212378   3.023  -1.073   7.905  0.3982  0.0638 -0.0974
   29BDD    C1012379   3.146  -1.178   7.826  0.1045 -0.0393 -0.4205
   29BDD    C1112380   3.281  -1.111   7.774  0.8494 -0.0184  0.7684
   29BDD    C1212381   3.286  -1.018   7.644  0.0523  1.1683 -1.3315
   29BDD    C1312382   3.238  -1.072   7.510 -1.5887  0.4240  0.8214
   29BDD    C1412383   3.283  -1.207   7.473 -0.0570  0.9558 -0.5543
   29BDD    C1512384   3.256  -1.280   7.345  0.7066 -0.8627 -0.1026
   29BDD    C1612385   3.319  -1.209   7.232 -1.2422 -0.5545 -0.6110
   29BDD    C1712386   3.437  -0.968   7.644 -0.6691  0.4835  0.8782
   29BDD    C1812387   3.490  -0.831   7.585 -0.1329 -0.0125 -0.3152
   29BDD    C1912388   2.797  -1.181   8.012 -1.1797 -0.5136  0.0356
   29BDD    C2012389   2.676  -1.156   7.929 -0.6548  0.1726 -1.0265
   29BDD    C2112390   2.546  -1.171   8.018  0.1060 -0.3125 -0.4696
   29BDD    C2212391   2.427  -1.160   7.930  0.6283 -0.8025  0.2950
   29BDD    C2312392   2.289  -1.117   7.984 -0.8347  0.4518 -0.1744
   29BDD    C2412393   2.195  -1.068   7.867 -0.6065  0.2727 -0.1626
   29BDD    C2512394   2.681  -1.035   7.821 -0.3010  0.8634 -0.0580
   29BDD    C2612395   2.685  -0.887   7.859  1.5981  0.8101 -0.7831
   30TPM     C112396   2.848  -1.769   7.911 -0.4570  0.3592  0.8024
   30TPM     C212397   2.733  -1.733   7.847 -0.5680  0.1898  0.9030
   30TPM     C312398   2.629  -1.832   7.855 -0.2350 -0.2005  0.5429
   30TPM     C412399   2.663  -1.943   7.925  0.1301 -0.3287  0.1682
   30TPM     S112400   2.832  -1.932   7.988  0.0811  0.0364  0.2410
   31BDTP    C112401   2.380  -2.501   7.860 -0.2611  0.3176 -0.2114
   31BDTP    C212402   2.278  -2.420   7.916  0.0014  0.4580  0.0691
   31BDTP    C312403   2.298  -2.287   7.950  0.3266  0.3803  0.1891
   31BDTP    C412404   2.425  -2.231   7.927  0.3971  0.1540  0.0255
   31BDTP    C512405   2.527  -2.313   7.870  0.1347  0.0141 -0.2548
   31BDTP    C612406   2.507  -2.446   7.837 -0.1907  0.0914 -0.3749
   31BDTP    C712407   2.469  -2.096   7.953  0.7146  0.0363  0.1044
   31BDTP    C812408   2.598  -2.072   7.920  0.7032 -0.1826 -0.1005
   31BDTP    S112409   2.682  -2.218   7.850  0.2888 -0.2706 -0.4222
   31BDTP    C912410   2.335  -2.637   7.834 -0.5786  0.4356 -0.2903
   31BDTP   C1012411   2.206  -2.660   7.867 -0.5673  0.6545 -0.0854
   31BDTP    S212412   2.123  -2.515   7.936 -0.1529  0.7426  0.2364
   32FTM     S112413   2.014  -2.222   7.966 -0.0859  0.0747 -0.4164
   32FTM     C112414   1.970  -2.159   8.129 -0.1123 -0.6688 -0.1286
   32FTM     C212415   2.084  -2.135   8.201 -0.1287 -1.2004  0.0851
   32FTM     C312416   2.208  -2.163   8.135 -0.1219 -1.0657  0.0391
   32FTM     C412417   2.189  -2.211   8.009 -0.0995 -0.4091 -0.2178
   32FTM     F112418   2.081  -2.086   8.331 -0.1509 -1.8415  0.3350
   32FTM     C512419   1.838  -2.144   8.178  0.7611 -0.2657  0.3223
   32FTM     C612420   1.776  -2.016   8.116 -0.1738  0.4956  0.1355
   32FTM     C712421   1.749  -1.992   7.964  1.5989 -1.0711  0.9283
   32FTM     C812422   1.656  -2.092   7.876 -0.0489 -1.1774 -0.2431
   32FTM     C912423   1.526  -2.147   7.946 -0.1770 -0.2128  1.0222
   32FTM    C1012424   1.452  -2.271   7.879 -0.2596  0.1152  1.2491
   32FTM    C1112425   1.744  -1.914   8.211  1.5735 -1.0750 -0.7476
   32FTM    C1212426   1.622  -1.961   8.313  0.4435 -0.0760  0.0921
   33FTM     S112427   2.791  -2.536   7.858  0.4494 -0.4784 -0.4072
   33FTM     C112428   2.841  -2.630   7.713  0.1236 -0.1272 -0.7550
   33FTM     C212429   2.736  -2.643   7.628  0.0412  0.4294 -0.7439
   33FTM     C312430   2.613  -2.581   7.668  0.2218  0.6127 -0.4708
   33FTM     C412431   2.624  -2.519   7.789  0.4502  0.1822 -0.2662
   33FTM     F112432   2.745  -2.711   7.507 -0.2029  0.8066 -0.9803
   33FTM     C512433   2.994  -2.639   7.686 -0.9070  0.4244  1.2659
   33FTM     C612434   3.062  -2.752   7.761 -0.4193  0.1159 -1.5588
   33FTM     C712435   3.053  -2.896   7.748 -0.6434  1.4673 -1.8564
   33FTM     C812436   2.943  -2.947   7.651  0.2678 -0.5432  0.9628
   33FTM     C912437   2.844  -3.031   7.711  0.0090 -0.4272 -0.5977
   33FTM    C1012438   2.699  -3.026   7.661 -0.2323  0.1850 -0.6678
   33FTM    C1112439   3.183  -2.717   7.847  0.9394  1.5103 -0.9761
   33FTM    C1212440   3.330  -2.751   7.790  0.2825  0.8281  0.4004
   34TPM     C112441   2.141  -2.777   7.861 -0.3069  0.2285 -0.4173
   34TPM     C212442   2.047  -2.839   7.938 -0.1652  0.0882 -0.3573
   34TPM     C312443   2.029  -2.978   7.907  0.4623 -0.0997  0.0637
   34TPM     C412444   2.108  -3.023   7.805  0.7991 -0.1024  0.3245
   34TPM     S112445   2.214  -2.891   7.741  0.3463  0.1337  0.0566
   35BDD     C112446   2.161  -3.408   7.789  0.1830 -0.3009 -0.1188
   35BDD     C212447   2.066  -3.378   7.695  0.1124 -0.2513 -0.0318
   35BDD     C312448   2.040  -3.235   7.684 -0.0590 -0.2623  0.2208
   35BDD     C412449   2.114  -3.159   7.770 -0.1165 -0.3202  0.3228
   35BDD     S112450   2.223  -3.261   7.870  0.0399 -0.3648  0.1098
   35BDD     C512451   1.997  -3.478   7.613  0.1998 -0.1920 -0.1779
   35BDD     C612452   1.941  -3.180   7.589 -0.1594 -0.2148  0.3517
   35BDD     O112453   1.918  -3.057   7.580 -0.3072 -0.2244  0.5696
   35BDD     O212454   2.020  -3.601   7.622  0.3476 -0.1825 -0.3957
   35BDD     C712455   1.872  -3.281   7.506 -0.0720 -0.1557  0.2056
   35BDD     C812456   1.898  -3.423   7.517  0.0993 -0.1448 -0.0470
   35BDD     C912457   1.824  -3.499   7.432  0.1568 -0.0870 -0.1489
   35BDD     S212458   1.715  -3.398   7.331  0.0005 -0.0419  0.0641
   35BDD    C1012459   1.777  -3.251   7.412 -0.1427 -0.1061  0.2927
   35BDD    C1112460   1.721  -3.123   7.344  0.8081  0.3621 -0.4187
   35BDD    C1212461   1.643  -3.019   7.453 -0.4141  0.6665 -0.9090
   35BDD    C1312462   1.568  -2.900   7.396  0.2358 -0.7594 -1.6378
   35BDD    C1412463   1.573  -2.761   7.461  0.1413 -0.4826  0.5442
   35BDD    C1512464   1.683  -2.670   7.394  1.9025  0.1611 -0.7510
   35BDD    C1612465   1.729  -2.588   7.498  0.2895 -0.1037 -0.5231
   35BDD    C1712466   1.543  -3.124   7.538 -0.1121 -1.2908 -0.3515
   35BDD    C1812467   1.417  -3.158   7.468  0.6309  0.1083  0.5818
   35BDD    C1912468   1.803  -3.645   7.415 -0.5594  0.3456 -0.0573
   35BDD    C2012469   1.711  -3.720   7.508  0.7671 -0.3620  0.1860
   35BDD    C2112470   1.566  -3.657   7.527 -0.2720 -0.4838 -0.9254
   35BDD    C2212471   1.521  -3.629   7.677  0.4392 -0.7587  0.6877
   35BDD    C2312472   1.570  -3.488   7.713  1.5431 -0.0534  1.1031
   35BDD    C2412473   1.457  -3.412   7.793 -1.4930 -0.5507  0.8517
   35BDD    C2512474   1.764  -3.848   7.586  0.9612  0.0012 -1.2259
   35BDD    C2612475   1.850  -3.948   7.531 -1.0959 -0.2460  0.8699
   36TPM     C112476   2.225  -3.539   7.824 -0.5052 -0.4324 -0.3254
   36TPM     C212477   2.356  -3.525   7.861 -0.5130 -0.4781 -0.2799
   36TPM     C312478   2.416  -3.647   7.907 -0.6351 -0.4529 -0.0497
   36TPM     C412479   2.332  -3.754   7.905 -0.7203 -0.3879  0.0805
   36TPM     S112480   2.168  -3.708   7.845 -0.6525 -0.3533 -0.0790
   37BDTP    C112481   2.324  -4.381   7.928 -0.3893 -0.1557 -0.1063
   37BDTP    C212482   2.431  -4.353   8.019 -0.2886 -0.0870 -0.2444
   37BDTP    C312483   2.472  -4.224   8.049 -0.2089 -0.0665 -0.4404
   37BDTP    C412484   2.405  -4.117   7.986 -0.2291 -0.1159 -0.5032
   37BDTP    C512485   2.299  -4.145   7.895 -0.3298 -0.1843 -0.3651
   37BDTP    C612486   2.258  -4.275   7.866 -0.4096 -0.2050 -0.1692
   37BDTP    C712487   2.430  -3.975   8.001 -0.1589 -0.1065 -0.6982
   37BDTP    C812488   2.348  -3.897   7.927 -0.2014 -0.1642 -0.7131
   37BDTP    S112489   2.229  -3.991   7.828 -0.3363 -0.2382 -0.4820
   37BDTP    C912490   2.300  -4.523   7.913 -0.4596 -0.1649  0.0890
   37BDTP   C1012491   2.381  -4.602   7.987 -0.4170 -0.1072  0.1037
   37BDTP    S212492   2.501  -4.508   8.086 -0.2821 -0.0334 -0.1273
   38FTM     S112493   2.565  -4.132   8.300 -0.0885  0.1230  0.6581
   38FTM     C112494   2.742  -4.150   8.326 -0.0302 -1.0737 -0.3473
   38FTM     C212495   2.801  -4.201   8.215 -0.9826 -1.3564 -0.7379
   38FTM     C312496   2.713  -4.229   8.105 -1.7961 -0.6760 -0.2899
   38FTM     C412497   2.584  -4.198   8.133 -1.4554  0.1546  0.4686
   38FTM     F112498   2.937  -4.225   8.206 -1.1743 -2.2479 -1.5242
   38FTM     C512499   2.814  -4.071   8.446  0.2389  0.2622  0.2922
   38FTM     C612500   2.770  -4.104   8.582  0.1227 -1.1799 -1.4273
   38FTM     C712501   2.896  -4.097   8.669 -0.8972  0.8554 -0.1777
   38FTM     C812502   2.999  -4.217   8.648 -0.8224 -0.2785 -0.2361
   38FTM     C912503   2.969  -4.338   8.719  0.2522 -0.7978 -0.4760
   38FTM    C1012504   3.028  -4.457   8.659  0.5605  0.1499 -0.8479
   38FTM    C1112505   2.633  -4.041   8.640  0.1812  0.5300  0.6875
   38FTM    C1212506   2.638  -3.910   8.722 -0.5467  0.2574 -1.3754
   39FTM     S112507   2.148  -4.396   7.641 -0.1883 -0.2392  0.2402
   39FTM     C112508   1.979  -4.355   7.595 -0.3614 -0.5627  0.5785
   39FTM     C212509   1.926  -4.268   7.686 -0.1993 -0.3332  0.4557
   39FTM     C312510   2.012  -4.230   7.794  0.0631  0.0980  0.0998
   39FTM     C412511   2.134  -4.288   7.786  0.1033  0.2017 -0.0548
   39FTM     F112512   1.797  -4.219   7.676 -0.2788 -0.4996  0.6585
   39FTM     C512513   1.924  -4.405   7.464 -0.5016 -0.0146  0.7814
   39FTM     C612514   1.897  -4.552   7.479 -0.7624  0.4837 -0.5407
   39FTM     C712515   1.943  -4.653   7.381 -0.8145 -0.1671 -0.1762
   39FTM     C812516   1.891  -4.642   7.238  0.6978 -0.6741 -0.5511
   39FTM     C912517   1.745  -4.624   7.190 -1.1437 -0.1400 -0.3613
   39FTM    C1012518   1.646  -4.747   7.196 -0.6145 -0.3029  0.0254
   39FTM    C1112519   1.794  -4.602   7.589 -1.0365  0.5433  0.1683
   39FTM    C1212520   1.695  -4.713   7.556 -0.3094 -0.3187  0.0887
   40TPM     C112521   2.402  -4.745   7.967  0.0246 -0.5746  0.0224
   40TPM     C212522   2.306  -4.840   7.947  0.4445 -1.0692  0.3021
   40TPM     C312523   2.350  -4.974   7.975  1.1716 -0.8360  0.3133
   40TPM     C412524   2.479  -4.982   8.017  1.3062 -0.1633  0.0423
   40TPM     S112525   2.556  -4.818   8.024  0.5189  0.2306 -0.2508
   41BDD     C112526   2.526  -5.377   8.062  0.0296 -0.0289 -0.1699
   41BDD     C212527   2.650  -5.327   8.037  0.0353  0.0082 -0.0675
   41BDD     C312528   2.652  -5.183   8.021  0.0405  0.0340  0.1535
   41BDD     C412529   2.528  -5.125   8.034  0.0387  0.0162  0.2167
   41BDD     S112530   2.402  -5.248   8.067  0.0303 -0.0341  0.0038
   41BDD     C512531   2.773  -5.409   8.028  0.0361  0.0213 -0.1695
   41BDD     C612532   2.776  -5.107   7.993  0.0470  0.0752  0.2939
   41BDD     O112533   2.777  -4.982   7.979  0.0515  0.0973  0.4846
   41BDD     O212534   2.771  -5.534   8.042  0.0316 -0.0010 -0.3600
   41BDD     C712535   2.898  -5.189   7.984  0.0478  0.0883  0.1919
   41BDD     C812536   2.897  -5.334   8.000  0.0426  0.0626 -0.0291
   41BDD     C912537   3.020  -5.391   7.987  0.0445  0.0803 -0.0925
   41BDD     S212538   3.147  -5.268   7.954  0.0528  0.1304  0.1204
   41BDD    C1012539   3.023  -5.139   7.959  0.0536  0.1253  0.2940
   41BDD    C1112540   3.065  -4.988   7.923  0.0953  0.7450 -1.1722
   41BDD    C1212541   3.198  -4.947   7.881  0.1623 -0.9228 -0.3875
   41BDD    C1312542   3.258  -5.000   7.761  1.1429  1.0184 -0.9253
   41BDD    C1412543   3.191  -5.012   7.623  0.1296 -0.4668 -0.5851
   41BDD    C1512544   3.081  -4.906   7.594  0.8655  1.0855  0.6655
   41BDD    C1612545   2.983  -4.965   7.478 -1.4615  1.3285 -0.4697
   41BDD    C1712546   3.267  -4.825   7.954  1.1184  0.7015  0.5630
   41BDD    C1812547   3.206  -4.688   7.918  0.9939 -0.2870  1.2014
   41BDD    C1912548   3.046  -5.529   8.015 -0.7490 -0.3463  0.8555
   41BDD    C2012549   3.147  -5.554   8.129 -1.1859  0.9839 -1.5820
   41BDD    C2112550   3.292  -5.569   8.073  0.8241 -0.3118 -0.0015
   41BDD    C2212551   3.405  -5.625   8.158 -0.2662  0.0184 -1.1656
   41BDD    C2312552   3.559  -5.612   8.116  0.9576  0.1944  1.3166
   41BDD    C2412553   3.586  -5.474   8.040  0.3778  0.4635 -0.0497
   41BDD    C2512554   3.126  -5.486   8.272 -0.9675  1.1741 -0.2562
   41BDD    C2612555   2.984  -5.503   8.339 -0.2876 -1.3782  0.0539
   42TPM     C112556   2.476  -5.515   8.092  0.7665  0.3145  0.3579
   42TPM     C212557   2.393  -5.556   8.191  1.2981  0.5358  0.9120
   42TPM     C312558   2.355  -5.695   8.181  0.7947  0.6547  1.0996
   42TPM     C412559   2.410  -5.759   8.074 -0.1206  0.5240  0.6886
   42TPM     S112560   2.514  -5.649   7.977 -0.4203  0.2384  0.0273
   43BDTP    C112561   2.441  -6.382   8.105  0.3899  0.0950  0.0973
   43BDTP    C212562   2.381  -6.364   7.977  0.3195 -0.0515  0.1087
   43BDTP    C312563   2.354  -6.239   7.924  0.2501 -0.1125 -0.0013
   43BDTP    C412564   2.386  -6.126   8.001  0.2498 -0.0255 -0.1283
   43BDTP    C512565   2.446  -6.144   8.129  0.3202  0.1209 -0.1397
   43BDTP    C612566   2.473  -6.269   8.182  0.3896  0.1821 -0.0301
   43BDTP    C712567   2.367  -5.986   7.967  0.1850 -0.0649 -0.2563
   43BDTP    C812568   2.409  -5.900   8.062  0.2032  0.0433 -0.3617
   43BDTP    S112569   2.479  -5.983   8.209  0.3048  0.2106 -0.3142
   43BDTP    C912570   2.459  -6.522   8.139  0.4547  0.1342  0.2251
   43BDTP   C1012571   2.418  -6.609   8.044  0.4365  0.0257  0.3307
   43BDTP    S212572   2.348  -6.525   7.897  0.3349 -0.1412  0.2831
   44FTM     S112573   2.189  -6.141   7.709  0.0563 -0.4211  0.1372
   44FTM     C112574   2.247  -6.187   7.545 -1.0152 -0.1922 -0.3239
   44FTM     C212575   2.362  -6.259   7.555 -0.8138 -0.0154 -1.1835
   44FTM     C312576   2.410  -6.283   7.688  0.1624 -0.0465 -1.5277
   44FTM     C412577   2.330  -6.227   7.782  0.7269 -0.2538 -0.9114
   44FTM     F112578   2.430  -6.308   7.444 -1.5015  0.1850 -1.7098
   44FTM     C512579   2.222  -6.099   7.430  0.8603  0.1573 -1.0669
   44FTM     C612580   2.308  -5.978   7.396  0.0172 -1.8919  0.1997
   44FTM     C712581   2.286  -5.946   7.254 -0.1715 -0.1991  1.3729
   44FTM     C812582   2.205  -5.818   7.194 -0.3552  0.2393 -0.9014
   44FTM     C912583   2.053  -5.843   7.190  0.2870 -0.5040  0.3163
   44FTM    C1012584   1.967  -5.809   7.303 -0.3276  0.5636 -0.3138
   44FTM    C1112585   2.315  -5.853   7.502  0.0651 -0.3040  0.5396
   44FTM    C1212586   2.210  -5.746   7.543 -1.5565  0.5363 -0.4503
   45FTM     S112587   2.628  -6.399   8.396  0.2961  0.1442  0.1706
   45FTM     C112588   2.603  -6.334   8.563 -0.2683  0.4142 -0.0146
   45FTM     C212589   2.520  -6.227   8.558 -0.1246  0.5118 -0.4926
   45FTM     C312590   2.471  -6.189   8.429  0.4200  0.3855 -0.7377
   45FTM     C412591   2.519  -6.271   8.330  0.7026  0.1848 -0.4380
   45FTM     F112592   2.482  -6.156   8.672 -0.4777  0.7211 -0.7358
   45FTM     C512593   2.709  -6.391   8.659 -0.7392  0.4221 -0.0020
   45FTM     C612594   2.665  -6.489   8.773  0.5038  0.9343 -0.1360
   45FTM     C712595   2.774  -6.538   8.853 -1.1678 -0.5221 -0.9014
   45FTM     C812596   2.873  -6.646   8.799  0.5483  0.5291  0.1078
   45FTM     C912597   2.992  -6.613   8.878 -1.1855  0.1806 -0.7672
   45FTM    C1012598   3.008  -6.676   9.017  1.2957  0.0653 -0.5730
   45FTM    C1112599   2.564  -6.611   8.731 -0.2775  0.0275  0.3431
   45FTM    C1212600   2.423  -6.578   8.704  0.0851  0.5357  0.1966
   46TPM     C112601   2.443  -6.749   8.034  0.5110  0.0127 -0.3372
   46TPM     C212602   2.500  -6.820   7.933  0.9801 -0.3270  0.1560
   46TPM     C312603   2.494  -6.963   7.952  1.1330 -0.2636  0.7244
   46TPM     C412604   2.432  -7.000   8.068  0.7805  0.1242  0.6649
   46TPM     S112605   2.376  -6.857   8.162  0.2238  0.4421 -0.1200
   47BDD     C112606   2.196  -7.304   8.125  0.1621 -0.0383  0.2353
   47BDD     C212607   2.319  -7.360   8.106  0.1311 -0.0784  0.1519
   47BDD     C312608   2.423  -7.262   8.080  0.1450 -0.1123  0.0768
   47BDD     C412609   2.378  -7.133   8.081  0.1863 -0.0977  0.1040
   47BDD     S112610   2.201  -7.125   8.113  0.2108 -0.0403  0.2255
   47BDD     C512611   2.346  -7.505   8.110  0.0876 -0.0870  0.1383
   47BDD     C612612   2.564  -7.299   8.056  0.1166 -0.1582 -0.0193
   47BDD     O112613   2.654  -7.215   8.034  0.1285 -0.1874 -0.0842
   47BDD     O212614   2.256  -7.590   8.132  0.0756 -0.0578  0.2029
   47BDD     C712615   2.591  -7.445   8.061  0.0731 -0.1667 -0.0329
   47BDD     C812616   2.487  -7.543   8.086  0.0592 -0.1328  0.0422
   47BDD     C912617   2.533  -7.672   8.086  0.0178 -0.1475  0.0150
   47BDD     S212618   2.709  -7.679   8.053 -0.0067 -0.2048 -0.1068
   47BDD    C1012619   2.714  -7.500   8.041  0.0420 -0.2068 -0.1163
   47BDD    C1112620   2.864  -7.446   8.037  0.9753  0.4926 -0.2102
   47BDD    C1212621   2.965  -7.530   8.105 -0.3179  0.5967 -0.5813
   47BDD    C1312622   2.931  -7.558   8.250 -1.1360  0.3263 -0.3815
   47BDD    C1412623   3.015  -7.656   8.331 -0.3829  0.6791 -0.2017
   47BDD    C1512624   3.028  -7.625   8.474 -0.1195 -0.7906 -0.0029
   47BDD    C1612625   3.131  -7.514   8.522  0.1748  0.4540 -0.8911
   47BDD    C1712626   3.112  -7.498   8.074  0.1228 -0.1338 -0.6638
   47BDD    C1812627   3.177  -7.450   7.944 -0.4122 -0.7548 -0.2430
   47BDD    C1912628   2.455  -7.800   8.108 -0.6675 -0.8057 -0.0371
   47BDD    C2012629   2.411  -7.867   7.983 -0.2117 -1.5806  1.5634
   47BDD    C2112630   2.281  -7.793   7.961 -1.0670  0.7071  0.8604
   47BDD    C2212631   2.260  -7.761   7.820 -0.5866 -0.2599 -0.7870
   47BDD    C2312632   2.320  -7.649   7.732 -0.8364 -0.0525  0.0729
   47BDD    C2412633   2.438  -7.696   7.644 -1.0848 -0.6723 -0.4698
   47BDD    C2512634   2.400  -8.018   7.990 -1.2229 -0.3240  0.2918
   47BDD    C2612635   2.534  -8.092   7.956 -0.9029  0.2880 -0.6574
   48TPM     C112636   2.063  -7.353   8.145  0.0445  0.4804 -0.5933
   48TPM     C212637   1.991  -7.314   8.254 -0.0413  1.2643 -0.9172
   48TPM     C312638   1.859  -7.372   8.260 -0.0993  1.4163 -0.6781
   48TPM     C412639   1.831  -7.455   8.155 -0.0577  0.7480 -0.1720
   48TPM     S112640   1.970  -7.467   8.041  0.0589 -0.1319  0.0434
   49BDTP    C112641   1.292  -7.760   8.253 -0.0089  0.4283  0.0389
   49BDTP    C212642   1.254  -7.649   8.171  0.0050  0.4706  0.0899
   49BDTP    C312643   1.347  -7.559   8.120  0.0398  0.3502 -0.0587
   49BDTP    C412644   1.483  -7.579   8.150  0.0620  0.1796 -0.2673
   49BDTP    C512645   1.520  -7.690   8.231  0.0480  0.1372 -0.3185
   49BDTP    C612646   1.428  -7.780   8.283  0.0132  0.2577 -0.1697
   49BDTP    C712647   1.596  -7.500   8.108  0.0989  0.0329 -0.4481
   49BDTP    C812648   1.716  -7.545   8.153  0.1130 -0.1157 -0.6297
   49BDTP    S112649   1.701  -7.694   8.256  0.0818 -0.0908 -0.5977
   49BDTP    C912650   1.178  -7.839   8.295 -0.0457  0.5749  0.2196
   49BDTP   C1012651   1.059  -7.794   8.250 -0.0600  0.7236  0.4015
   49BDTP    S212652   1.073  -7.645   8.147 -0.0287  0.6987  0.3690
   50FTM     S112653   1.177  -7.458   7.925  0.3344  0.0497 -0.0517
   50FTM     C112654   1.169  -7.279   7.907  0.6572  0.0368 -0.3457
   50FTM     C212655   1.256  -7.220   7.993  1.4492 -0.0045 -1.0955
   50FTM     C312656   1.333  -7.308   8.076  1.8439 -0.0281 -1.4780
   50FTM     C412657   1.304  -7.439   8.053  1.3375 -0.0041 -1.0057
   50FTM     F112658   1.271  -7.082   8.001  1.8639 -0.0235 -1.4801
   50FTM     C512659   1.087  -7.198   7.801 -1.6243  0.6522  0.1213
   50FTM     C612660   1.113  -7.232   7.654 -0.0306 -0.4833 -0.2434
   50FTM     C712661   1.243  -7.308   7.599  0.8637 -0.4990 -0.8129
   50FTM     C812662   1.383  -7.241   7.610  1.1985  0.7343  0.0634
   50FTM     C912663   1.488  -7.341   7.551  0.4496 -0.0492 -0.5692
   50FTM    C1012664   1.522  -7.441   7.663 -0.9124 -1.8927  0.2899
   50FTM    C1112665   1.026  -7.165   7.548 -0.1118 -0.6178  1.1115
   50FTM    C1212666   0.989  -7.234   7.418  0.4723 -0.5808  0.6192
   51FTM     S112667   1.495  -7.899   8.536  0.0491 -0.1212 -0.3612
   51FTM     C112668   1.546  -8.071   8.547  0.4058  0.0155  0.2203
   51FTM     C212669   1.552  -8.126   8.423  0.9244 -0.2784  0.3669
   51FTM     C312670   1.517  -8.039   8.314  1.0725 -0.6195  0.0434
   51FTM     C412671   1.484  -7.914   8.357  0.6536 -0.5858 -0.3641
   51FTM     F112672   1.588  -8.258   8.400  1.2958 -0.2559  0.8025
   51FTM     C512673   1.602  -8.111   8.679  0.1014 -0.0569  0.0514
   51FTM     C612674   1.504  -8.147   8.783 -0.1166 -1.2380 -0.7286
   51FTM     C712675   1.424  -8.275   8.803 -0.5666  0.6080  1.4626
   51FTM     C812676   1.488  -8.410   8.788  0.8033 -0.8402  0.8009
   51FTM     C912677   1.415  -8.542   8.796 -0.4156  1.3458  0.3893
   51FTM    C1012678   1.489  -8.669   8.756 -1.2780  0.1307 -1.7356
   51FTM    C1112679   1.512  -8.067   8.916 -0.1065 -0.0276  0.2601
   51FTM    C1212680   1.412  -8.099   9.035 -0.8247 -0.4630  1.5982
   52TPM     C112681   0.939  -7.852   8.296  0.2577 -0.1033 -0.5576
   52TPM     C212682   0.819  -7.790   8.273  0.4562  0.3764 -0.3388
   52TPM     C312683   0.711  -7.840   8.354  0.4060  0.8230 -0.1252
   52TPM     C412684   0.749  -7.940   8.440  0.1693  0.6838 -0.1812
   52TPM     S112685   0.925  -7.978   8.423 -0.0100 -0.0277 -0.5106
   53BDD     C112686   0.478  -8.233   8.470  0.1068  0.1805 -0.2084
   53BDD     C212687   0.418  -8.124   8.526  0.1342  0.1327 -0.0844
   53BDD     C312688   0.503  -8.006   8.527  0.3248 -0.0060  0.4525
   53BDD     C412689   0.627  -8.028   8.472  0.4399 -0.0619  0.7307
   53BDD     S112690   0.645  -8.197   8.415  0.3176  0.0551  0.3393
   53BDD     C512691   0.281  -8.123   8.580 -0.0138  0.2128 -0.4561
   53BDD     C612692   0.459  -7.877   8.583  0.3858 -0.0779  0.6704
   53BDD     O112693   0.532  -7.775   8.584  0.5502 -0.1975  1.1339
   53BDD     O212694   0.208  -8.225   8.578 -0.1781  0.3324 -0.9191
   53BDD     C712695   0.321  -7.876   8.637  0.2378  0.0021  0.2997
   53BDD     C812696   0.236  -7.994   8.635  0.0472  0.1408 -0.2377
   53BDD     C912697   0.113  -7.973   8.690 -0.0679  0.1968 -0.5157
   53BDD     S212698   0.095  -7.804   8.747  0.0544  0.0797 -0.1240
   53BDD    C1012699   0.262  -7.767   8.693  0.2653 -0.0457  0.4234
   53BDD    C1112700   0.304  -7.619   8.706  0.5574  0.2267  0.8094
   53BDD    C1212701   0.299  -7.539   8.838 -0.3683  0.9772 -0.2288
   53BDD    C1312702   0.437  -7.573   8.915  0.5914 -1.1339  0.0088
   53BDD    C1412703   0.464  -7.538   9.072  0.3182  0.0928  0.8502
   53BDD    C1512704   0.543  -7.406   9.075 -0.0868 -0.3711 -0.8362
   53BDD    C1612705   0.565  -7.352   9.215 -0.6719  0.0934  0.4673
   53BDD    C1712706   0.243  -7.392   8.852 -0.9401  1.3055  0.2306
   53BDD    C1812707   0.103  -7.375   8.791 -0.2293  0.3297  0.5150
   53BDD    C1912708  -0.016  -8.056   8.716 -0.2958 -0.1008  0.6724
   53BDD    C2012709  -0.134  -8.017   8.635  1.2597 -1.2227 -0.3694
   53BDD    C2112710  -0.117  -7.964   8.483  0.1186 -1.3518  0.4562
   53BDD    C2212711  -0.062  -8.062   8.378 -0.1519 -0.5455 -0.3906
   53BDD    C2312712  -0.017  -7.966   8.262  0.2463 -0.3537 -0.3130
   53BDD    C2412713   0.132  -7.902   8.271 -0.0000 -0.0838  0.8061
   53BDD    C2512714  -0.253  -8.106   8.649  0.5563 -0.6425 -0.5842
   53BDD    C2612715  -0.384  -8.070   8.574  1.2626 -0.0196 -0.9442
   54TPM     C112716   0.437  -8.377   8.436  0.2672 -0.5922 -0.5400
   54TPM     C212717   0.521  -8.485   8.428 -0.4006 -1.1033 -0.8886
   54TPM     C312718   0.456  -8.606   8.384 -1.2729 -0.6815 -0.8094
   54TPM     C412719   0.323  -8.590   8.358 -1.2703  0.1514 -0.4006
   54TPM     S112720   0.269  -8.421   8.388 -0.1573  0.4699 -0.0812
   55BDTP    C112721  -0.052  -8.934   7.989 -0.3128  0.2909 -0.0403
   55BDTP    C212722  -0.038  -8.808   7.923 -0.1545  0.1636 -0.2497
   55BDTP    C312723   0.038  -8.704   7.975 -0.1185  0.1971 -0.3663
   55BDTP    C412724   0.102  -8.725   8.099 -0.2453  0.3636 -0.2718
   55BDTP    C512725   0.088  -8.850   8.165 -0.4044  0.4909 -0.0620
   55BDTP    C612726   0.012  -8.954   8.112 -0.4398  0.4574  0.0544
   55BDTP    C712727   0.185  -8.632   8.172 -0.2379  0.4283 -0.3616
   55BDTP    C812728   0.233  -8.681   8.289 -0.3815  0.5958 -0.2308
   55BDTP    S112729   0.180  -8.852   8.322 -0.5460  0.6952  0.0241
   55BDTP    C912730  -0.135  -9.027   7.915 -0.3202  0.2261  0.0495
   55BDTP   C1012731  -0.184  -8.978   7.798 -0.1774  0.0585 -0.0814
   55BDTP    S212732  -0.130  -8.807   7.765 -0.0122 -0.0407 -0.3361
   56FTM     S112733  -0.076  -8.442   7.967 -0.0399 -0.1959 -0.0596
   56FTM     C112734   0.032  -8.316   7.897 -0.2537 -0.2791 -0.5437
   56FTM     C212735   0.141  -8.375   7.841 -0.3116 -0.3284 -0.6057
   56FTM     C312736   0.148  -8.518   7.850 -0.1957 -0.3051 -0.2881
   56FTM     C412737   0.039  -8.570   7.914 -0.0445 -0.2356  0.0271
   56FTM     F112738   0.242  -8.303   7.779 -0.4723 -0.3976 -0.9536
   56FTM     C512739  -0.002  -8.161   7.899 -0.2457  0.6208 -0.8577
   56FTM     C612740  -0.038  -8.072   7.776  0.2074  1.3125 -0.3555
   56FTM     C712741  -0.028  -7.914   7.796 -0.1309  0.3592 -0.1209
   56FTM     C812742  -0.153  -7.822   7.809 -1.2555  1.1106  0.5134
   56FTM     C912743  -0.212  -7.798   7.953 -0.8094  1.2204 -0.7093
   56FTM    C1012744  -0.311  -7.908   8.011 -0.0699 -1.1218  1.3698
   56FTM    C1112745  -0.154  -8.126   7.690  0.7314 -0.4241  1.2510
   56FTM    C1212746  -0.133  -8.255   7.610  0.4838 -0.2538  0.9043
   57FTM     S112747  -0.103  -9.117   8.311 -0.1973  0.1678  0.3331
   57FTM     C112748  -0.049  -9.289   8.318 -0.4956  0.0671  0.1802
   57FTM     C212749   0.045  -9.312   8.222 -0.6263 -0.0437  0.0777
   57FTM     C312750   0.080  -9.200   8.140 -0.5054 -0.0566  0.1106
   57FTM     C412751   0.011  -9.087   8.173 -0.2747  0.0476  0.2432
   57FTM     F112752   0.105  -9.435   8.203 -0.8633 -0.1400 -0.0527
   57FTM     C512753  -0.069  -9.389   8.432 -0.2770  0.4227 -1.3307
   57FTM     C612754   0.019  -9.424   8.561  0.8718 -1.0894  0.7367
   57FTM     C712755   0.092  -9.292   8.626 -0.6726  0.6673 -0.2889
   57FTM     C812756   0.198  -9.206   8.564 -0.2041  1.3808  0.0920
   57FTM     C912757   0.311  -9.287   8.520 -1.4436 -0.8371  0.8532
   57FTM    C1012758   0.370  -9.218   8.389 -0.6889  0.0834 -0.2640
   57FTM    C1112759  -0.039  -9.529   8.655  1.5168 -1.5366 -0.3078
   57FTM    C1212760  -0.105  -9.483   8.788  0.5124  0.4206  0.7267
   58TPM     C112761  -0.280  -9.038   7.712  0.4962 -0.5457 -0.2576
   58TPM     C212762  -0.307  -8.981   7.592  0.7529 -0.8753 -0.4762
   58TPM     C312763  -0.407  -9.051   7.516  0.4802 -0.7514 -0.2344
   58TPM     C412764  -0.456  -9.162   7.578  0.0155 -0.3272  0.1688
   58TPM     S112765  -0.379  -9.186   7.740 -0.1147 -0.0492  0.2747
   59BDD     C112766  -0.577  -9.445   7.329 -0.0286  0.5496 -0.1537
   59BDD     C212767  -0.678  -9.424   7.419 -0.0632  0.4257 -0.1632
   59BDD     C312768  -0.647  -9.322   7.518 -0.0484  0.1974  0.0699
   59BDD     C412769  -0.523  -9.267   7.502 -0.0037  0.1504  0.2536
   59BDD     S112770  -0.436  -9.339   7.362  0.0241  0.3888  0.1477
   59BDD     C512771  -0.806  -9.497   7.417 -0.1109  0.5128 -0.3871
   59BDD     C612772  -0.741  -9.283   7.624 -0.0803  0.0340  0.1018
   59BDD     O112773  -0.715  -9.195   7.710 -0.0677 -0.1629  0.3029
   59BDD     O212774  -0.833  -9.584   7.332 -0.1233  0.7097 -0.5879
   59BDD     C712775  -0.870  -9.356   7.623 -0.1278  0.1211 -0.1221
   59BDD     C812776  -0.901  -9.458   7.524 -0.1423  0.3494 -0.3552
   59BDD     C912777  -1.025  -9.513   7.540 -0.1879  0.3964 -0.5389
   59BDD     S212778  -1.112  -9.441   7.680 -0.2156  0.1580 -0.4327
   59BDD    C1012779  -0.971  -9.335   7.713 -0.1624 -0.0027 -0.1314
   59BDD    C1112780  -1.002  -9.242   7.828  0.0093 -0.6814  0.5670
   59BDD    C1212781  -0.935  -9.239   7.959  0.6066  0.1561  0.3763
   59BDD    C1312782  -0.906  -9.104   8.032 -0.9997 -0.5343 -0.1996
   59BDD    C1412783  -0.947  -8.957   7.985 -0.6967 -0.0584 -0.1976
   59BDD    C1512784  -0.838  -8.861   7.940 -0.5505 -1.5034 -0.1134
   59BDD    C1612785  -0.802  -8.768   8.054  0.8428 -0.1790 -0.0676
   59BDD    C1712786  -0.859  -9.367   8.001  0.8683  0.1240  0.7729
   59BDD    C1812787  -0.841  -9.396   8.159  2.2937 -0.3076  1.1686
   59BDD    C1912788  -1.104  -9.608   7.455 -1.1259 -0.0759  0.4590
   59BDD    C2012789  -1.168  -9.726   7.534  0.6282  0.7241  0.2972
   59BDD    C2112790  -1.282  -9.798   7.436  0.0418  0.1851  0.4216
   59BDD    C2212791  -1.436  -9.770   7.442  0.0792  0.5009 -1.7106
   59BDD    C2312792  -1.470  -9.633   7.435  1.0507 -0.5923 -0.0299
   59BDD    C2412793  -1.473  -9.538   7.551 -0.9613  0.2388  0.4914
   59BDD    C2512794  -1.097  -9.819   7.639  0.4815  0.0995 -0.1269
   59BDD    C2612795  -1.001  -9.926   7.588  0.6935  0.1273  0.2456
   60TPM     C112796  -0.560  -9.540   7.230 -0.2433  0.7144 -0.3619
   60TPM     C212797  -0.623  -9.526   7.110  0.5124  1.5351 -0.6847
   60TPM     C312798  -0.556  -9.592   7.001  0.8099  1.6452 -0.5693
   60TPM     C412799  -0.441  -9.656   7.038  0.2811  0.9083 -0.1587
   60TPM     S112800  -0.409  -9.639   7.215 -0.6411  0.0113  0.1162
    1BDTP    C112801   3.959   1.133   4.890  0.2735 -0.3522 -0.0585
    1BDTP    C212802   4.050   1.240   4.863  0.2954 -0.3950 -0.1572
    1BDTP    C312803   4.022   1.342   4.774  0.2285 -0.3575 -0.0935
    1BDTP    C412804   3.899   1.341   4.708  0.1360 -0.2738  0.0756
    1BDTP    C512805   3.807   1.235   4.734  0.1141 -0.2310  0.1740
    1BDTP    C612806   3.835   1.132   4.823  0.1809 -0.2685  0.1103
    1BDTP    C712807   3.848   1.436   4.611  0.0551 -0.2221  0.1691
    1BDTP    C812808   3.724   1.407   4.565 -0.0255 -0.1433  0.3312
    1BDTP    S112809   3.655   1.255   4.636 -0.0100 -0.1238  0.3879
    1BDTP    C912810   4.010   1.038   4.986  0.3544 -0.4039 -0.1522
    1BDTP   C1012811   4.133   1.067   5.033  0.4349 -0.4826 -0.3141
    1BDTP    S212812   4.203   1.219   4.962  0.4195 -0.5022 -0.3709
    2FTM     S112813   4.155   1.552   4.623 -0.3772  0.8225 -0.4007
    2FTM     C112814   4.204   1.692   4.725 -0.1195  0.6170 -0.2414
    2FTM     C212815   4.180   1.664   4.856  1.1452 -0.0504 -0.1159
    2FTM     C312816   4.123   1.536   4.884  1.9710 -0.4334 -0.1354
    2FTM     C412817   4.103   1.463   4.771  1.3172 -0.0467 -0.2807
    2FTM     F112818   4.208   1.754   4.958  1.6303 -0.3541  0.0246
    2FTM     C512819   4.276   1.810   4.671  1.1460  0.8348  0.1692
    2FTM     C612820   4.423   1.808   4.617 -0.8521  0.3377 -0.0472
    2FTM     C712821   4.531   1.736   4.709  1.0491  0.6487 -0.4617
    2FTM     C812822   4.605   1.621   4.635 -1.1028  0.3056 -0.1018
    2FTM     C912823   4.738   1.588   4.712 -0.6322  0.1476 -0.3472
    2FTM    C1012824   4.848   1.535   4.612  1.1391 -0.1484  1.1946
    2FTM    C1112825   4.472   1.919   4.512 -0.3296  0.2088 -0.2500
    2FTM    C1212826   4.387   1.976   4.403  0.7076  0.0638  0.9726
    3FTM     S112827   3.832   0.867   4.732  0.0285 -0.1003 -0.0645
    3FTM     C112828   3.677   0.776   4.734 -0.0555  0.0379 -0.1819
    3FTM     C212829   3.579   0.852   4.788  0.0604 -0.0122  0.1035
    3FTM     C312830   3.617   0.984   4.830  0.2178 -0.1576  0.4232
    3FTM     C412831   3.749   1.009   4.807  0.2226 -0.2208  0.3810
    3FTM     F112832   3.448   0.808   4.803  0.0308  0.0706  0.0924
    3FTM     C512833   3.669   0.632   4.678  0.6040  0.1001  0.7008
    3FTM     C612834   3.748   0.582   4.551 -0.7141  0.1151 -0.4081
    3FTM     C712835   3.886   0.524   4.590  0.6358  0.8302 -0.2994
    3FTM     C812836   3.982   0.587   4.693  0.8069 -0.4950 -0.2020
    3FTM     C912837   4.138   0.557   4.721  0.2480  0.1096 -0.1451
    3FTM    C1012838   4.206   0.675   4.811 -0.6803  1.3653 -0.6934
    3FTM    C1112839   3.753   0.676   4.446  0.3359  1.1763  0.0783
    3FTM    C1212840   3.707   0.647   4.303 -0.1026  1.3164  0.5308
    4TPM     C112841   4.212   1.017   5.148  0.2537  0.3528  0.0473
    4TPM     C212842   4.306   1.077   5.227  0.9314 -0.1039 -0.3858
    4TPM     C312843   4.365   0.988   5.324  1.0409 -0.4249 -0.7415
    4TPM     C412844   4.316   0.861   5.319  0.4469 -0.2129 -0.5798
    4TPM     S112845   4.192   0.843   5.190 -0.3028  0.4134  0.0393
    5BDD     C112846   4.309   0.548   5.547 -0.0206  0.2930  0.2137
    5BDD     C212847   4.436   0.597   5.560  0.0544  0.1359  0.0863
    5BDD     C312848   4.459   0.718   5.484  0.2369 -0.0890 -0.2204
    5BDD     C412849   4.350   0.760   5.413  0.2986 -0.1001 -0.3228
    5BDD     S112850   4.210   0.650   5.437  0.1321  0.1702 -0.0420
    5BDD     C512851   4.541   0.534   5.644 -0.0389  0.1868  0.2424
    5BDD     C612852   4.590   0.789   5.484  0.3437 -0.2847 -0.4009
    5BDD     O112853   4.610   0.893   5.418  0.5012 -0.4786 -0.6655
    5BDD     O212854   4.520   0.430   5.709 -0.1962  0.3807  0.5069
    5BDD     C712855   4.694   0.726   5.567  0.2503 -0.2338 -0.2450
    5BDD     C812856   4.671   0.604   5.644  0.0678 -0.0089  0.0618
    5BDD     C912857   4.780   0.563   5.714  0.0063  0.0022  0.1642
    5BDD     S212858   4.920   0.672   5.690  0.1728 -0.2681 -0.1167
    5BDD    C1012859   4.821   0.775   5.581  0.3253 -0.3908 -0.3722
    5BDD    C1112860   4.899   0.907   5.522 -0.9710  0.6906  0.6173
    5BDD    C1212861   4.986   1.003   5.605 -0.6186 -0.0260  0.6215
    5BDD    C1312862   4.910   1.098   5.695  0.6167 -0.2909 -0.0688
    5BDD    C1412863   4.972   1.187   5.803  0.0932  0.5393  0.9754
    5BDD    C1512864   5.118   1.132   5.843  1.1409 -0.9791  0.1646
    5BDD    C1612865   5.137   1.026   5.946 -1.0046 -0.1343 -0.6142
    5BDD    C1712866   5.087   1.061   5.507 -0.3297  0.3386  0.8438
    5BDD    C1812867   5.057   1.193   5.458 -1.1641 -0.3536 -0.7302
    5BDD    C1912868   4.793   0.440   5.798 -1.4001  0.4248  0.5459
    5BDD    C2012869   4.893   0.335   5.720 -0.3496  0.3435  0.5423
    5BDD    C2112870   5.038   0.350   5.767  0.4416 -0.2809 -0.0621
    5BDD    C2212871   5.152   0.253   5.827  0.7421 -0.7864 -0.1756
    5BDD    C2312872   5.119   0.189   5.965 -0.5430  0.5236  0.6344
    5BDD    C2412873   5.152   0.051   5.931  0.7474 -1.3696  0.5348
    5BDD    C2512874   4.871   0.282   5.583  0.7181  0.8222  1.1781
    5BDD    C2612875   4.734   0.225   5.520 -0.6879 -0.5281  0.4590
    6TPM     C112876   4.242   0.440   5.602 -0.2751  0.4184 -0.3636
    6TPM     C212877   4.284   0.310   5.602 -0.3598  0.3911 -0.3809
    6TPM     C312878   4.192   0.220   5.667 -0.2917  0.4843 -0.1526
    6TPM     C412879   4.080   0.281   5.716 -0.1551  0.5827  0.0387
    6TPM     S112880   4.082   0.459   5.683 -0.1017  0.5650 -0.0555
    7BDTP    C112881   3.591  -0.022   5.989 -0.0766  0.0389 -0.2880
    7BDTP    C212882   3.660  -0.123   5.917  0.0267  0.0014 -0.1386
    7BDTP    C312883   3.774  -0.097   5.841  0.1311 -0.0362  0.0046
    7BDTP    C412884   3.821   0.035   5.837  0.1341 -0.0374  0.0008
    7BDTP    C512885   3.752   0.137   5.910  0.0308 -0.0001 -0.1484
    7BDTP    C612886   3.638   0.110   5.985 -0.0736  0.0377 -0.2919
    7BDTP    C712887   3.937   0.087   5.766  0.2319 -0.0729  0.1338
    7BDTP    C812888   3.957   0.220   5.782  0.2075 -0.0641  0.0918
    7BDTP    S112889   3.833   0.299   5.889  0.0572 -0.0097 -0.1217
    7BDTP    C912890   3.475  -0.073   6.060 -0.1745  0.0744 -0.4209
    7BDTP   C1012891   3.455  -0.206   6.045 -0.1501  0.0656 -0.3791
    7BDTP    S212892   3.579  -0.285   5.938  0.0003  0.0115 -0.1654
    8FTM     S112893   3.806  -0.187   5.580  0.1521  0.3176  0.1036
    8FTM     C112894   3.921  -0.324   5.560  0.3072  0.3811  0.5417
    8FTM     C212895   3.967  -0.364   5.682  0.1637  0.6597  0.6895
    8FTM     C312896   3.917  -0.292   5.795 -0.0699  0.8364  0.4762
    8FTM     C412897   3.829  -0.194   5.759 -0.1065  0.6885  0.1547
    8FTM     F112898   4.058  -0.468   5.698  0.2354  0.7715  1.0266
    8FTM     C512899   3.962  -0.387   5.426  0.4765 -0.4706 -1.2255
    8FTM     C612900   3.890  -0.505   5.367 -0.3142  0.3311 -0.5506
    8FTM     C712901   3.747  -0.489   5.323 -0.1194  0.5027  1.3911
    8FTM     C812902   3.690  -0.375   5.237  0.0452  0.3163 -0.0744
    8FTM     C912903   3.749  -0.350   5.095 -0.1274 -0.9280  0.3367
    8FTM    C1012904   3.661  -0.236   5.041 -1.0200  0.5558 -0.2574
    8FTM    C1112905   3.914  -0.651   5.416 -0.7886  0.8436  0.7138
    8FTM    C1212906   4.058  -0.689   5.476 -0.6826  0.5516 -0.2287
    9FTM     S112907   3.644   0.295   6.215  0.2512 -0.0735 -0.6602
    9FTM     C112908   3.538   0.439   6.196  0.1779 -0.1452 -0.7990
    9FTM     C212909   3.460   0.425   6.085 -0.0139 -0.4145 -0.6305
    9FTM     C312910   3.477   0.304   6.011 -0.1132 -0.5777 -0.3890
    9FTM     C412911   3.571   0.222   6.066  0.0065 -0.4283 -0.3719
    9FTM     F112912   3.369   0.521   6.045 -0.1109 -0.5294 -0.6849
    9FTM     C512913   3.550   0.535   6.309 -1.7385 -0.3351 -0.0308
    9FTM     C612914   3.421   0.577   6.396  0.1647  0.6190  0.0637
    9FTM     C712915   3.335   0.454   6.417  0.3670  0.1189 -0.4716
    9FTM     C812916   3.394   0.348   6.513  0.0338  0.0558  0.0822
    9FTM     C912917   3.458   0.398   6.644 -0.4794  0.1932  0.3952
    9FTM    C1012918   3.478   0.285   6.756 -0.6714 -0.0760 -0.0001
    9FTM    C1112919   3.423   0.689   6.501  0.0425  0.9101 -1.0797
    9FTM    C1212920   3.466   0.805   6.425  0.7302 -0.3669  0.5514
   10TPM     C112921   3.373  -0.305   6.112  0.2154 -0.0388  0.5270
   10TPM     C212922   3.293  -0.278   6.219  0.3853 -0.0408  0.6545
   10TPM     C312923   3.255  -0.396   6.292  0.2085 -0.0787  0.5023
   10TPM     C412924   3.305  -0.512   6.241 -0.0961 -0.1058  0.2591
   10TPM     S112925   3.406  -0.481   6.095 -0.1841 -0.0849  0.2027
   11BDD     C112926   3.228  -0.844   6.438  0.3214 -0.8270 -0.0993
   11BDD     C212927   3.361  -0.822   6.459  0.2854 -0.6640 -0.0380
   11BDD     C312928   3.409  -0.698   6.401  0.1438 -0.5667  0.0523
   11BDD     C412929   3.311  -0.627   6.336  0.0739 -0.6568  0.0587
   11BDD     S112930   3.153  -0.711   6.344  0.1806 -0.8695 -0.0480
   11BDD     C512931   3.450  -0.915   6.533  0.3798 -0.5920 -0.0601
   11BDD     C612932   3.550  -0.654   6.411  0.0830 -0.3881  0.1292
   11BDD     O112933   3.591  -0.547   6.361 -0.0391 -0.3040  0.2071
   11BDD     O212934   3.408  -1.022   6.583  0.5019 -0.6757 -0.1380
   11BDD     C712935   3.638  -0.747   6.485  0.1774 -0.3157  0.1070
   11BDD     C812936   3.590  -0.871   6.543  0.3190 -0.4132  0.0167
   11BDD     C912937   3.688  -0.942   6.608  0.3888 -0.3228  0.0104
   11BDD     S212938   3.846  -0.858   6.600  0.2822 -0.1101  0.1170
   11BDD    C1012939   3.771  -0.725   6.506  0.1413 -0.1528  0.1682
   11BDD    C1112940   3.864  -0.633   6.463 -0.2453 -0.8804  0.4024
   11BDD    C1212941   4.010  -0.671   6.429  0.0424  0.4887  0.3300
   11BDD    C1312942   4.050  -0.773   6.312  0.1658 -0.0331  0.9657
   11BDD    C1412943   3.979  -0.760   6.178  0.0508  0.1685  0.9562
   11BDD    C1512944   4.042  -0.849   6.083  1.0626 -0.2838 -0.7577
   11BDD    C1612945   3.944  -0.866   5.971 -0.1523  1.1112  0.4271
   11BDD    C1712946   4.094  -0.551   6.416 -1.2565  1.1135  0.8619
   11BDD    C1812947   4.103  -0.455   6.527  0.3430 -0.3589  0.7315
   11BDD    C1912948   3.688  -1.069   6.690 -0.0679 -0.2626  0.2962
   11BDD    C2012949   3.762  -1.196   6.638  0.0699 -0.8705  0.8290
   11BDD    C2112950   3.759  -1.217   6.481 -0.1649  1.7350 -0.2840
   11BDD    C2212951   3.620  -1.233   6.415 -1.7476 -0.9391  1.5892
   11BDD    C2312952   3.533  -1.344   6.462  1.0640  0.0068 -0.0776
   11BDD    C2412953   3.381  -1.308   6.432 -0.8403  0.9074 -0.1109
   11BDD    C2512954   3.886  -1.249   6.709 -0.8716  1.8346 -0.8011
   11BDD    C2612955   4.021  -1.192   6.687  0.3032  0.5315  0.5470
   12TPM     C112956   3.145  -0.966   6.460  0.2088  0.4573  0.1918
   12TPM     C212957   3.170  -1.066   6.370  0.4634  0.4618  0.2571
   12TPM     C312958   3.057  -1.151   6.346  0.7705 -0.0365  0.5500
   12TPM     C412959   2.946  -1.117   6.416  0.7499 -0.4210  0.7080
   12TPM     S112960   2.975  -0.973   6.521  0.3380 -0.1815  0.4975
   13BDTP    C112961   2.437  -1.473   6.360  0.3202 -0.1898 -0.0076
   13BDTP    C212962   2.379  -1.344   6.376  0.2320 -0.2003 -0.2435
   13BDTP    C312963   2.455  -1.230   6.395  0.1460 -0.1416 -0.2482
   13BDTP    C412964   2.595  -1.243   6.399  0.1467 -0.0694 -0.0094
   13BDTP    C512965   2.653  -1.373   6.383  0.2351 -0.0589  0.2266
   13BDTP    C612966   2.576  -1.487   6.364  0.3211 -0.1175  0.2313
   13BDTP    C712967   2.695  -1.140   6.417  0.0668 -0.0006  0.0344
   13BDTP    C812968   2.823  -1.184   6.417  0.0904  0.0608  0.2886
   13BDTP    S112969   2.835  -1.364   6.393  0.2174  0.0391  0.5083
   13BDTP    C912970   2.337  -1.577   6.342  0.4002 -0.2589 -0.0515
   13BDTP   C1012971   2.209  -1.532   6.342  0.3765 -0.3200 -0.3058
   13BDTP    S212972   2.197  -1.353   6.367  0.2497 -0.2982 -0.5253
   14FTM     S112973   2.401  -0.941   6.491  0.5371  0.1068  0.2335
   14FTM     C112974   2.306  -0.842   6.374  0.1357  0.2522  0.6768
   14FTM     C212975   2.269  -0.919   6.268 -0.6207  0.2639  0.9147
   14FTM     C312976   2.312  -1.055   6.271 -0.9267  0.1631  0.7703
   14FTM     C412977   2.384  -1.085   6.383 -0.3871  0.0708  0.4102
   14FTM     F112978   2.195  -0.869   6.162 -1.0807  0.3669  1.2774
   14FTM     C512979   2.254  -0.704   6.404 -0.5077 -1.1664 -0.6809
   14FTM     C612980   2.335  -0.606   6.320 -0.4231 -0.2168 -0.5304
   14FTM     C712981   2.429  -0.517   6.393  0.8730  0.3298 -1.0642
   14FTM     C812982   2.557  -0.592   6.447  0.9815 -0.2005  1.9278
   14FTM     C912983   2.675  -0.586   6.343  0.0529  0.8973 -0.2066
   14FTM    C1012984   2.753  -0.705   6.360 -0.8448 -0.2192  0.5454
   14FTM    C1112985   2.269  -0.551   6.192 -0.2540 -0.0249 -0.7242
   14FTM    C1212986   2.364  -0.475   6.089 -0.6660 -1.2270 -0.7944
   15FTM     S112987   2.766  -1.675   6.454 -0.2430 -0.1062  0.6269
   15FTM     C112988   2.764  -1.838   6.378  0.7875 -0.0662  0.4886
   15FTM     C212989   2.668  -1.843   6.282  1.2277 -0.4082  0.0576
   15FTM     C312990   2.592  -1.724   6.262  0.8009 -0.7150 -0.1853
   15FTM     C412991   2.631  -1.623   6.345  0.0079 -0.6039  0.0677
   15FTM     F112992   2.644  -1.957   6.206  2.0434 -0.4642 -0.1422
   15FTM     C512993   2.884  -1.937   6.396 -0.2079 -0.3147  0.3229
   15FTM     C612994   3.023  -1.877   6.356 -1.1484  0.3662  0.5047
   15FTM     C712995   3.045  -1.861   6.197  0.2173 -0.4184  0.0977
   15FTM     C812996   3.181  -1.885   6.136  0.1847 -0.4932 -0.0807
   15FTM     C912997   3.205  -1.865   5.995  0.2634  0.1827  0.0061
   15FTM    C1012998   3.228  -2.003   5.933 -0.3634 -0.0514 -0.7365
   15FTM    C1112999   3.081  -1.772   6.457 -0.1222  0.7012 -0.5128
   15FTM    C1213000   3.092  -1.802   6.611  0.1095  0.8663  1.2034
   16TPM     C113001   2.086  -1.613   6.387  0.4857 -0.0498  0.6196
   16TPM     C213002   2.006  -1.577   6.491  1.1379 -0.3862  1.2509
   16TPM     C313003   1.889  -1.660   6.506  1.1091 -0.2911  1.5810
   16TPM     C413004   1.879  -1.759   6.412  0.4351  0.1187  1.2013
   16TPM     S113005   2.018  -1.755   6.298 -0.2208  0.4178  0.3912
   17BDD     C113006   1.784  -2.126   6.519  0.1300 -0.0469  0.2333
   17BDD     C213007   1.666  -2.058   6.519  0.0993 -0.0989  0.0774
   17BDD     C313008   1.680  -1.918   6.482  0.0507 -0.1512 -0.1438
   17BDD     C413009   1.809  -1.882   6.455  0.0451 -0.1384 -0.1530
   17BDD     S113010   1.921  -2.020   6.473  0.1003 -0.0596  0.1143
   17BDD     C513011   1.535  -2.118   6.553  0.1135 -0.1025  0.1256
   17BDD     C613012   1.565  -1.825   6.476  0.0116 -0.2120 -0.3375
   17BDD     O113013   1.577  -1.705   6.444 -0.0303 -0.2570 -0.5281
   17BDD     O213014   1.523  -2.239   6.585  0.1554 -0.0575  0.3161
   17BDD     C713015   1.434  -1.886   6.510  0.0257 -0.2153 -0.2892
   17BDD     C813016   1.420  -2.026   6.547  0.0743 -0.1631 -0.0683
   17BDD     C913017   1.291  -2.062   6.574  0.0799 -0.1760 -0.0589
   17BDD     S213018   1.179  -1.924   6.556  0.0248 -0.2546 -0.3260
   17BDD    C1013019   1.316  -1.818   6.510 -0.0050 -0.2673 -0.4451
   17BDD    C1113020   1.282  -1.681   6.455 -0.6132  0.8452  1.8061
   17BDD    C1213021   1.303  -1.544   6.507 -0.2428  1.0911 -0.3328
   17BDD    C1313022   1.250  -1.530   6.653  0.0059 -0.9357  0.6675
   17BDD    C1413023   1.100  -1.547   6.683  0.9870  1.0335  0.6876
   17BDD    C1513024   1.072  -1.644   6.810  1.7764  0.2417  0.0952
   17BDD    C1613025   1.164  -1.754   6.869  0.9248  1.6742  0.8594
   17BDD    C1713026   1.241  -1.439   6.413  0.2170 -0.5736  0.0445
   17BDD    C1813027   1.243  -1.293   6.442  0.3280  0.0948 -1.2099
   17BDD    C1913028   1.230  -2.197   6.586 -0.7927  0.8233 -0.0936
   17BDD    C2013029   1.187  -2.256   6.446 -0.4372 -0.1644 -0.1661
   17BDD    C2113030   1.311  -2.313   6.370  0.9922 -0.1807  1.2322
   17BDD    C2213031   1.316  -2.332   6.217  0.2741  1.6838 -1.7031
   17BDD    C2313032   1.453  -2.427   6.218 -0.0471 -0.1320  0.4861
   17BDD    C2413033   1.420  -2.574   6.203 -0.1217  0.3683 -0.2279
   17BDD    C2513034   1.043  -2.330   6.449  0.1386  0.7020  0.5174
   17BDD    C2613035   1.048  -2.470   6.503 -0.9692  0.0522  0.2697
   18TPM     C113036   1.840  -2.261   6.552  0.2048 -0.2782 -0.7644
   18TPM     C213037   1.973  -2.285   6.570  0.1747 -0.6533 -1.0272
   18TPM     C313038   2.003  -2.423   6.600 -0.1959 -0.6721 -0.7161
   18TPM     C413039   1.893  -2.504   6.604 -0.4483 -0.3116 -0.2159
   18TPM     S113040   1.742  -2.411   6.571 -0.2360  0.0826 -0.0981
   19BDTP    C113041   1.909  -3.123   6.744 -0.2631  0.0966  0.2682
   19BDTP    C213042   1.769  -3.095   6.746 -0.2555  0.1233  0.4169
   19BDTP    C313043   1.717  -2.968   6.722 -0.2541  0.1445  0.5239
   19BDTP    C413044   1.807  -2.864   6.694 -0.2604  0.1392  0.4829
   19BDTP    C513045   1.947  -2.892   6.692 -0.2680  0.1125  0.3343
   19BDTP    C613046   1.999  -3.018   6.716 -0.2694  0.0912  0.2271
   19BDTP    C713047   1.777  -2.725   6.666 -0.2604  0.1578  0.5744
   19BDTP    C813048   1.887  -2.648   6.643 -0.2675  0.1466  0.5026
   19BDTP    S113049   2.043  -2.741   6.654 -0.2753  0.1106  0.3089
   19BDTP    C913050   1.939  -3.262   6.772 -0.2631  0.0780  0.1765
   19BDTP   C1013051   1.829  -3.338   6.795 -0.2560  0.0896  0.2483
   19BDTP    S213052   1.673  -3.246   6.784 -0.2482  0.1255  0.4421
   20FTM     S113053   1.496  -3.033   6.892  0.3184  0.3899 -0.7175
   20FTM     C113054   1.354  -2.923   6.873  1.1803  1.5146 -0.9044
   20FTM     C213055   1.374  -2.841   6.766  1.9805  1.4017 -0.8596
   20FTM     C313056   1.497  -2.858   6.695  1.9724  0.4568 -0.6818
   20FTM     C413057   1.575  -2.956   6.749  1.1389 -0.1744 -0.5870
   20FTM     F113058   1.281  -2.746   6.727  2.7678  2.1477 -0.9772
   20FTM     C513059   1.217  -2.947   6.946 -1.3469 -0.0379 -0.0268
   20FTM     C613060   1.215  -2.947   7.105  0.4971 -0.8889  0.5102
   20FTM     C713061   1.206  -3.084   7.163  1.3231  0.3615 -1.5753
   20FTM     C813062   1.076  -3.159   7.104  0.1523 -0.4827 -0.3024
   20FTM     C913063   1.091  -3.306   7.041  0.0072  0.6197 -1.1033
   20FTM    C1013064   1.108  -3.424   7.136  0.3701  0.0269  0.5139
   20FTM    C1113065   1.248  -2.821   7.192 -0.0500 -0.2001 -1.1378
   20FTM    C1213066   1.195  -2.693   7.133 -0.3208 -0.7843  1.1031
   21FTM     S113067   2.223  -2.934   6.865 -0.0239  0.3693  0.2755
   21FTM     C113068   2.383  -2.999   6.813 -0.1184 -0.4472  0.9559
   21FTM     C213069   2.367  -3.085   6.710 -0.1588 -0.7398  1.2053
   21FTM     C313070   2.232  -3.107   6.666 -0.1196 -0.3564  0.8903
   21FTM     C413071   2.142  -3.034   6.737 -0.0469  0.2498  0.3832
   21FTM     F113072   2.473  -3.151   6.649 -0.2336 -1.3723  1.7339
   21FTM     C513073   2.515  -2.971   6.886  0.0280  0.5555 -0.3900
   21FTM     C613074   2.521  -2.833   6.932 -0.9546 -0.8089  0.8005
   21FTM     C713075   2.675  -2.774   6.906  1.2653  0.5857 -1.2610
   21FTM     C813076   2.756  -2.798   6.786 -0.4753 -0.6690  0.0655
   21FTM     C913077   2.692  -2.719   6.675  0.8598 -0.6037  0.3675
   21FTM    C1013078   2.729  -2.718   6.528 -0.5425  0.0822  0.8162
   21FTM    C1113079   2.457  -2.796   7.075 -0.1021 -1.0069  0.9649
   21FTM    C1213080   2.531  -2.857   7.198 -0.5132  0.5465  0.9380
   22TPM     C113081   1.843  -3.475   6.856  0.7287 -0.0284  0.3016
   22TPM     C213082   1.767  -3.512   6.963  1.1553 -0.1675  0.5600
   22TPM     C313083   1.777  -3.652   6.995  1.2435 -0.2207  0.3054
   22TPM     C413084   1.860  -3.722   6.912  0.8842 -0.1221 -0.1470
   22TPM     S113085   1.933  -3.615   6.787  0.4027  0.0467 -0.2877
   23BDD     C113086   1.919  -4.103   6.938 -0.5476  0.0821  0.1457
   23BDD     C213087   2.007  -4.048   7.027 -0.4248  0.1142  0.0068
   23BDD     C313088   2.000  -3.904   7.035 -0.1634  0.1451 -0.2952
   23BDD     C413089   1.907  -3.849   6.951 -0.0907  0.1361 -0.3819
   23BDD     S113090   1.822  -3.976   6.857 -0.3445  0.0886 -0.0917
   23BDD     C513091   2.101  -4.128   7.109 -0.5432  0.1175  0.1463
   23BDD     C613092   2.086  -3.824   7.125  0.0048  0.1824 -0.4867
   23BDD     O113093   2.080  -3.699   7.132  0.2302  0.2090 -0.7470
   23BDD     O213094   2.107  -4.253   7.103 -0.7686  0.0908  0.4066
   23BDD     C713095   2.180  -3.904   7.207 -0.1136  0.1856 -0.3470
   23BDD     C813096   2.187  -4.049   7.200 -0.3750  0.1547 -0.0452
   23BDD     C913097   2.281  -4.103   7.284 -0.4477  0.1637  0.0416
   23BDD     S213098   2.366  -3.976   7.378 -0.1939  0.2111 -0.2487
   23BDD    C1013099   2.268  -3.850   7.297  0.0092  0.2177 -0.4861
   23BDD    C1113100   2.294  -3.705   7.348  0.2575 -1.0589 -0.5242
   23BDD    C1213101   2.299  -3.580   7.256  0.0911 -0.1736  0.2281
   23BDD    C1313102   2.393  -3.596   7.127  1.4859 -0.3107  0.4502
   23BDD    C1413103   2.393  -3.490   7.013  0.2501 -0.1136  0.0038
   23BDD    C1513104   2.485  -3.523   6.891  0.0542  0.7204 -0.6684
   23BDD    C1613105   2.474  -3.396   6.816  0.5688  0.6200  0.5379
   23BDD    C1713106   2.321  -3.455   7.349  0.0437  0.7509  0.4558
   23BDD    C1813107   2.281  -3.316   7.290 -1.7145 -0.5086 -0.0273
   23BDD    C1913108   2.332  -4.241   7.312 -0.8301  0.0787 -0.0832
   23BDD    C2013109   2.468  -4.300   7.245 -0.2179 -0.4181  1.9225
   23BDD    C2113110   2.476  -4.295   7.090  1.0912  0.1221  0.3814
   23BDD    C2213111   2.365  -4.378   7.018 -1.3674  0.7907 -1.1053
   23BDD    C2313112   2.402  -4.450   6.880 -0.3490  0.3851 -1.2506
   23BDD    C2413113   2.420  -4.359   6.772 -0.8318 -0.3952  0.6697
   23BDD    C2513114   2.612  -4.248   7.288  0.1114  0.8324 -0.4574
   23BDD    C2613115   2.667  -4.119   7.245  0.1338 -0.4734 -2.3322
   24TPM     C113116   1.908  -4.237   6.874 -0.2061 -0.4768 -0.1264
   24TPM     C213117   1.790  -4.243   6.805  0.0907 -1.0223 -0.6135
   24TPM     C313118   1.742  -4.376   6.782  0.5165 -1.2310 -0.3141
   24TPM     C413119   1.824  -4.473   6.833  0.5442 -0.8447  0.4012
   24TPM     S113120   1.968  -4.403   6.915  0.0309 -0.1819  0.7550
   25BDTP    C113121   1.680  -5.080   6.747 -0.1839  0.3042 -0.1216
   25BDTP    C213122   1.803  -5.084   6.820 -0.3159  0.2134  0.0972
   25BDTP    C313123   1.871  -4.970   6.858 -0.3415  0.1645  0.2935
   25BDTP    C413124   1.817  -4.845   6.823 -0.2318  0.2069  0.2736
   25BDTP    C513125   1.694  -4.841   6.750 -0.0997  0.2977  0.0550
   25BDTP    C613126   1.626  -4.955   6.712 -0.0742  0.3466 -0.1413
   25BDTP    C713127   1.870  -4.713   6.851 -0.2335  0.1701  0.4527
   25BDTP    C813128   1.794  -4.611   6.803 -0.1107  0.2279  0.3798
   25BDTP    S113129   1.645  -4.668   6.716  0.0244  0.3376  0.0743
   25BDTP    C913130   1.627  -5.212   6.719 -0.1821  0.3412 -0.3005
   25BDTP   C1013131   1.703  -5.314   6.767 -0.3049  0.2834 -0.2276
   25BDTP    S213132   1.852  -5.257   6.854 -0.4401  0.1737  0.0779
   26FTM     S113133   2.119  -4.865   6.950 -0.2598 -0.3220 -0.4629
   26FTM     C113134   2.165  -4.924   7.114 -0.5265  0.4257 -0.1102
   26FTM     C213135   2.079  -5.021   7.154 -0.8691  0.9245  0.3994
   26FTM     C313136   1.975  -5.055   7.062 -0.9431  0.7597  0.5432
   26FTM     C413137   1.981  -4.981   6.948 -0.6477  0.1138  0.1304
   26FTM     F113138   2.090  -5.085   7.277 -1.1359  1.5597  0.7657
   26FTM     C513139   2.293  -4.865   7.187 -0.0637  0.9388  0.9879
   26FTM     C613140   2.413  -4.953   7.234 -0.3744  0.9705 -0.2380
   26FTM     C713141   2.544  -4.921   7.154 -0.1794 -0.3643 -0.4356
   26FTM     C813142   2.543  -4.979   7.013 -0.8180 -0.1899  0.0607
   26FTM     C913143   2.604  -4.870   6.911  0.3138 -0.1711 -0.0998
   26FTM    C1013144   2.619  -4.912   6.763  0.4505 -0.3458 -0.0755
   26FTM    C1113145   2.390  -5.069   7.325 -1.6494 -0.2416 -0.5067
   26FTM    C1213146   2.524  -5.100   7.392  0.0976  0.3785 -0.5811
   27FTM     S113147   1.462  -4.886   6.497 -0.3856  0.3535  0.3418
   27FTM     C113148   1.285  -4.916   6.513 -0.3700  0.3346  0.4765
   27FTM     C213149   1.259  -4.973   6.634 -0.1527 -0.6143  0.0868
   27FTM     C313150   1.372  -4.998   6.718  0.0109 -1.3665 -0.3299
   27FTM     C413151   1.489  -4.957   6.661 -0.0841 -0.9810 -0.2572
   27FTM     F113152   1.131  -5.008   6.674 -0.0891 -0.8583  0.0846
   27FTM     C513153   1.193  -4.893   6.396 -0.2517 -0.2759 -1.6037
   27FTM     C613154   1.213  -4.856   6.243  0.0045  0.4366  0.8478
   27FTM     C713155   1.121  -4.889   6.114  0.1429 -0.5097 -0.1668
   27FTM     C813156   0.977  -4.827   6.096 -0.3283  0.4177  1.2877
   27FTM     C913157   1.007  -4.690   6.040 -0.7190 -0.3887  0.1498
   27FTM    C1013158   0.893  -4.614   6.002  0.5911 -0.7970  0.0664
   27FTM    C1113159   1.323  -4.774   6.200 -0.7875 -0.6048  0.3333
   27FTM    C1213160   1.338  -4.623   6.199 -0.5567  0.5344 -0.6075
   28TPM     C113161   1.683  -5.447   6.755  0.8725 -0.3250 -1.0759
   28TPM     C213162   1.564  -5.505   6.726  0.9885 -0.2518 -1.7345
   28TPM     C313163   1.562  -5.648   6.749  0.6915 -0.2062 -1.4558
   28TPM     C413164   1.680  -5.697   6.795  0.3491 -0.2446 -0.5845
   28TPM     S113165   1.804  -5.567   6.814  0.3754 -0.3423 -0.0444
   29BDD     C113166   1.718  -6.087   6.759  0.1923  0.2784 -0.1832
   29BDD     C213167   1.690  -6.066   6.891  0.1435  0.2314 -0.1862
   29BDD     C313168   1.675  -5.925   6.925 -0.1375  0.2068 -0.1974
   29BDD     C413169   1.694  -5.841   6.819 -0.2990  0.2357 -0.2029
   29BDD     S113170   1.730  -5.932   6.668 -0.1102  0.2953 -0.1942
   29BDD     C513171   1.674  -6.174   6.990  0.3535  0.2072 -0.1789
   29BDD     C613172   1.644  -5.879   7.062 -0.2358  0.1557 -0.2027
   29BDD     O113173   1.632  -5.758   7.092 -0.4781  0.1345 -0.2123
   29BDD     O213174   1.686  -6.295   6.961  0.5958  0.2283 -0.1690
   29BDD     C713175   1.629  -5.988   7.162 -0.0259  0.1315 -0.1951
   29BDD     C813176   1.643  -6.128   7.127  0.2552  0.1559 -0.1839
   29BDD     C913177   1.625  -6.212   7.234  0.4166  0.1271 -0.1785
   29BDD     S213178   1.589  -6.121   7.384  0.2279  0.0674 -0.1871
   29BDD    C1013179   1.600  -5.967   7.294 -0.0747  0.0842 -0.1982
   29BDD    C1113180   1.582  -5.833   7.369 -1.5584  0.7959  0.5998
   29BDD    C1213181   1.464  -5.790   7.452 -0.4029  1.0657 -0.0564
   29BDD    C1313182   1.323  -5.851   7.449  0.0823  0.6628  0.7533
   29BDD    C1413183   1.218  -5.825   7.568  0.5356  0.9415  0.4900
   29BDD    C1513184   1.145  -5.688   7.567  0.4491  0.9648 -0.2401
   29BDD    C1613185   1.000  -5.738   7.605  0.5759  1.0893 -0.1467
   29BDD    C1713186   1.499  -5.670   7.527  0.2830  0.0091  0.2639
   29BDD    C1813187   1.528  -5.677   7.684  0.4757 -0.3249  1.5763
   29BDD    C1913188   1.627  -6.366   7.246  0.9735 -0.9389  1.7658
   29BDD    C2013189   1.496  -6.440   7.203 -0.4195 -0.3363  1.5962
   29BDD    C2113190   1.535  -6.580   7.204 -1.1560 -1.3105 -0.3548
   29BDD    C2213191   1.475  -6.715   7.153  0.0915 -0.0802  0.7931
   29BDD    C2313192   1.512  -6.717   7.002  0.1884  0.2614  0.4877
   29BDD    C2413193   1.644  -6.676   6.914  0.0646  0.2294 -0.0796
   29BDD    C2513194   1.414  -6.373   7.080 -0.3772  0.4806 -0.0896
   29BDD    C2613195   1.273  -6.456   7.067 -0.2675 -0.2874  0.4022
   30TPM     C113196   1.742  -6.203   6.661 -0.7620 -1.4060 -0.3677
   30TPM     C213197   1.846  -6.281   6.701 -1.0853 -1.9581 -0.5788
   30TPM     C313198   1.919  -6.341   6.592 -0.5229 -0.8744 -0.8330
   30TPM     C413199   1.869  -6.309   6.469  0.2293  0.5039 -0.8153
   30TPM     S113200   1.726  -6.199   6.482  0.2861  0.5406 -0.4739
   31BDTP    C113201   1.980  -6.581   5.921  0.2052  0.0051 -0.0434
   31BDTP    C213202   2.038  -6.452   5.904 -0.0634  0.1189 -0.1025
   31BDTP    C313203   2.039  -6.356   6.004 -0.3368  0.1984 -0.1737
   31BDTP    C413204   1.980  -6.389   6.128 -0.3463  0.1645 -0.1873
   31BDTP    C513205   1.922  -6.518   6.145 -0.0777  0.0505 -0.1281
   31BDTP    C613206   1.921  -6.614   6.045  0.1958 -0.0290 -0.0569
   31BDTP    C713207   1.969  -6.307   6.246 -0.6029  0.2317 -0.2564
   31BDTP    C813208   1.907  -6.367   6.351 -0.5408  0.1745 -0.2519
   31BDTP    S113209   1.853  -6.536   6.313 -0.1484  0.0275 -0.1596
   31BDTP    C913210   1.991  -6.664   5.802  0.4619 -0.0622  0.0256
   31BDTP   C1013211   2.053  -6.603   5.698  0.3998 -0.0051  0.0211
   31BDTP    S213212   2.107  -6.434   5.736  0.0075  0.1419 -0.0711
   32FTM     S113213   2.006  -6.079   5.921  0.8807  0.3284  0.4536
   32FTM     C113214   2.156  -5.982   5.902  1.2395 -0.2160  0.4464
   32FTM     C213215   2.265  -6.058   5.930  1.0026 -0.7745 -0.0974
   32FTM     C313216   2.239  -6.194   5.968  0.5390 -0.8123 -0.5312
   32FTM     C413217   2.105  -6.222   5.969  0.4168 -0.2648 -0.3124
   32FTM     F113218   2.394  -6.010   5.924  1.1916 -1.2846 -0.2350
   32FTM     C513219   2.150  -5.836   5.859 -1.2994 -0.2288 -0.6788
   32FTM     C613220   2.156  -5.733   5.977 -0.3225 -2.0671  0.6467
   32FTM     C713221   2.065  -5.734   6.102  1.5257  0.1958  0.6095
   32FTM     C813222   1.916  -5.737   6.103  0.2070 -1.2197  1.8384
   32FTM     C913223   1.840  -5.784   6.223  0.1459 -0.4012 -0.4727
   32FTM    C1013224   1.698  -5.803   6.208  1.5357  0.0660 -0.2262
   32FTM    C1113225   2.163  -5.584   5.935 -1.8085 -0.7456 -0.3380
   32FTM    C1213226   2.260  -5.549   5.809  0.6886  1.1528 -0.4735
   33FTM     S113227   1.942  -6.896   6.110 -0.4523  0.0667 -0.2856
   33FTM     C113228   1.785  -6.984   6.120 -0.5159  0.2781  0.8208
   33FTM     C213229   1.682  -6.899   6.094 -0.5445  0.3028  1.0166
   33FTM     C313230   1.718  -6.763   6.066 -0.5193  0.1619  0.3347
   33FTM     C413231   1.853  -6.744   6.070 -0.4698  0.0252 -0.4072
   33FTM     F113232   1.549  -6.938   6.095 -0.5953  0.4543  1.8247
   33FTM     C513233   1.775  -7.135   6.159  0.5403  0.6245  0.6540
   33FTM     C613234   1.743  -7.163   6.307  0.6247  1.1698  0.6236
   33FTM     C713235   1.853  -7.153   6.398 -0.8244  0.4750 -0.5843
   33FTM     C813236   1.980  -7.055   6.430  1.4813 -0.2534 -0.0585
   33FTM     C913237   2.009  -7.019   6.574 -0.5185 -0.3787  0.5259
   33FTM    C1013238   1.883  -6.957   6.633 -0.5267  1.0166 -1.0294
   33FTM    C1113239   1.655  -7.293   6.343 -1.1806 -0.4579 -0.1003
   33FTM    C1213240   1.517  -7.244   6.395  1.0842 -0.5039  0.0555
   34TPM     C113241   2.061  -6.676   5.573 -0.2055  0.4428  0.5394
   34TPM     C213242   2.137  -6.654   5.462 -0.1156  1.0076  0.7076
   34TPM     C313243   2.138  -6.764   5.369  0.2748  1.3202  0.3314
   34TPM     C413244   2.063  -6.871   5.410  0.4823  0.9936 -0.1239
   34TPM     S113245   1.984  -6.839   5.569  0.1988  0.2602 -0.1124
   35BDD     C113246   2.056  -7.258   5.361  0.0928  0.0036 -0.0433
   35BDD     C213247   2.086  -7.211   5.236  0.0335 -0.0354 -0.0722
   35BDD     C313248   2.098  -7.067   5.230  0.1186 -0.0435 -0.1044
   35BDD     C413249   2.077  -7.005   5.350  0.2415 -0.0107 -0.0993
   35BDD     S113250   2.041  -7.125   5.479  0.2592  0.0329 -0.0541
   35BDD     C513251   2.105  -7.298   5.117 -0.1036 -0.0668 -0.0715
   35BDD     C613252   2.130  -6.995   5.105  0.0747 -0.0839 -0.1389
   35BDD     O113253   2.140  -6.870   5.099  0.1481 -0.0908 -0.1665
   35BDD     O213254   2.094  -7.422   5.122 -0.1770 -0.0600 -0.0439
   35BDD     C713255   2.148  -7.081   4.986 -0.0623 -0.1152 -0.1382
   35BDD     C813256   2.136  -7.226   4.992 -0.1474 -0.1070 -0.1060
   35BDD     C913257   2.157  -7.287   4.872 -0.2704 -0.1402 -0.1110
   35BDD     S213258   2.194  -7.168   4.743 -0.2880 -0.1838 -0.1562
   35BDD    C1013259   2.178  -7.034   4.861 -0.1217 -0.1544 -0.1671
   35BDD    C1113260   2.222  -6.900   4.806 -0.2430 -0.0085  0.3469
   35BDD    C1213261   2.082  -6.833   4.759  0.7915 -0.1739  0.5030
   35BDD    C1313262   1.958  -6.902   4.681  0.5513  0.2110 -0.0398
   35BDD    C1413263   1.826  -6.890   4.766 -0.2487  0.5095  0.9757
   35BDD    C1513264   1.834  -6.996   4.876 -0.3805 -0.9513  0.1416
   35BDD    C1613265   1.810  -7.136   4.808 -0.4069 -0.1577  0.1556
   35BDD    C1713266   2.080  -6.694   4.733  0.9299 -0.2278  0.8166
   35BDD    C1813267   2.136  -6.671   4.586 -1.0921 -0.7050  0.0655
   35BDD    C1913268   2.166  -7.430   4.833  0.1719  0.2194 -0.5921
   35BDD    C2013269   2.268  -7.470   4.736  0.9101 -0.5058  0.2565
   35BDD    C2113270   2.418  -7.470   4.762  0.7823 -0.2541  0.0614
   35BDD    C2213271   2.476  -7.570   4.870  0.3669  0.2554 -0.0951
   35BDD    C2313272   2.438  -7.708   4.831 -0.4317  0.3856 -1.3417
   35BDD    C2413273   2.506  -7.803   4.928 -1.1371 -0.2576 -1.4536
   35BDD    C2513274   2.211  -7.533   4.596 -0.7317 -1.2327 -0.3289
   35BDD    C2613275   2.314  -7.588   4.488 -1.0547  0.3178 -0.3967
   36TPM     C113276   2.036  -7.382   5.432  0.8973  0.0934 -0.0528
   36TPM     C213277   2.044  -7.390   5.568  0.6417  0.4094 -0.0149
   36TPM     C313278   2.030  -7.525   5.619  0.0744  0.5859  0.3060
   36TPM     C413279   2.010  -7.618   5.521 -0.1025  0.4046  0.5125
   36TPM     S113280   2.009  -7.543   5.357  0.4378 -0.0064  0.3164
   37BDTP    C113281   2.092  -8.225   5.631 -0.5652  0.0702  0.0360
   37BDTP    C213282   2.126  -8.211   5.494 -0.2689 -0.0851  0.0913
   37BDTP    C313283   2.113  -8.091   5.425 -0.0535 -0.1435 -0.0538
   37BDTP    C413284   2.065  -7.979   5.496 -0.1337 -0.0443 -0.2632
   37BDTP    C513285   2.031  -7.993   5.634 -0.4300  0.1109 -0.3184
   37BDTP    C613286   2.043  -8.114   5.702 -0.6453  0.1693 -0.1734
   37BDTP    C713287   2.043  -7.844   5.447  0.0508 -0.0789 -0.4404
   37BDTP    C813288   1.995  -7.758   5.540 -0.0909  0.0414 -0.6238
   37BDTP    S113289   1.971  -7.835   5.703 -0.4779  0.2154 -0.5976
   37BDTP    C913290   2.113  -8.360   5.681 -0.7498  0.1048  0.2134
   37BDTP   C1013291   2.161  -8.446   5.588 -0.6081 -0.0156  0.3967
   37BDTP    S213292   2.185  -8.369   5.425 -0.2210 -0.1895  0.3705
   38FTM     S113293   2.017  -8.085   5.145  0.2418  0.1373  0.0970
   38FTM     C113294   2.145  -8.101   5.019 -0.1143  0.0389 -0.2538
   38FTM     C213295   2.268  -8.101   5.077  0.0483 -0.0029 -0.5937
   38FTM     C313296   2.270  -8.090   5.219  0.4500  0.0381 -0.6020
   38FTM     C413297   2.145  -8.080   5.273  0.5999  0.1138 -0.2570
   38FTM     F113298   2.385  -8.112   5.004 -0.1569 -0.0806 -0.9176
   38FTM     C513299   2.116  -8.115   4.868  0.2410 -0.3336 -0.4580
   38FTM     C613300   2.151  -8.246   4.812  0.3132 -0.9519 -1.5456
   38FTM     C713301   2.041  -8.350   4.803  0.6469  0.4292 -0.5632
   38FTM     C813302   2.012  -8.438   4.930  0.6719  1.0607  1.0808
   38FTM     C913303   1.865  -8.498   4.942 -0.5768  0.4896  0.7298
   38FTM    C1013304   1.778  -8.406   5.018  0.1666 -0.0035  0.2188
   38FTM    C1113305   2.193  -8.214   4.679  1.1811  1.0074  1.3722
   38FTM    C1213306   2.283  -8.316   4.602  1.5798  0.4760 -0.3077
   39FTM     S113307   2.019  -8.190   5.968 -0.0530 -0.2811  0.2866
   39FTM     C113308   1.854  -8.211   6.036 -0.0641 -1.4667 -0.0649
   39FTM     C213309   1.761  -8.194   5.939 -0.0035 -1.4173 -0.1143
   39FTM     C313310   1.811  -8.163   5.808  0.0540 -0.4773  0.1127
   39FTM     C413311   1.947  -8.157   5.805  0.0368  0.2159  0.3434
   39FTM     F113312   1.624  -8.204   5.962  0.0037 -2.2205 -0.3681
   39FTM     C513313   1.827  -8.238   6.182 -0.2125 -1.3534 -0.8629
   39FTM     C613314   1.887  -8.368   6.242  0.4164  0.6557 -0.2451
   39FTM     C713315   1.859  -8.501   6.173 -0.8281 -0.5550 -0.0634
   39FTM     C813316   1.714  -8.541   6.138  0.8001 -1.2669  0.1099
   39FTM     C913317   1.708  -8.626   6.015  1.7952  1.1509  0.9445
   39FTM    C1013318   1.556  -8.636   5.969 -0.2215 -0.5443 -0.5554
   39FTM    C1113319   2.028  -8.374   6.277 -1.1851  0.4198 -0.4383
   39FTM    C1213320   2.059  -8.302   6.399  0.3832 -0.3154 -0.0349
   40TPM     C113321   2.195  -8.590   5.588 -0.0075 -0.6393 -0.6033
   40TPM     C213322   2.235  -8.664   5.481 -0.0273 -0.8097 -0.4950
   40TPM     C313323   2.245  -8.805   5.507  0.4041 -0.7179 -0.1506
   40TPM     C413324   2.213  -8.839   5.636  0.7527 -0.4777  0.0035
   40TPM     S113325   2.167  -8.694   5.733  0.5619 -0.3475 -0.2763
   41BDD     C113326   2.284  -9.141   5.870  0.4160 -0.1977 -0.1746
   41BDD     C213327   2.213  -9.198   5.768  0.3668 -0.2906 -0.0894
   41BDD     C313328   2.176  -9.103   5.664  0.3049 -0.3821 -0.1509
   41BDD     C413329   2.219  -8.976   5.688  0.3079 -0.3574 -0.2822
   41BDD     S113330   2.309  -8.965   5.843  0.3884 -0.2182 -0.3378
   41BDD     C513331   2.176  -9.341   5.762  0.3749 -0.2988  0.0519
   41BDD     C613332   2.099  -9.143   5.544  0.2452 -0.4905 -0.0772
   41BDD     O113333   2.067  -9.061   5.454  0.1918 -0.5694 -0.1304
   41BDD     O213334   2.208  -9.422   5.851  0.4282 -0.2199  0.1050
   41BDD     C713335   2.062  -9.286   5.538  0.2532 -0.4986  0.0639
   41BDD     C813336   2.099  -9.380   5.642  0.3150 -0.4072  0.1255
   41BDD     C913337   2.056  -9.507   5.617  0.3121 -0.4317  0.2567
   41BDD     S213338   1.966  -9.518   5.463  0.2317 -0.5710  0.3122
   41BDD    C1013339   1.991  -9.342   5.436  0.2040 -0.5915  0.1490
   41BDD    C1113340   1.953  -9.283   5.295  0.8446  1.3357 -0.2145
   41BDD    C1213341   2.060  -9.296   5.189 -0.2231 -0.5113 -0.3894
   41BDD    C1313342   2.021  -9.275   5.040 -1.1311 -0.9210  0.5195
   41BDD    C1413343   1.973  -9.135   4.996  1.0142 -0.7535  0.7089
   41BDD    C1513344   1.827  -9.096   5.035  0.0441  1.3620  0.2541
   41BDD    C1613345   1.720  -9.123   4.920  1.4930 -0.1678 -0.0546
   41BDD    C1713346   2.211  -9.261   5.211  0.4298 -0.8947 -1.2338
   41BDD    C1813347   2.305  -9.294   5.097  0.9517 -0.2514 -0.4240
   41BDD    C1913348   2.047  -9.650   5.702  0.1172  0.5280  1.2478
   41BDD    C2013349   2.002  -9.640   5.848 -1.6208 -0.9197  0.3839
   41BDD    C2113350   2.036  -9.753   5.943 -0.9664 -0.1556 -0.6629
   41BDD    C2213351   2.114  -9.719   6.078 -0.1066 -0.7703 -0.8672
   41BDD    C2313352   2.129  -9.857   6.142 -0.0305  0.5369 -0.6431
   41BDD    C2413353   2.161  -9.834   6.290  0.0791  1.5790  0.7395
   41BDD    C2513354   1.882  -9.549   5.877 -0.5524  1.1335  1.0108
   41BDD    C2613355   1.876  -9.491   6.017  0.5642  0.7111  0.1985
   42TPM     C113356   2.341  -9.185   5.998  1.0860 -1.1468 -0.2725
   42TPM     C213357   2.477  -9.178   6.008  1.1674 -2.3304 -0.2104
   42TPM     C313358   2.529  -9.238   6.128  0.5252 -2.2548  0.1165
   42TPM     C413359   2.433  -9.291   6.209 -0.0458 -1.0135  0.3034
   42TPM     S113360   2.268  -9.269   6.140  0.1851  0.1654  0.0798
   43BDTP    C113361   2.460  -9.432   6.820  0.2521 -0.0525  0.1531
   43BDTP    C213362   2.348  -9.345   6.806  0.4269  0.1727  0.1309
   43BDTP    C313363   2.306  -9.296   6.683  0.5401  0.2439  0.1209
   43BDTP    C413364   2.378  -9.334   6.569  0.4781  0.0859  0.1330
   43BDTP    C513365   2.491  -9.420   6.583  0.3033 -0.1391  0.1553
   43BDTP    C613366   2.532  -9.469   6.706  0.1901 -0.2103  0.1655
   43BDTP    C713367   2.354  -9.295   6.431  0.5712  0.1204  0.1261
   43BDTP    C813368   2.442  -9.348   6.342  0.4758 -0.0654  0.1420
   43BDTP    S113369   2.567  -9.454   6.421  0.2548 -0.3104  0.1678
   43BDTP    C913370   2.484  -9.470   6.958  0.1591 -0.0869  0.1600
   43BDTP   C1013371   2.396  -9.417   7.047  0.2545  0.0990  0.1442
   43BDTP    S213372   2.271  -9.311   6.968  0.4755  0.3440  0.1183
   44FTM     S113373   2.205  -9.026   6.629  0.1170  0.0960 -0.2467
   44FTM     C113374   2.026  -9.010   6.640  0.0883 -0.2608 -0.1588
   44FTM     C213375   1.970  -9.130   6.670  0.3295 -0.4056 -0.2868
   44FTM     C313376   2.061  -9.240   6.685  0.5460 -0.2515 -0.4575
   44FTM     C413377   2.190  -9.202   6.666  0.4682  0.0202 -0.4598
   44FTM     F113378   1.833  -9.148   6.685  0.3684 -0.6862 -0.2577
   44FTM     C513379   1.980  -8.874   6.601  1.6561 -1.0516  0.5313
   44FTM     C613380   1.826  -8.858   6.551 -0.3963  0.0783 -0.5760
   44FTM     C713381   1.790  -8.711   6.549 -1.4269  0.6304  0.6853
   44FTM     C813382   1.652  -8.669   6.565 -1.1216  0.6967 -0.3375
   44FTM     C913383   1.550  -8.733   6.671 -0.7698 -0.7449  0.3961
   44FTM    C1013384   1.414  -8.670   6.665 -0.1896 -0.1496  0.0441
   44FTM    C1113385   1.788  -8.942   6.430  1.2577 -1.1218 -1.5153
   44FTM    C1213386   1.865  -8.927   6.306  0.2539 -0.5544  0.4572
   45FTM     S113387   2.691  -9.700   6.777 -0.6580  0.0932 -0.0915
   45FTM     C113388   2.869  -9.674   6.757 -0.5638 -0.2672  0.2471
   45FTM     C213389   2.892  -9.548   6.714 -0.2398 -0.3866  0.0681
   45FTM     C313390   2.777  -9.465   6.695 -0.0495 -0.2093 -0.3338
   45FTM     C413391   2.661  -9.530   6.724 -0.2340  0.0544 -0.4668
   45FTM     F113392   3.020  -9.499   6.689 -0.0962 -0.6634  0.2574
   45FTM     C513393   2.953  -9.791   6.790  0.6178 -0.4672  0.3144
   45FTM     C613394   3.059  -9.784   6.889 -0.8923  1.7945 -0.0610
   45FTM     C713395   3.010  -9.727   7.015  0.5028  0.1077  0.4892
   45FTM     C813396   3.069  -9.599   7.058 -0.1209 -0.5185  0.2099
   45FTM     C913397   2.976  -9.486   7.035 -0.1824 -0.7632  0.4730
   45FTM    C1013398   3.006  -9.355   7.121  1.0651  1.0615  0.8657
   45FTM    C1113399   3.154  -9.917   6.912  2.0527 -0.0141  0.0334
   45FTM    C1213400   3.292  -9.884   6.969 -0.6904 -0.2402  0.1056
   46TPM     C113401   2.371  -9.453   7.181  0.0996  0.1870 -0.0961
   46TPM     C213402   2.261  -9.410   7.249  0.2514  0.1394  0.1848
   46TPM     C313403   2.256  -9.454   7.386  0.3960 -0.2337  0.0712
   46TPM     C413404   2.362  -9.532   7.423  0.3545 -0.4705 -0.2966
   46TPM     S113405   2.478  -9.554   7.286  0.1278 -0.2388 -0.5293
   47BDD     C113406   2.236  -9.684   7.760 -0.5855  0.3945 -0.3521
   47BDD     C213407   2.311  -9.781   7.699 -0.5251  0.4087 -0.3008
   47BDD     C313408   2.361  -9.742   7.569 -0.4441  0.4179 -0.2669
   47BDD     C413409   2.324  -9.615   7.532 -0.4438  0.4106 -0.2929
   47BDD     S113410   2.224  -9.537   7.658 -0.5451  0.3916 -0.3612
   47BDD     C513411   2.339  -9.913   7.759 -0.5397  0.4145 -0.2813
   47BDD     C613412   2.444  -9.831   7.486 -0.3698  0.4338 -0.2103
   47BDD     O113413   2.488  -9.797   7.373 -0.2998  0.4417 -0.1811
   47BDD     O213414   2.295  -9.947   7.871 -0.6096  0.4065 -0.3105
   47BDD     C713415   2.472  -9.963   7.545 -0.3844  0.4394 -0.1909
   47BDD     C813416   2.422 -10.003   7.675 -0.4655  0.4303 -0.2246
   47BDD     C913417   2.459 -10.129   7.712 -0.4658  0.4377 -0.1987
   47BDD     S213418   2.559 -10.208   7.586 -0.3644  0.4566 -0.1303
   47BDD    C1013419   2.547 -10.060   7.484 -0.3240  0.4538 -0.1396
   47BDD    C1113420   2.634 -10.079   7.360 -0.1592  0.3999 -1.0224
   47BDD    C1213421   2.575 -10.163   7.253  0.1373  0.9889  0.5239
   47BDD    C1313422   2.443 -10.090   7.207  0.3559 -1.0650  0.3530
   47BDD    C1413423   2.355 -10.164   7.104  0.7125  0.8199 -0.1319
   47BDD    C1513424   2.243 -10.264   7.153 -0.7366  0.9897  0.8111
   47BDD    C1613425   2.166 -10.246   7.289  0.5662  0.3358  0.2452
   47BDD    C1713426   2.666 -10.204   7.130  0.0428  0.4631 -0.2954
   47BDD    C1813427   2.758 -10.105   7.046  1.9149 -0.2174  0.6937
   47BDD    C1913428   2.444 -10.198   7.847 -0.4638  0.5498 -1.4921
   47BDD    C2013429   2.351 -10.314   7.890  1.0527 -0.4871 -1.0291
   47BDD    C2113430   2.391 -10.436   7.812  1.1073  0.3779 -0.3721
   47BDD    C2213431   2.329 -10.570   7.841  0.3739 -0.0385  0.6518
   47BDD    C2313432   2.269 -10.608   7.959  0.7436  1.7159  0.4016
   47BDD    C2413433   2.219 -10.752   7.969 -0.6357  1.1917 -0.2399
   47BDD    C2513434   2.197 -10.288   7.908 -2.2947 -0.0822 -0.9332
   47BDD    C2613435   2.139 -10.183   7.989  0.2201 -1.1764 -0.3828
   48TPM     C113436   2.174  -9.665   7.881  0.6282  0.5204 -0.5613
   48TPM     C213437   2.039  -9.684   7.898  0.6137  0.2816 -0.9311
   48TPM     C313438   1.993  -9.654   8.030  0.2932 -0.3779 -0.8850
   48TPM     C413439   2.091  -9.612   8.115  0.0634 -0.6418 -0.4803
   48TPM     S113440   2.251  -9.607   8.033  0.2352 -0.0736 -0.1228
   49BDTP    C113441   1.989  -9.452   8.717 -0.1125  0.0307  0.0749
   49BDTP    C213442   2.037  -9.330   8.661  0.0524 -0.0466  0.0470
   49BDTP    C313443   2.076  -9.319   8.528  0.0206 -0.1172  0.0315
   49BDTP    C413444   2.067  -9.433   8.447 -0.1834 -0.1116  0.0441
   49BDTP    C513445   2.019  -9.555   8.503 -0.3484 -0.0344  0.0720
   49BDTP    C613446   1.980  -9.566   8.636 -0.3165  0.0363  0.0874
   49BDTP    C713447   2.102  -9.446   8.307 -0.2543 -0.1763  0.0325
   49BDTP    C813448   2.082  -9.570   8.256 -0.4618 -0.1517  0.0498
   49BDTP    S113449   2.017  -9.688   8.378 -0.5966 -0.0431  0.0837
   49BDTP    C913450   1.954  -9.439   8.857 -0.0416  0.0954  0.0868
   49BDTP   C1013451   1.973  -9.315   8.908  0.1658  0.0708  0.0691
   49BDTP    S213452   2.038  -9.197   8.786  0.3007 -0.0379  0.0353
   50FTM     S113453   2.021  -9.131   8.320 -0.1463  0.6408  0.1143
   50FTM     C113454   2.130  -8.988   8.311  0.2830  0.3348  0.3704
   50FTM     C213455   2.223  -8.995   8.410  0.6295 -0.4137  0.0057
   50FTM     C313456   2.216  -9.109   8.496  0.5835 -0.7858 -0.4835
   50FTM     C413457   2.114  -9.193   8.462  0.1888 -0.3068 -0.4933
   50FTM     F113458   2.321  -8.898   8.428  1.0091 -0.8060  0.0935
   50FTM     C513459   2.148  -8.899   8.188 -0.4264  1.3903  0.5386
   50FTM     C613460   2.180  -8.970   8.057 -0.9293  1.0788  0.3965
   50FTM     C713461   2.102  -9.068   7.981  0.6650  0.9265 -0.2192
   50FTM     C813462   1.957  -9.093   7.923 -0.2040  0.6215 -0.6475
   50FTM     C913463   1.939  -9.207   7.811 -0.4008 -0.7634 -0.2226
   50FTM    C1013464   1.977  -9.155   7.672 -0.7049  0.4933 -0.5229
   50FTM    C1113465   2.207  -8.849   7.974 -0.3915  1.0045  0.4686
   50FTM    C1213466   2.299  -8.860   7.844  0.4886 -1.0745  0.5863
   51FTM     S113467   1.770  -9.748   8.597 -0.0099  0.0930  0.5008
   51FTM     C113468   1.762  -9.884   8.715  0.7142  0.0077  0.4610
   51FTM     C213469   1.859  -9.870   8.809  1.3820 -0.1269 -0.1874
   51FTM     C313470   1.944  -9.755   8.796  1.3716 -0.1707 -0.6802
   51FTM     C413471   1.910  -9.679   8.688  0.6731 -0.0664 -0.4003
   51FTM     F113472   1.877  -9.960   8.913  2.0424 -0.2183 -0.3729
   51FTM     C513473   1.673  -9.989   8.671  0.7968 -0.5825  0.1638
   51FTM     C613474   1.540 -10.029   8.730  1.3883  0.5791 -0.9043
   51FTM     C713475   1.433 -10.112   8.644 -0.2815  0.7901 -0.8197
   51FTM     C813476   1.409 -10.053   8.499  2.0208 -1.8215 -0.9899
   51FTM     C913477   1.276 -10.085   8.429 -0.3637  0.8199 -0.3257
   51FTM    C1013478   1.236  -9.990   8.308  0.3950  0.8348 -0.9702
   51FTM    C1113479   1.522 -10.095   8.874  1.0408 -0.3011  1.2731
   51FTM    C1213480   1.575 -10.021   8.983 -0.7170 -0.2072 -0.1611
   52TPM     C113481   1.964  -9.278   9.044  0.6376 -1.1474  0.1186
   52TPM     C213482   1.958  -9.150   9.092  1.0856 -0.9774 -0.2587
   52TPM     C313483   1.946  -9.142   9.235  0.6343 -0.5332 -0.3140
   52TPM     C413484   1.945  -9.263   9.297 -0.1578 -0.3643  0.0212
   52TPM     S113485   1.957  -9.398   9.178 -0.3970 -0.7564  0.4358
   53BDD     C113486   2.055  -9.420   9.643  0.5779  0.1366 -0.2524
   53BDD     C213487   1.981  -9.311   9.679  0.3927  0.0205 -0.2811
   53BDD     C313488   1.927  -9.238   9.565 -0.0634 -0.3261 -0.2923
   53BDD     C413489   1.961  -9.292   9.444 -0.2194 -0.4692 -0.2725
   53BDD     S113490   2.063  -9.439   9.465  0.1941 -0.1799 -0.2377
   53BDD     C513491   1.957  -9.269   9.818  0.6283  0.2239 -0.2987
   53BDD     C613492   1.844  -9.117   9.580 -0.3280 -0.5026 -0.3228
   53BDD     O113493   1.797  -9.054   9.483 -0.7213 -0.8015 -0.3328
   53BDD     O213494   2.003  -9.332   9.916  1.0215  0.5227 -0.2887
   53BDD     C713495   1.819  -9.075   9.720 -0.0925 -0.2993 -0.3407
   53BDD     C813496   1.873  -9.148   9.834  0.3636  0.0473 -0.3290
   53BDD     C913497   1.839  -9.094   9.954  0.5196  0.1904 -0.3486
   53BDD     S213498   1.737  -8.947   9.934  0.1061 -0.0988 -0.3832
   53BDD    C1013499   1.745  -8.966   9.756 -0.2777 -0.4153 -0.3688
   53BDD    C1113500   1.652  -8.866   9.676 -0.2036  0.3885 -0.9032
   53BDD    C1213501   1.526  -8.943   9.625 -0.0185  1.0390 -0.2167
   53BDD    C1313502   1.432  -8.994   9.734  0.5297  0.6875 -0.8159
   53BDD    C1413503   1.276  -9.034   9.725  0.2500  0.2300 -1.8149
   53BDD    C1513504   1.197  -8.995   9.864 -0.0763  0.2558 -0.6748
   53BDD    C1613505   1.142  -8.857   9.863 -0.4055 -2.0061  0.7058
   53BDD    C1713506   1.452  -8.844   9.532  0.0615  0.9744  0.1476
   53BDD    C1813507   1.396  -8.705   9.577  1.0799  0.7171  0.0190
   53BDD    C1913508   1.853  -9.131  10.104  0.9061 -1.8506 -1.5339
   53BDD    C2013509   1.769  -9.246  10.160  0.8346  0.2463 -0.4475
   53BDD    C2113510   1.820  -9.289  10.302 -0.5053 -0.1903  0.6914
   53BDD    C2213511   1.953  -9.370  10.298  0.4390  0.3824 -0.9946
   53BDD    C2313512   1.927  -9.513  10.348  1.2944 -0.4730 -0.9664
   53BDD    C2413513   1.836  -9.544  10.472  1.0710  0.1992 -0.9263
   53BDD    C2513514   1.614  -9.244  10.133 -0.0590  0.9129  1.9138
   53BDD    C2613515   1.537  -9.370  10.185  0.0797  0.5241  0.1083
   54TPM     C113516   2.105  -9.536   9.719 -0.0229 -0.0335  0.2496
   54TPM     C213517   2.036  -9.576   9.829  0.1964  0.2387  0.4904
   54TPM     C313518   2.082  -9.702   9.884  0.0541  0.1827  0.4802
   54TPM     C413519   2.185  -9.757   9.814 -0.2735 -0.1322  0.2324
   54TPM     S113520   2.234  -9.654   9.675 -0.4290 -0.3843 -0.0099
   55BDTP    C113521   2.427 -10.326   9.805 -0.0417 -0.1414 -0.2823
   55BDTP    C213522   2.517 -10.250   9.725 -0.0907 -0.0526 -0.2542
   55BDTP    C313523   2.505 -10.113   9.709 -0.2209 -0.0639 -0.2582
   55BDTP    C413524   2.400 -10.047   9.775 -0.3068 -0.1675 -0.2925
   55BDTP    C513525   2.309 -10.123   9.854 -0.2578 -0.2562 -0.3209
   55BDTP    C613526   2.321 -10.260   9.871 -0.1277 -0.2449 -0.3166
   55BDTP    C713527   2.367  -9.906   9.773 -0.4455 -0.1989 -0.3033
   55BDTP    C813528   2.259  -9.872   9.846 -0.5022 -0.3056 -0.3383
   55BDTP    S113529   2.182 -10.015   9.928 -0.3880 -0.3812 -0.3624
   55BDTP    C913530   2.459 -10.467   9.807  0.0969 -0.1099 -0.2716
   55BDTP   C1013531   2.567 -10.501   9.733  0.1537 -0.0033 -0.2367
   55BDTP    S213532   2.644 -10.358   9.651  0.0394  0.0724 -0.2125
   56FTM     S113533   2.565 -10.062   9.427 -0.3733  0.2675  0.2225
   56FTM     C113534   2.713  -9.962   9.404  0.1017 -0.4592  0.0531
   56FTM     C213535   2.771  -9.935   9.524  0.7965 -1.3463 -0.0572
   56FTM     C313536   2.704  -9.989   9.639  0.9971 -1.5109 -0.0184
   56FTM     C413537   2.593 -10.060   9.606  0.4375 -0.7243  0.1268
   56FTM     F113538   2.886  -9.860   9.537  1.2922 -2.0618 -0.2007
   56FTM     C513539   2.730  -9.876   9.281 -0.1718 -0.8598  1.4181
   56FTM     C613540   2.611  -9.841   9.188 -0.0044  0.1614  1.0610
   56FTM     C713541   2.497  -9.766   9.253 -0.9414  0.7790 -0.6245
   56FTM     C813542   2.392  -9.707   9.164 -2.1737  0.4496  1.2329
   56FTM     C913543   2.247  -9.689   9.203 -0.4440 -0.8363 -0.9707
   56FTM    C1013544   2.168  -9.779   9.303  0.5465 -1.0721 -0.3131
   56FTM    C1113545   2.665  -9.794   9.051  1.0646 -1.0882 -0.4734
   56FTM    C1213546   2.777  -9.884   8.982  0.6907  0.2339  0.1091
   57FTM     S113547   2.324 -10.366  10.130  0.2162 -0.3951  0.3022
   57FTM     C113548   2.176 -10.455  10.181 -0.1625  0.3842  0.5998
   57FTM     C213549   2.084 -10.454  10.081 -0.4697  1.0836  0.8762
   57FTM     C313550   2.123 -10.385   9.961 -0.4302  1.0568  0.8733
   57FTM     C413551   2.248 -10.332   9.970 -0.0814  0.3126  0.5860
   57FTM     F113552   1.960 -10.515  10.091 -0.8048  1.7897  1.1480
   57FTM     C513553   2.193 -10.532  10.306  0.0030 -0.6437 -0.0477
   57FTM     C613554   2.240 -10.672  10.269  1.5633 -0.8509 -1.2642
   57FTM     C713555   2.202 -10.780  10.372  0.6620  0.0743 -1.4227
   57FTM     C813556   2.087 -10.878  10.318 -0.0507 -1.5287  0.9349
   57FTM     C913557   1.948 -10.819  10.276 -0.7087 -0.6119 -0.6633
   57FTM    C1013558   1.831 -10.901  10.334 -0.5414  0.0795  0.3696
   57FTM    C1113559   2.337 -10.717  10.162  1.2608  0.1426  0.3700
   57FTM    C1213560   2.483 -10.694  10.184  0.5724 -0.3933 -1.1853
   58TPM     C113561   2.604 -10.635   9.691  0.4866 -0.3505  0.4968
   58TPM     C213562   2.728 -10.682   9.722  0.2903 -0.7393  0.7041
   58TPM     C313563   2.739 -10.826   9.717 -0.1574 -0.7773  0.7553
   58TPM     C413564   2.623 -10.888   9.681 -0.3025 -0.4174  0.5868
   58TPM     S113565   2.491 -10.769   9.652  0.1184  0.0006  0.3490
   59BDD     C113566   2.593 -11.274   9.675  0.0372  0.1104  0.0778
   59BDD     C213567   2.645 -11.239   9.553  0.0272  0.1323  0.0801
   59BDD     C313568   2.661 -11.096   9.537 -0.0806  0.1426  0.0615
   59BDD     C413569   2.622 -11.024   9.646 -0.1514  0.1284  0.0457
   59BDD     S113570   2.562 -11.131   9.778 -0.0876  0.1012  0.0529
   59BDD     C513571   2.681 -11.336   9.448  0.1163  0.1446  0.0989
   59BDD     C613572   2.714 -11.036   9.413 -0.1098  0.1661  0.0606
   59BDD     O113573   2.728 -10.912   9.399 -0.2028  0.1750  0.0443
   59BDD     O213574   2.667 -11.460   9.462  0.2093  0.1357  0.1149
   59BDD     C713575   2.750 -11.132   9.308 -0.0206  0.1784  0.0796
   59BDD     C813576   2.734 -11.276   9.324  0.0873  0.1681  0.0982
   59BDD     C913577   2.773 -11.348   9.215  0.1580  0.1823  0.1140
   59BDD     S213578   2.833 -11.241   9.083  0.0943  0.2095  0.1066
   59BDD    C1013579   2.802 -11.097   9.186 -0.0305  0.2002  0.0818
   59BDD    C1113580   2.848 -10.960   9.134 -0.4059  0.1910 -1.8235
   59BDD    C1213581   2.748 -10.876   9.062 -0.9939 -0.0413  0.5687
   59BDD    C1313582   2.781 -10.818   8.934  0.6408  0.1958  1.0625
   59BDD    C1413583   2.698 -10.828   8.808  0.0514 -1.2368  1.3103
   59BDD    C1513584   2.688 -10.694   8.715  0.5825  0.4475  0.5513
   59BDD    C1613585   2.591 -10.591   8.760 -0.9347 -0.8987 -0.3874
   59BDD    C1713586   2.614 -10.807   9.105 -0.7626  1.0865  0.0984
   59BDD    C1813587   2.601 -10.661   9.165 -0.7871 -0.0654 -0.3778
   59BDD    C1913588   2.771 -11.500   9.180  0.4735  0.0429 -0.0858
   59BDD    C2013589   2.900 -11.576   9.129 -0.7688  1.3216 -0.8135
   59BDD    C2113590   2.978 -11.621   9.267  0.2831 -0.4253  1.4782
   59BDD    C2213591   2.903 -11.691   9.390 -0.3631 -0.5408 -0.7630
   59BDD    C2313592   2.902 -11.844   9.415 -0.0550 -0.1702 -0.5380
   59BDD    C2413593   2.922 -11.862   9.562 -0.7035  0.3097  0.5373
   59BDD    C2513594   2.889 -11.702   9.042 -1.0059  0.3248  0.3827
   59BDD    C2613595   3.012 -11.740   8.962  0.0971 -0.8793 -0.3507
   60TPM     C113596   2.583 -11.394   9.765 -0.3313  0.3397  0.4350
   60TPM     C213597   2.532 -11.518   9.738 -0.3237  0.3297  0.4666
   60TPM     C313598   2.539 -11.609   9.850  0.1255  0.2100  0.3450
   60TPM     C413599   2.595 -11.554   9.962  0.4604  0.1286  0.2207
   60TPM     S113600   2.643 -11.383   9.934  0.2326  0.1976  0.2480
    1BDTP    C113601   6.638   6.397   0.266  0.3258  0.1242  0.2146
    1BDTP    C213602   6.768   6.445   0.301  0.2143  0.3275  0.3507
    1BDTP    C313603   6.788   6.542   0.399 -0.0396  0.3611  0.3711
    1BDTP    C413604   6.675   6.593   0.466 -0.1909  0.1863  0.2518
    1BDTP    C513605   6.546   6.545   0.431 -0.0794 -0.0170  0.1157
    1BDTP    C613606   6.526   6.449   0.333  0.1744 -0.0506  0.0953
    1BDTP    C713607   6.671   6.693   0.570 -0.4579  0.1825  0.2467
    1BDTP    C813608   6.547   6.722   0.615 -0.5511 -0.0114  0.1150
    1BDTP    S113609   6.417   6.627   0.531 -0.3139 -0.2162 -0.0211
    1BDTP    C913610   6.642   6.297   0.162  0.5927  0.1281  0.2197
    1BDTP   C1013611   6.767   6.268   0.117  0.6860  0.3219  0.3514
    1BDTP    S213612   6.897   6.364   0.201  0.4486  0.5268  0.4875
    2FTM     S113613   7.014   6.713   0.475 -0.1553 -0.3623  0.3828
    2FTM     C113614   7.149   6.634   0.563  0.6159  0.2419 -0.2349
    2FTM     C213615   7.125   6.501   0.575  1.0568  0.2004  0.2619
    2FTM     C313616   7.002   6.453   0.518  0.8277 -0.2921  1.1321
    2FTM     C413617   6.930   6.553   0.461  0.1903 -0.6387  1.3074
    2FTM     F113618   7.213   6.414   0.638  1.6943  0.6058 -0.0419
    2FTM     C513619   7.266   6.710   0.611  0.1599 -0.0111  0.9347
    2FTM     C613620   7.401   6.670   0.664  0.5971  1.0597 -1.5699
    2FTM     C713621   7.422   6.606   0.798 -0.9805  0.5575 -0.2711
    2FTM     C813622   7.397   6.719   0.899  1.6683  1.2145  0.4025
    2FTM     C913623   7.438   6.709   1.052 -0.3999  0.4597 -0.1942
    2FTM    C1013624   7.515   6.823   1.070 -1.5648 -1.1126 -0.6003
    2FTM    C1113625   7.449   6.567   0.560 -0.8390 -0.4333  1.3842
    2FTM    C1213626   7.590   6.584   0.491  1.5123  1.1601 -1.0576
    3FTM     S113627   6.299   6.313   0.452 -0.3091 -0.9237  0.0788
    3FTM     C113628   6.153   6.321   0.347 -0.3450 -0.0033  0.1841
    3FTM     C213629   6.185   6.380   0.229 -0.1808  0.2482  0.3507
    3FTM     C313630   6.321   6.421   0.213 -0.0210 -0.2474  0.4054
    3FTM     C413631   6.396   6.393   0.323 -0.0641 -0.8998  0.2764
    3FTM     F113632   6.092   6.400   0.127 -0.1658  0.9422  0.4637
    3FTM     C513633   6.056   6.222   0.384 -1.7311  0.1539  0.0433
    3FTM     C613634   5.932   6.255   0.327  1.3752  0.3776  0.0833
    3FTM     C713635   5.833   6.147   0.279  0.1931 -0.5085 -0.3022
    3FTM     C813636   5.797   6.138   0.122 -0.2589 -1.4167 -0.5805
    3FTM     C913637   5.671   6.057   0.081  0.0236 -1.3751  1.4282
    3FTM    C1013638   5.707   5.923   0.035  0.0472  1.4697 -1.6010
    3FTM    C1113639   5.869   6.393   0.361  0.0480 -0.3954 -0.2492
    3FTM    C1213640   5.721   6.408   0.414 -0.2896  0.2564 -0.2304
    4TPM     C113641   6.805   6.197  -0.003 -0.5018 -0.3268 -0.1709
    4TPM     C213642   6.757   6.077  -0.047 -0.5649 -0.2851 -0.2165
    4TPM     C313643   6.815   6.034  -0.172 -0.3932 -0.3940 -0.1006
    4TPM     C413644   6.906   6.121  -0.223 -0.1992 -0.5188  0.0329
    4TPM     S113645   6.928   6.265  -0.117 -0.2186 -0.5083  0.0227
    5BDD     C113646   7.240   5.994  -0.401 -0.0526  0.1782 -0.4870
    5BDD     C213647   7.139   5.928  -0.465 -0.0571  0.0882 -0.3889
    5BDD     C313648   7.007   5.962  -0.415 -0.0296 -0.1388 -0.1645
    5BDD     C413649   7.009   6.052  -0.312 -0.0045 -0.2185 -0.0943
    5BDD     S113650   7.177   6.102  -0.272 -0.0138 -0.0148 -0.3045
    5BDD     C513651   7.160   5.832  -0.576 -0.0869  0.2075 -0.4983
    5BDD     C613652   6.883   5.902  -0.470 -0.0292 -0.2683 -0.0277
    5BDD     O113653   6.769   5.931  -0.426 -0.0054 -0.4641  0.1659
    5BDD     O213654   7.273   5.804  -0.620 -0.1106  0.4032 -0.6919
    5BDD     C713655   6.904   5.807  -0.580 -0.0588 -0.1489 -0.1369
    5BDD     C813656   7.036   5.773  -0.631 -0.0863  0.0778 -0.3614
    5BDD     C913657   7.033   5.683  -0.734 -0.1115  0.1576 -0.4313
    5BDD     S213658   6.866   5.633  -0.773 -0.1021 -0.0460 -0.2212
    5BDD    C1013659   6.803   5.741  -0.645 -0.0633 -0.2391 -0.0389
    5BDD    C1113660   6.655   5.727  -0.667  1.0539  0.5614 -0.0675
    5BDD    C1213661   6.571   5.610  -0.601  0.7412  0.1236  1.8900
    5BDD    C1313662   6.562   5.492  -0.701 -0.9108 -0.2566 -0.3984
    5BDD    C1413663   6.445   5.398  -0.719  0.5899  0.0978 -1.1435
    5BDD    C1513664   6.341   5.444  -0.820  0.2866  0.2245 -0.8556
    5BDD    C1613665   6.403   5.416  -0.955 -0.6480  0.5365  0.5260
    5BDD    C1713666   6.438   5.650  -0.538  1.1056 -0.1453 -0.1915
    5BDD    C1813667   6.326   5.716  -0.617  1.3074 -1.1840  0.6914
    5BDD    C1913668   7.134   5.578  -0.784 -0.3356  0.1953 -0.0210
    5BDD    C2013669   7.141   5.567  -0.939 -0.5564  0.0838 -0.3417
    5BDD    C2113670   7.076   5.434  -0.985  0.1545  0.0571  0.6658
    5BDD    C2213671   7.083   5.406  -1.138  0.1712 -0.3686  1.5377
    5BDD    C2313672   7.015   5.281  -1.191 -1.1128 -0.3219 -0.2007
    5BDD    C2413673   7.107   5.168  -1.150 -0.5046 -0.8802 -1.3445
    5BDD    C2513674   7.116   5.703  -1.019 -0.0773  2.4378  0.4839
    5BDD    C2613675   7.204   5.827  -0.996  0.3807 -0.9941 -0.4537
    6TPM     C113676   7.386   5.966  -0.393 -0.0025  0.6171  0.3700
    6TPM     C213677   7.467   6.073  -0.372  0.3914  0.4199 -0.1183
    6TPM     C313678   7.605   6.038  -0.350  0.4562  0.0844 -0.9677
    6TPM     C413679   7.629   5.903  -0.354  0.1116  0.0260 -1.1269
    6TPM     S113680   7.478   5.810  -0.386 -0.3248  0.3930 -0.2096
    7BDTP    C113681   8.217   5.676  -0.317 -0.1321 -0.1020 -0.0231
    7BDTP    C213682   8.140   5.562  -0.280 -0.1011 -0.1053  0.0317
    7BDTP    C313683   8.001   5.565  -0.273 -0.0923 -0.0907  0.2015
    7BDTP    C413684   7.936   5.686  -0.303 -0.1149 -0.0719  0.3228
    7BDTP    C513685   8.013   5.799  -0.340 -0.1462 -0.0684  0.2682
    7BDTP    C613686   8.152   5.797  -0.348 -0.1550 -0.0833  0.0983
    7BDTP    C713687   7.793   5.713  -0.303 -0.1114 -0.0543  0.5055
    7BDTP    C813688   7.761   5.839  -0.337 -0.1380 -0.0380  0.5894
    7BDTP    S113689   7.905   5.943  -0.375 -0.1713 -0.0429  0.4489
    7BDTP    C913690   8.360   5.649  -0.318 -0.1359 -0.1196 -0.2055
    7BDTP   C1013691   8.393   5.522  -0.283 -0.1090 -0.1357 -0.2894
    7BDTP    S213692   8.248   5.419  -0.245 -0.0760 -0.1308 -0.1491
    8FTM     S113693   7.824   5.358  -0.337  0.4639  0.1550 -0.3430
    8FTM     C113694   7.781   5.238  -0.209  0.7133  0.0125 -0.3912
    8FTM     C213695   7.836   5.275  -0.090  0.6804  0.0499 -0.3874
    8FTM     C313696   7.912   5.396  -0.091  0.4644  0.1882 -0.3483
    8FTM     C413697   7.917   5.454  -0.215  0.3274  0.2591 -0.3205
    8FTM     F113698   7.819   5.202   0.026  0.8440 -0.0387 -0.4199
    8FTM     C513699   7.691   5.116  -0.229  1.0479 -0.2168  0.4696
    8FTM     C613700   7.760   4.993  -0.289 -0.8284 -0.1746  0.5825
    8FTM     C713701   7.636   4.913  -0.327 -0.4893 -1.7657  1.1522
    8FTM     C813702   7.658   4.766  -0.351  0.7627  0.7875 -0.4750
    8FTM     C913703   7.760   4.710  -0.452  0.6171  0.9686  0.6254
    8FTM    C1013704   7.793   4.571  -0.408  0.0469 -0.0654 -0.5988
    8FTM    C1113705   7.886   4.948  -0.228 -0.2318  1.0221  0.0144
    8FTM    C1213706   7.889   4.896  -0.089 -0.4950  1.0055 -0.2829
    9FTM     S113707   8.370   5.940  -0.468  0.3137  0.4064  0.0461
    9FTM     C113708   8.388   6.115  -0.429  0.1803  0.3591  0.3267
    9FTM     C213709   8.289   6.154  -0.345  0.1235  0.1589  0.3543
    9FTM     C313710   8.195   6.053  -0.306  0.1786  0.0335  0.1633
    9FTM     C413711   8.223   5.933  -0.363  0.2812  0.1409 -0.0159
    9FTM     F113712   8.278   6.284  -0.297  0.0176  0.0777  0.5538
    9FTM     C513713   8.477   6.176  -0.526 -0.3651  0.1175  2.5575
    9FTM     C613714   8.445   6.313  -0.600 -0.5679 -0.6413  0.4645
    9FTM     C713715   8.302   6.302  -0.652 -0.1098 -0.0573  0.1865
    9FTM     C813716   8.255   6.175  -0.739  0.6372 -0.2799  0.0555
    9FTM     C913717   8.099   6.151  -0.720 -0.3796  0.2309  0.0288
    9FTM    C1013718   8.014   6.270  -0.779  0.0474  1.5406 -0.6335
    9FTM    C1113719   8.564   6.370  -0.670 -0.5375  0.2127 -0.5000
    9FTM    C1213720   8.702   6.398  -0.602  1.5016 -1.7521  0.6358
   10TPM     C113721   8.516   5.471  -0.300 -0.0600  0.7238 -0.4969
   10TPM     C213722   8.633   5.536  -0.276 -0.1826  1.0289 -0.7045
   10TPM     C313723   8.750   5.462  -0.318 -0.0207  0.9458 -0.1235
   10TPM     C413724   8.721   5.341  -0.373  0.2256  0.5777  0.5268
   10TPM     S113725   8.543   5.311  -0.377  0.2728  0.3052  0.4555
   11BDD     C113726   8.894   5.124  -0.653  0.3753  0.1264 -0.1545
   11BDD     C213727   8.996   5.150  -0.565  0.2856  0.1738 -0.0641
   11BDD     C313728   8.956   5.237  -0.455  0.1450  0.1476 -0.0937
   11BDD     C413729   8.825   5.275  -0.461  0.1298  0.0805 -0.2064
   11BDD     S113730   8.742   5.205  -0.604  0.2904  0.0455 -0.2830
   11BDD     C513731   9.133   5.097  -0.579  0.3257  0.2451  0.0529
   11BDD     C613732   9.050   5.278  -0.349  0.0308  0.1900 -0.0095
   11BDD     O113733   9.016   5.352  -0.254 -0.0906  0.1674 -0.0350
   11BDD     O213734   9.167   5.023  -0.674  0.4468  0.2677  0.0787
   11BDD     C713735   9.187   5.225  -0.363  0.0708  0.2614  0.1078
   11BDD     C813736   9.226   5.138  -0.473  0.2115  0.2877  0.1378
   11BDD     C913737   9.358   5.100  -0.467  0.2263  0.3549  0.2503
   11BDD     S213738   9.441   5.169  -0.324  0.0654  0.3899  0.3268
   11BDD    C1013739   9.288   5.251  -0.275 -0.0196  0.3090  0.1984
   11BDD    C1113740   9.310   5.324  -0.152  0.0325 -0.7620 -0.9739
   11BDD    C1213741   9.253   5.305  -0.011  1.2391  0.0102 -1.2376
   11BDD    C1313742   9.228   5.430   0.074 -0.1645 -0.1811  0.4222
   11BDD    C1413743   9.342   5.515   0.110 -0.2407 -0.5896  1.0045
   11BDD    C1513744   9.328   5.600   0.231  0.0043  0.8796  0.9518
   11BDD    C1613745   9.247   5.733   0.241  0.5950  0.0381  0.7770
   11BDD    C1713746   9.287   5.178   0.054 -0.1514  0.7581 -0.6246
   11BDD    C1813747   9.240   5.155   0.204 -0.6550  0.0584 -0.5118
   11BDD    C1913748   9.465   5.062  -0.566  0.5731  1.0522 -1.1882
   11BDD    C2013749   9.516   4.921  -0.578 -0.1653  2.4457  0.3427
   11BDD    C2113750   9.419   4.795  -0.575  0.0610  0.5533 -1.6595
   11BDD    C2213751   9.478   4.665  -0.607  0.3427  0.0627 -0.2754
   11BDD    C2313752   9.404   4.541  -0.556  0.3926 -0.3819  0.3265
   11BDD    C2413753   9.464   4.405  -0.607 -0.5222 -2.0129  0.0059
   11BDD    C2513754   9.656   4.910  -0.655  0.4118 -0.6801 -0.4730
   11BDD    C2613755   9.670   4.956  -0.791  0.7866 -0.3030 -0.2631
   12TPM     C113756   8.871   5.068  -0.793  0.8388  0.1442  0.3855
   12TPM     C213757   8.847   4.935  -0.808  0.4206  0.1545  0.9222
   12TPM     C313758   8.807   4.897  -0.941 -0.4287 -0.1581  1.2507
   12TPM     C413759   8.800   5.002  -1.028 -0.6579 -0.4068  0.9648
   12TPM     S113760   8.845   5.157  -0.948  0.1874 -0.2645  0.2526
   13BDTP    C113761   8.509   4.932  -1.584 -0.1264 -0.0044  0.5121
   13BDTP    C213762   8.510   5.074  -1.565  0.2108  0.0060  0.4306
   13BDTP    C313763   8.571   5.134  -1.456  0.4156 -0.0705  0.3598
   13BDTP    C413764   8.634   5.052  -1.361  0.2813 -0.1618  0.3705
   13BDTP    C513765   8.633   4.911  -1.380 -0.0556 -0.1721  0.4520
   13BDTP    C613766   8.572   4.850  -1.489 -0.2601 -0.0958  0.5226
   13BDTP    C713767   8.703   5.092  -1.241  0.4449 -0.2515  0.3066
   13BDTP    C813768   8.754   4.989  -1.169  0.2491 -0.3278  0.3362
   13BDTP    S113769   8.720   4.827  -1.244 -0.1693 -0.2967  0.4487
   13BDTP    C913770   8.439   4.893  -1.705 -0.2897  0.0855  0.5755
   13BDTP   C1013771   8.389   4.996  -1.777 -0.0942  0.1616  0.5462
   13BDTP    S213772   8.422   5.158  -1.702  0.3245  0.1305  0.4333
   14FTM     S113773   8.694   5.385  -1.551 -0.6286 -0.0026  0.2550
   14FTM     C113774   8.613   5.536  -1.494  0.1627  0.3102  0.5711
   14FTM     C213775   8.509   5.505  -1.413  0.2651  0.7043  0.8559
   14FTM     C313776   8.486   5.366  -1.390 -0.2532  0.7852  0.8459
   14FTM     C413777   8.575   5.287  -1.456 -0.7689  0.4416  0.5436
   14FTM     F113778   8.429   5.602  -1.354  0.8340  1.0154  1.1425
   14FTM     C513779   8.643   5.672  -1.551 -0.7169 -1.1838  0.2792
   14FTM     C613780   8.573   5.679  -1.694 -0.3992  0.4615  0.0625
   14FTM     C713781   8.536   5.825  -1.709  0.0971  0.1571 -0.9830
   14FTM     C813782   8.405   5.880  -1.641 -0.0567 -0.0689 -0.6047
   14FTM     C913783   8.290   5.785  -1.650  0.5506  0.0453  0.3207
   14FTM    C1013784   8.154   5.833  -1.616  0.2757 -0.8638  0.5423
   14FTM    C1113785   8.641   5.620  -1.814  1.4363  0.6589  1.7615
   14FTM    C1213786   8.531   5.608  -1.920 -0.4714  0.3562  0.7233
   15FTM     S113787   8.597   4.577  -1.423  0.4548  0.3170  0.1275
   15FTM     C113788   8.666   4.465  -1.546 -0.0419  0.6245 -0.4384
   15FTM     C213789   8.688   4.533  -1.662 -0.6003  0.8941 -0.3927
   15FTM     C313790   8.653   4.672  -1.662 -0.6742  0.8783  0.0741
   15FTM     C413791   8.602   4.712  -1.542 -0.1557  0.5870  0.3964
   15FTM     F113792   8.741   4.473  -1.776 -1.0777  1.1714 -0.7706
   15FTM     C513793   8.697   4.315  -1.510 -0.9226  0.2620 -2.1055
   15FTM     C613794   8.584   4.206  -1.550  0.7250 -1.8215  1.3473
   15FTM     C713795   8.579   4.145  -1.686 -0.0744  0.5010 -0.6427
   15FTM     C813796   8.702   4.050  -1.728  1.3217 -0.7680  0.7555
   15FTM     C913797   8.837   4.114  -1.714 -0.6456 -0.6264 -0.3837
   15FTM    C1013798   8.959   4.031  -1.709 -0.2356 -0.8945 -0.3404
   15FTM    C1113799   8.549   4.109  -1.429  0.5266 -0.8422  0.6642
   15FTM    C1213800   8.465   4.181  -1.311  0.0116 -0.2900  0.3613
   16TPM     C113801   8.295   4.981  -1.885  0.1756  0.2086 -0.2261
   16TPM     C213802   8.223   5.081  -1.944  0.5744  0.2674 -0.6194
   16TPM     C313803   8.147   5.037  -2.058  0.6702  0.1991 -0.6583
   16TPM     C413804   8.160   4.904  -2.085  0.3451  0.0883 -0.2947
   16TPM     S113805   8.271   4.823  -1.968 -0.1116  0.0614  0.1282
   17BDD     C113806   7.952   4.797  -2.401 -0.0307 -0.3314 -0.5200
   17BDD     C213807   7.911   4.715  -2.299 -0.1110 -0.1503 -0.4070
   17BDD     C313808   7.975   4.744  -2.172 -0.2618  0.1202 -0.3908
   17BDD     C413809   8.065   4.847  -2.179 -0.2942  0.1415 -0.4918
   17BDD     S113810   8.075   4.915  -2.345 -0.1383 -0.1752 -0.6137
   17BDD     C513811   7.810   4.608  -2.314 -0.0521 -0.2196 -0.3099
   17BDD     C613812   7.946   4.669  -2.049 -0.3679  0.3475 -0.2759
   17BDD     O113813   8.002   4.694  -1.939 -0.4981  0.5808 -0.2618
   17BDD     O213814   7.755   4.583  -2.424  0.0778 -0.4530 -0.3238
   17BDD     C713815   7.846   4.561  -2.064 -0.3090  0.2784 -0.1788
   17BDD     C813816   7.781   4.532  -2.191 -0.1583  0.0079 -0.1950
   17BDD     C913817   7.691   4.429  -2.184 -0.1259 -0.0137 -0.0942
   17BDD     S213818   7.682   4.362  -2.018 -0.2817  0.3032  0.0277
   17BDD    C1013819   7.804   4.480  -1.962 -0.3893  0.4592 -0.0658
   17BDD    C1113820   7.824   4.481  -1.809  0.1566 -1.0025 -0.2200
   17BDD    C1213821   7.962   4.438  -1.739  0.5943  0.2606  0.2846
   17BDD    C1313822   8.073   4.383  -1.840  0.4875 -0.2925 -0.0585
   17BDD    C1413823   8.196   4.444  -1.840 -0.4352 -0.3873  0.0385
   17BDD    C1513824   8.301   4.377  -1.917 -0.1163  0.9941 -0.4580
   17BDD    C1613825   8.423   4.452  -1.959 -0.6009  1.3703 -0.1000
   17BDD    C1713826   7.983   4.502  -1.601  0.5599  0.2098 -0.5935
   17BDD    C1813827   8.062   4.405  -1.509 -0.3660 -0.3712  0.5862
   17BDD    C1913828   7.612   4.343  -2.272  0.0918  0.2023 -1.0200
   17BDD    C2013829   7.665   4.290  -2.397 -0.8494  0.3007  0.5675
   17BDD    C2113830   7.574   4.194  -2.463  0.4552  0.7984 -1.0204
   17BDD    C2213831   7.570   4.213  -2.618 -0.9785 -0.1058  1.7119
   17BDD    C2313832   7.465   4.130  -2.707 -0.1989 -1.2268  0.0374
   17BDD    C2413833   7.484   4.106  -2.848  0.4588 -1.6146 -0.4885
   17BDD    C2513834   7.810   4.229  -2.376 -0.7403  0.0295  0.0132
   17BDD    C2613835   7.876   4.171  -2.518 -0.3530 -1.0909 -0.7917
   18TPM     C113836   7.938   4.800  -2.541 -0.3012 -0.2596  0.1890
   18TPM     C213837   8.039   4.827  -2.629  0.3374 -1.0806  0.6363
   18TPM     C313838   7.994   4.846  -2.764  1.1371 -0.9897  0.3757
   18TPM     C413839   7.859   4.833  -2.780  1.1082 -0.0991 -0.2699
   18TPM     S113840   7.778   4.795  -2.624  0.0606  0.6999 -0.6016
   19BDTP    C113841   7.494   4.951  -3.285  0.3397 -0.0540 -0.0672
   19BDTP    C213842   7.404   4.969  -3.176  0.1833  0.1820 -0.2327
   19BDTP    C313843   7.442   4.950  -3.044 -0.0432  0.3301 -0.1450
   19BDTP    C413844   7.574   4.911  -3.018 -0.1196  0.2416  0.1183
   19BDTP    C513845   7.664   4.893  -3.127  0.0370  0.0056  0.2840
   19BDTP    C613846   7.626   4.912  -3.259  0.2637 -0.1424  0.1964
   19BDTP    C713847   7.636   4.885  -2.889 -0.3461  0.3615  0.2531
   19BDTP    C813848   7.767   4.849  -2.897 -0.3667  0.2288  0.5088
   19BDTP    S113849   7.829   4.843  -3.068 -0.1025 -0.0670  0.6149
   19BDTP    C913850   7.432   4.977  -3.414  0.5664 -0.1740 -0.2022
   19BDTP   C1013851   7.301   5.013  -3.406  0.5872 -0.0412 -0.4579
   19BDTP    S213852   7.239   5.020  -3.235  0.3230  0.2545 -0.5638
   20FTM     S113853   7.190   4.866  -2.960  0.0897 -0.1554  0.0172
   20FTM     C113854   7.145   4.918  -2.793  0.3322  0.4799 -0.1118
   20FTM     C213855   7.248   4.988  -2.738  0.4128  0.6938 -0.5279
   20FTM     C313856   7.364   5.006  -2.820  0.2936  0.3844 -0.7658
   20FTM     C413857   7.350   4.946  -2.942  0.1160 -0.0817 -0.5243
   20FTM     F113858   7.242   5.041  -2.610  0.5991  1.1824 -0.7179
   20FTM     C513859   7.011   4.881  -2.741 -0.3109  0.9726 -0.3861
   20FTM     C613860   6.918   4.768  -2.786 -0.4028  0.3999 -0.0969
   20FTM     C713861   6.864   4.782  -2.924  0.1885 -0.3397 -0.7183
   20FTM     C813862   6.745   4.885  -2.942 -1.4173 -0.7310 -0.1875
   20FTM     C913863   6.723   4.936  -3.086  0.8035  0.0307  0.4333
   20FTM    C1013864   6.662   5.072  -3.113  0.5669 -0.2909 -0.0203
   20FTM    C1113865   6.963   4.633  -2.746  0.8945  0.0425 -1.3913
   20FTM    C1213866   6.914   4.585  -2.607 -0.3000 -0.1405  1.0370
   21FTM     S113867   7.904   4.900  -3.356 -0.1680 -0.3686  0.5241
   21FTM     C113868   7.934   4.840  -3.523  0.8399  0.6650  0.3064
   21FTM     C213869   7.816   4.810  -3.583  1.1519  1.5026 -0.7927
   21FTM     C313870   7.698   4.831  -3.505  0.6386  1.3943 -1.5148
   21FTM     C413871   7.726   4.879  -3.380 -0.0902  0.4429 -0.9504
   21FTM     F113872   7.807   4.761  -3.713  1.9208  2.4171 -1.2099
   21FTM     C513873   8.076   4.844  -3.580  1.0209 -0.8498 -1.0592
   21FTM     C613874   8.196   4.753  -3.532  0.0405  0.2856  0.8299
   21FTM     C713875   8.164   4.597  -3.556  0.6721 -0.8873 -1.3102
   21FTM     C813876   8.054   4.544  -3.471 -0.5763  1.0092  1.0363
   21FTM     C913877   7.983   4.425  -3.542  1.3087  0.7586  0.0561
   21FTM    C1013878   7.881   4.368  -3.436 -0.2875  0.7959  0.2886
   21FTM    C1113879   8.327   4.785  -3.617 -1.1881  0.2414 -0.1800
   21FTM    C1213880   8.464   4.734  -3.553  0.6042  0.5948  0.8719
   22TPM     C113881   7.210   5.033  -3.524  0.6607  0.3084 -0.8351
   22TPM     C213882   7.214   5.158  -3.579 -0.1115  0.3108 -0.9069
   22TPM     C313883   7.129   5.173  -3.695 -0.8416 -0.0302 -0.4293
   22TPM     C413884   7.060   5.060  -3.727 -0.6262 -0.2923  0.0069
   22TPM     S113885   7.098   4.924  -3.614  0.5243 -0.1276 -0.1531
   23BDD     C113886   6.714   5.070  -3.904 -0.0196 -0.1748  0.0980
   23BDD     C213887   6.806   5.066  -4.005  0.0484 -0.2630  0.1633
   23BDD     C313888   6.943   5.060  -3.957 -0.0004 -0.6248  0.2600
   23BDD     C413889   6.953   5.059  -3.821 -0.1049 -0.8071  0.2670
   23BDD     S113890   6.792   5.066  -3.742 -0.1495 -0.5385  0.1531
   23BDD     C513891   6.772   5.069  -4.148  0.1606 -0.0179  0.1394
   23BDD     C613892   7.059   5.055  -4.048  0.0584 -0.7764  0.3420
   23BDD     O113893   7.177   5.049  -4.007  0.0163 -1.0884  0.4252
   23BDD     O213894   6.654   5.074  -4.189  0.2027  0.2941  0.0560
   23BDD     C713895   7.025   5.057  -4.192  0.1708 -0.5314  0.3181
   23BDD     C813896   6.888   5.064  -4.240  0.2196 -0.1695  0.2214
   23BDD     C913897   6.878   5.065  -4.376  0.3239  0.0130  0.2145
   23BDD     S213898   7.039   5.058  -4.454  0.3686 -0.2558  0.3283
   23BDD    C1013899   7.117   5.053  -4.293  0.2387 -0.6194  0.3834
   23BDD    C1113900   7.257   5.014  -4.297 -0.5697  0.7900  1.1665
   23BDD    C1213901   7.386   5.091  -4.364 -1.1900  0.2397  0.6051
   23BDD    C1313902   7.367   5.183  -4.485 -1.0661  0.1571  0.5228
   23BDD    C1413903   7.369   5.102  -4.618 -0.5924  1.6790 -0.6276
   23BDD    C1513904   7.262   5.153  -4.710  0.6948  0.1603  1.0065
   23BDD    C1613905   7.330   5.258  -4.800  0.9630  0.0782  1.4176
   23BDD    C1713906   7.522   5.005  -4.372  0.2588 -1.4553  0.4546
   23BDD    C1813907   7.562   4.912  -4.278 -0.4510 -0.3495  0.5952
   23BDD    C1913908   6.764   5.066  -4.472  0.1676  0.2951  1.0163
   23BDD    C2013909   6.728   4.922  -4.519  1.4818 -0.1032  0.9209
   23BDD    C2113910   6.745   4.803  -4.422  0.6531  0.3322 -0.0242
   23BDD    C2213911   6.767   4.665  -4.491 -0.2120  1.5637 -0.3718
   23BDD    C2313912   6.708   4.540  -4.418  0.4675 -2.5519 -0.5683
   23BDD    C2413913   6.779   4.443  -4.345 -0.9058  0.7460 -0.0718
   23BDD    C2513914   6.600   4.916  -4.598  0.8337  0.3670 -0.3535
   23BDD    C2613915   6.615   4.926  -4.764  0.3603  0.9667 -0.1864
   24TPM     C113916   6.561   5.065  -3.902 -0.1142 -0.0916  0.7010
   24TPM     C213917   6.492   5.001  -3.804 -0.6825  0.6886  0.8270
   24TPM     C313918   6.349   5.002  -3.823 -0.6322  1.2542  0.4376
   24TPM     C413919   6.310   5.067  -3.936 -0.0255  0.9055  0.0151
   24TPM     S113920   6.451   5.132  -4.028  0.5336 -0.1730  0.0766
   25BDTP    C113921   5.693   5.149  -4.056  0.0399  0.3641  0.0511
   25BDTP    C213922   5.750   5.256  -4.131  0.0973  0.4034  0.1506
   25BDTP    C313923   5.887   5.277  -4.139  0.1078  0.3464  0.1825
   25BDTP    C413924   5.972   5.188  -4.070  0.0595  0.2459  0.1130
   25BDTP    C513925   5.914   5.081  -3.995  0.0021  0.2066  0.0135
   25BDTP    C613926   5.777   5.061  -3.987 -0.0085  0.2636 -0.0182
   25BDTP    C713927   6.116   5.190  -4.064  0.0598  0.1726  0.1285
   25BDTP    C813928   6.170   5.090  -3.989  0.0058  0.0812  0.0466
   25BDTP    S113929   6.044   4.981  -3.916 -0.0525  0.0753 -0.0616
   25BDTP    C913930   5.548   5.148  -4.063  0.0398  0.4374  0.0358
   25BDTP   C1013931   5.494   5.247  -4.138  0.0937  0.5287  0.1177
   25BDTP    S213932   5.620   5.356  -4.211  0.1519  0.5346  0.2260
   26FTM     S113933   6.083   5.497  -4.156 -0.1513  0.1202  0.4487
   26FTM     C113934   6.059   5.609  -4.295  0.2675  0.4484  0.6392
   26FTM     C213935   5.956   5.566  -4.373  0.6684  0.4809  0.0774
   26FTM     C313936   5.891   5.446  -4.330  0.6742  0.2581 -0.5208
   26FTM     C413937   5.946   5.395  -4.216  0.2646  0.0481 -0.4140
   26FTM     F113938   5.915   5.633  -4.487  1.0540  0.7143  0.0715
   26FTM     C513939   6.130   5.750  -4.313  0.6531 -0.2552  0.7195
   26FTM     C613940   6.040   5.869  -4.382  0.1498  0.7779  1.5315
   26FTM     C713941   6.039   5.889  -4.534  0.4484  0.0166 -0.1941
   26FTM     C813942   6.168   5.911  -4.607  0.1255  0.3572  0.7553
   26FTM     C913943   6.189   6.047  -4.662 -0.5336  0.0319 -2.4017
   26FTM    C1013944   6.165   6.160  -4.567  0.1004  0.7441  0.7637
   26FTM    C1113945   5.904   5.911  -4.315  0.5872  0.6648  0.2504
   26FTM    C1213946   5.932   5.967  -4.166 -0.4244  1.1625  0.3377
   27FTM     S113947   5.748   4.762  -3.923  0.4622  0.1461  0.0293
   27FTM     C113948   5.628   4.729  -3.793  0.4276 -0.0450 -0.0498
   27FTM     C213949   5.573   4.845  -3.750  0.3541 -0.1149  0.0470
   27FTM     C313950   5.619   4.964  -3.815  0.3208 -0.0262  0.1853
   27FTM     C413951   5.712   4.938  -3.910  0.3705  0.1162  0.1946
   27FTM     F113952   5.477   4.851  -3.650  0.3124 -0.2633  0.0161
   27FTM     C513953   5.585   4.580  -3.753  0.3388 -0.0735  0.0393
   27FTM     C613954   5.586   4.463  -3.850 -1.1624  0.8415 -0.0076
   27FTM     C713955   5.632   4.321  -3.815 -0.5029  0.3184 -0.2058
   27FTM     C813956   5.784   4.300  -3.775 -0.0435  0.0751  0.1376
   27FTM     C913957   5.876   4.380  -3.683 -1.3178 -0.7798 -1.8236
   27FTM    C1013958   5.808   4.427  -3.553  1.1235  0.5315  0.5721
   27FTM    C1113959   5.483   4.462  -3.970 -0.7986 -0.2722 -0.0456
   27FTM    C1213960   5.341   4.443  -3.929  0.2756  0.0032  1.2243
   28TPM     C113961   5.349   5.255  -4.155  0.1984  0.7049  0.1240
   28TPM     C213962   5.264   5.305  -4.249  0.1764  1.5622  0.5779
   28TPM     C313963   5.125   5.290  -4.214  0.1882  1.4868  0.5943
   28TPM     C413964   5.104   5.229  -4.094  0.2195  0.5724  0.1530
   28TPM     S113965   5.260   5.185  -4.015  0.2365 -0.2715 -0.3213
   29BDD     C113966   4.792   5.294  -3.870 -0.2732  0.2341 -0.0322
   29BDD     C213967   4.753   5.212  -3.972 -0.1696  0.1397  0.0044
   29BDD     C313968   4.862   5.173  -4.060 -0.1621  0.4301 -0.1161
   29BDD     C413969   4.983   5.227  -4.023 -0.2604  0.7415 -0.2427
   29BDD     S113970   4.968   5.329  -3.877 -0.3688  0.6927 -0.2198
   29BDD     C513971   4.614   5.165  -3.993 -0.0737 -0.2205  0.1512
   29BDD     C613972   4.843   5.085  -4.177 -0.0581  0.3879 -0.1014
   29BDD     O113973   4.938   5.051  -4.252 -0.0516  0.6382 -0.2053
   29BDD     O213974   4.520   5.198  -3.918 -0.0800 -0.4708  0.2551
   29BDD     C713975   4.705   5.038  -4.197  0.0381  0.0275  0.0457
   29BDD     C813976   4.595   5.077  -4.110  0.0306 -0.2627  0.1662
   29BDD     C913977   4.475   5.023  -4.146  0.1289 -0.5742  0.2929
   29BDD     S213978   4.490   4.921  -4.293  0.2373 -0.5255  0.2697
   29BDD    C1013979   4.666   4.956  -4.299  0.1419 -0.0669  0.0823
   29BDD    C1113980   4.705   4.906  -4.428 -0.9636 -0.2015  1.1864
   29BDD    C1213981   4.716   4.746  -4.435 -0.3416 -1.3618 -1.0634
   29BDD    C1313982   4.845   4.691  -4.358  0.0331  0.1999  1.4707
   29BDD    C1413983   4.988   4.740  -4.387  0.1284  0.4563  1.3306
   29BDD    C1513984   5.081   4.781  -4.261  0.1220  1.2982  0.2381
   29BDD    C1613985   5.222   4.764  -4.285  0.6581  0.5138 -0.6705
   29BDD    C1713986   4.747   4.707  -4.572 -0.2712 -0.2987  1.1713
   29BDD    C1813987   4.628   4.688  -4.668 -0.1751  1.6279 -1.0967
   29BDD    C1913988   4.333   5.026  -4.112  0.7361 -0.4570 -0.0518
   29BDD    C2013989   4.280   4.926  -3.999 -0.0584 -1.0898 -0.8750
   29BDD    C2113990   4.327   4.956  -3.857 -1.1474 -0.6244  0.5226
   29BDD    C2213991   4.251   5.066  -3.778 -0.8483 -1.6135 -0.9207
   29BDD    C2313992   4.309   5.171  -3.686  0.3991  0.9460  0.3550
   29BDD    C2413993   4.418   5.132  -3.603  1.2002 -0.9229 -0.0246
   29BDD    C2513994   4.138   4.886  -4.022  0.3878  0.8909 -0.4979
   29BDD    C2613995   4.141   4.731  -4.038  1.0772  0.1080  0.0122
   30TPM     C113996   4.736   5.360  -3.765  0.3383 -0.0463  0.2070
   30TPM     C213997   4.628   5.444  -3.768  0.0834 -0.3694  0.2195
   30TPM     C313998   4.612   5.522  -3.648  0.0687 -0.1597  0.0817
   30TPM     C413999   4.708   5.498  -3.554  0.3122  0.3231 -0.0364
   30TPM     S114000   4.826   5.374  -3.610  0.5811  0.5525  0.0182
   31BDTP    C114001   4.870   5.803  -3.033  0.3982 -0.3564  0.1349
   31BDTP    C214002   4.796   5.694  -2.979  0.0751 -0.2556 -0.1025
   31BDTP    C314003   4.736   5.597  -3.058  0.0185 -0.0583 -0.3021
   31BDTP    C414004   4.751   5.608  -3.198  0.2931  0.0446 -0.2668
   31BDTP    C514005   4.825   5.717  -3.252  0.6161 -0.0565 -0.0293
   31BDTP    C614006   4.885   5.813  -3.172  0.6728 -0.2538  0.1706
   31BDTP    C714007   4.698   5.520  -3.300  0.2957  0.2491 -0.4456
   31BDTP    C814008   4.729   5.557  -3.427  0.6014  0.3058 -0.3550
   31BDTP    S114009   4.830   5.708  -3.434  0.9288  0.1081 -0.0311
   31BDTP    C914010   4.923   5.891  -2.930  0.3955 -0.5610  0.3135
   31BDTP   C1014011   4.892   5.854  -2.804  0.0899 -0.6176  0.2234
   31BDTP    S214012   4.791   5.702  -2.796 -0.2375 -0.4202 -0.1011
   32FTM     S114013   4.721   5.386  -2.863  0.2430  0.6219  0.0333
   32FTM     C114014   4.557   5.321  -2.826  0.3326  0.3264 -0.0807
   32FTM     C214015   4.465   5.377  -2.909  0.2211  0.5251  0.1745
   32FTM     C314016   4.515   5.472  -3.004  0.0633  0.9099  0.4661
   32FTM     C414017   4.650   5.489  -2.994  0.0535  1.0090  0.4342
   32FTM     F114018   4.330   5.347  -2.903  0.2555  0.3704  0.1583
   32FTM     C514019   4.543   5.233  -2.697  0.4398  0.7191  0.7881
   32FTM     C614020   4.565   5.084  -2.708  0.2825  0.2006 -0.9302
   32FTM     C714021   4.517   4.989  -2.605 -0.6995  0.4232  0.6142
   32FTM     C814022   4.370   4.943  -2.605 -0.4866 -0.2064 -0.8348
   32FTM     C914023   4.327   4.893  -2.746  1.1893 -1.1979  0.6158
   32FTM    C1014024   4.181   4.838  -2.727 -0.8319 -0.6555 -1.3794
   32FTM    C1114025   4.691   5.035  -2.769 -0.9198  0.2070 -0.4685
   32FTM    C1214026   4.823   5.056  -2.675  0.6214  0.8578  0.2970
   33FTM     S114027   4.976   6.090  -3.204 -0.4248 -0.2911 -0.0399
   33FTM     C114028   5.121   6.115  -3.308 -0.6534 -0.4582 -0.4036
   33FTM     C214029   5.158   5.998  -3.367 -0.5049 -0.6536  0.0737
   33FTM     C314030   5.077   5.884  -3.335 -0.2110 -0.6847  0.7355
   33FTM     C414031   4.976   5.915  -3.249 -0.1324 -0.5073  0.7660
   33FTM     F114032   5.266   5.987  -3.452 -0.6258 -0.8159 -0.0602
   33FTM     C514033   5.175   6.260  -3.303  0.9658 -0.1840 -0.5747
   33FTM     C614034   5.134   6.393  -3.391 -0.6259  0.4835  0.1096
   33FTM     C714035   4.987   6.429  -3.419 -0.0102 -0.7601 -0.6386
   33FTM     C814036   4.893   6.494  -3.309  1.1378 -0.9003 -1.1297
   33FTM     C914037   4.958   6.585  -3.206  0.8546  0.0695 -0.0139
   33FTM    C1014038   4.956   6.531  -3.057  0.3504 -0.0401  2.0098
   33FTM    C1114039   5.239   6.416  -3.513  0.2395 -1.1680  0.8145
   33FTM    C1214040   5.180   6.332  -3.631 -0.2530 -0.8136 -0.0576
   34TPM     C114041   4.922   5.925  -2.680 -0.0124  0.3248 -0.1087
   34TPM     C214042   4.904   6.059  -2.662  0.5480  0.3641  0.2077
   34TPM     C314043   4.891   6.098  -2.524  0.7557  0.1014  0.3028
   34TPM     C414044   4.899   5.993  -2.437  0.3535 -0.1381  0.0592
   34TPM     S114045   4.924   5.837  -2.523 -0.3240 -0.0502 -0.3121
   35BDD     C114046   4.691   6.006  -2.104 -0.4241  0.7557  0.7799
   35BDD     C214047   4.807   6.073  -2.079 -0.3002  0.5640  0.7210
   35BDD     C314048   4.894   6.082  -2.195 -0.1787  0.1036  0.7730
   35BDD     C414049   4.843   6.022  -2.307 -0.2118 -0.0492  0.8709
   35BDD     S114050   4.682   5.949  -2.274 -0.3973  0.3729  0.9048
   35BDD     C514051   4.843   6.132  -1.949 -0.2886  0.7972  0.6146
   35BDD     C614052   5.025   6.151  -2.192 -0.0342 -0.1683  0.7234
   35BDD     O114053   5.100   6.158  -2.292  0.0706 -0.5654  0.7679
   35BDD     O214054   4.768   6.124  -1.849 -0.3933  1.1941  0.5701
   35BDD     C714055   5.061   6.209  -2.061 -0.0228  0.0648  0.6173
   35BDD     C814056   4.974   6.200  -1.945 -0.1442  0.5254  0.5653
   35BDD     C914057   5.026   6.261  -1.833 -0.1111  0.6781  0.4675
   35BDD     S214058   5.186   6.333  -1.866  0.0743  0.2558  0.4336
   35BDD    C1014059   5.178   6.276  -2.036  0.1011 -0.1268  0.5581
   35BDD    C1114060   5.310   6.304  -2.102 -0.6321  0.7404  0.1583
   35BDD    C1214061   5.418   6.187  -2.087  0.3990  0.6828 -0.2472
   35BDD    C1314062   5.476   6.127  -1.962 -0.0952  0.0859 -0.6391
   35BDD    C1414063   5.599   6.186  -1.914  0.3569 -0.2736 -0.5153
   35BDD    C1514064   5.644   6.107  -1.798 -0.0055  0.0231  0.2752
   35BDD    C1614065   5.735   6.186  -1.709 -0.0323 -0.3275  0.0787
   35BDD    C1714066   5.436   6.079  -2.194  0.0579 -0.4955 -1.5732
   35BDD    C1814067   5.317   5.972  -2.192 -0.8802  0.6305 -0.9122
   35BDD    C1914068   4.975   6.268  -1.698  0.6323 -0.6116 -1.1344
   35BDD    C2014069   5.015   6.391  -1.628 -0.2189 -1.1032 -0.8340
   35BDD    C2114070   4.940   6.383  -1.494  0.1660 -0.2406  0.6173
   35BDD    C2214071   5.020   6.335  -1.378  0.8716 -0.2736  0.7194
   35BDD    C2314072   5.029   6.413  -1.256  0.7180 -0.3110 -1.9218
   35BDD    C2414073   5.053   6.561  -1.278  0.5165 -1.6805  0.1001
   35BDD    C2514074   4.962   6.518  -1.713  0.5622  0.7706 -0.9338
   35BDD    C2614075   4.946   6.653  -1.640  0.4365  0.9120  0.3484
   36TPM     C114076   4.577   5.974  -2.022  0.1453  0.2072  0.3649
   36TPM     C214077   4.604   5.907  -1.907  0.4416  0.7145  0.5960
   36TPM     C314078   4.486   5.855  -1.842  0.6554  0.5448  0.8488
   36TPM     C414079   4.370   5.882  -1.908  0.5221 -0.0922  0.8101
   36TPM     S114080   4.400   5.976  -2.058  0.1130 -0.5302  0.4488
   37BDTP    C114081   3.924   5.484  -1.750  0.4621 -0.2378  0.1953
   37BDTP    C214082   3.848   5.596  -1.795  0.4727 -0.2325  0.1912
   37BDTP    C314083   3.907   5.712  -1.844  0.4842 -0.2130  0.2515
   37BDTP    C414084   4.047   5.718  -1.848  0.4854 -0.1984  0.3195
   37BDTP    C514085   4.123   5.606  -1.803  0.4750 -0.2038  0.3235
   37BDTP    C614086   4.065   5.490  -1.755  0.4635 -0.2230  0.2631
   37BDTP    C714087   4.130   5.828  -1.894  0.4965 -0.1773  0.3893
   37BDTP    C814088   4.263   5.804  -1.885  0.4950 -0.1669  0.4454
   37BDTP    S114089   4.302   5.639  -1.818  0.4793 -0.1820  0.4172
   37BDTP    C914090   3.841   5.374  -1.705  0.4511 -0.2587  0.1254
   37BDTP   C1014091   3.708   5.398  -1.713  0.4526 -0.2693  0.0694
   37BDTP    S214092   3.669   5.563  -1.780  0.4684 -0.2540  0.0974
   38FTM     S114093   3.779   5.896  -2.041 -0.0996 -0.1056 -0.1910
   38FTM     C114094   3.691   6.038  -1.974 -0.1380 -0.4140  0.4306
   38FTM     C214095   3.690   6.032  -1.838  0.0342 -0.9024  0.4148
   38FTM     C314096   3.756   5.919  -1.779  0.2023 -1.0626 -0.0703
   38FTM     C414097   3.809   5.836  -1.873  0.1574 -0.6846 -0.4378
   38FTM     F114098   3.630   6.129  -1.759  0.0498 -1.2332  0.8383
   38FTM     C514099   3.616   6.151  -2.058 -0.7324  0.7877  0.5978
   38FTM     C614100   3.711   6.237  -2.164  1.1258  0.9149 -1.1217
   38FTM     C714101   3.803   6.169  -2.259  1.2619  1.1788 -0.2871
   38FTM     C814102   3.944   6.214  -2.294 -0.4459  1.3372 -1.0354
   38FTM     C914103   4.054   6.284  -2.193  0.7262 -0.7357  1.3681
   38FTM    C1014104   4.113   6.212  -2.078 -1.1097  0.9497  1.0260
   38FTM    C1114105   3.658   6.359  -2.238  1.1848 -0.0857 -0.3545
   38FTM    C1214106   3.570   6.441  -2.146  0.2341 -0.5373 -1.2002
   39FTM     S114107   4.119   5.212  -1.707  0.3198 -0.0066  0.0490
   39FTM     C114108   4.256   5.181  -1.594  0.3569  0.1719  0.0545
   39FTM     C214109   4.299   5.298  -1.540  0.2393  0.2348  0.0131
   39FTM     C314110   4.230   5.416  -1.582  0.1161  0.1502 -0.0246
   39FTM     C414111   4.130   5.389  -1.671  0.1401  0.0180 -0.0114
   39FTM     F114112   4.404   5.305  -1.450  0.2359  0.3730  0.0067
   39FTM     C514113   4.308   5.028  -1.571 -0.1826 -1.5290 -0.1059
   39FTM     C614114   4.398   4.978  -1.674  0.3577  0.4836  0.2231
   39FTM     C714115   4.422   4.830  -1.656 -0.4631 -1.1728 -0.3502
   39FTM     C814116   4.292   4.743  -1.663 -1.7634 -0.3810  0.1246
   39FTM     C914117   4.316   4.609  -1.612  0.0105  0.6878 -1.0328
   39FTM    C1014118   4.325   4.606  -1.468  1.0651  0.0153 -0.0806
   39FTM    C1114119   4.515   5.057  -1.738  0.4075 -0.3090  0.5043
   39FTM    C1214120   4.453   5.121  -1.880 -0.3983 -0.5135 -0.9636
   40TPM     C114121   3.598   5.308  -1.689  0.0699 -0.6728 -0.4073
   40TPM     C214122   3.478   5.343  -1.636  0.7202 -0.5076  1.0550
   40TPM     C314123   3.383   5.234  -1.630  0.5771 -0.3506  2.0735
   40TPM     C414124   3.432   5.117  -1.679 -0.1822 -0.3961  1.3884
   40TPM     S114125   3.602   5.134  -1.737 -0.7801 -0.6427 -0.6127
   41BDD     C114126   3.372   4.734  -1.615 -0.0870  0.1894 -0.2667
   41BDD     C214127   3.246   4.787  -1.619 -0.1094  0.1383 -0.2418
   41BDD     C314128   3.244   4.931  -1.640 -0.1746  0.1230 -0.3436
   41BDD     C414129   3.369   4.985  -1.652 -0.2012  0.1623 -0.4446
   41BDD     S114130   3.497   4.860  -1.637 -0.1462  0.2216 -0.4201
   41BDD     C514131   3.122   4.708  -1.604 -0.0716  0.1017 -0.1233
   41BDD     C614132   3.119   5.009  -1.648 -0.2085  0.0696 -0.3369
   41BDD     O114133   3.118   5.133  -1.667 -0.2648  0.0563 -0.4244
   41BDD     O214134   3.124   4.584  -1.585 -0.0153  0.1150 -0.0355
   41BDD     C714135   2.996   4.929  -1.633 -0.1707  0.0333 -0.2182
   41BDD     C814136   2.997   4.786  -1.612 -0.1054  0.0485 -0.1163
   41BDD     C914137   2.872   4.731  -1.600 -0.0789  0.0091 -0.0150
   41BDD     S214138   2.744   4.856  -1.615 -0.1338 -0.0502 -0.0397
   41BDD    C1014139   2.870   4.982  -1.637 -0.1930 -0.0178 -0.1931
   41BDD    C1114140   2.819   5.125  -1.618  1.0120 -0.4520 -0.6792
   41BDD    C1214141   2.683   5.151  -1.542  1.3206  0.2531 -0.7652
   41BDD    C1314142   2.612   5.281  -1.566  0.4063 -0.2510  0.0149
   41BDD    C1414143   2.521   5.308  -1.693  0.6731  0.8862  1.3125
   41BDD    C1514144   2.448   5.442  -1.691 -0.2422 -0.4203 -0.6921
   41BDD    C1614145   2.500   5.558  -1.774 -0.9855 -0.1621  0.0719
   41BDD    C1714146   2.706   5.134  -1.401  1.2048  0.6222  0.0631
   41BDD    C1814147   2.591   5.077  -1.311 -0.8189 -0.6237  0.0964
   41BDD    C1914148   2.829   4.580  -1.567  0.1894 -1.2576 -0.2701
   41BDD    C2014149   2.748   4.554  -1.449 -1.3761 -0.2605 -1.1989
   41BDD    C2114150   2.719   4.408  -1.456  0.7969 -0.6584  0.2061
   41BDD    C2214151   2.625   4.337  -1.350  0.1833 -0.4773 -1.1270
   41BDD    C2314152   2.530   4.250  -1.420 -0.1806  0.7682 -1.0112
   41BDD    C2414153   2.401   4.309  -1.461 -0.6759  0.5134 -0.6564
   41BDD    C2514154   2.805   4.604  -1.312  0.9980 -0.1279 -0.0938
   41BDD    C2614155   2.722   4.710  -1.245  0.7833  0.4945 -0.0233
   42TPM     C114156   3.433   4.596  -1.596 -0.0562 -0.2667 -0.7022
   42TPM     C214157   3.521   4.568  -1.496  0.2064  0.1845 -0.8006
   42TPM     C314158   3.550   4.427  -1.482  0.3809  0.2614 -0.3588
   42TPM     C414159   3.483   4.349  -1.572  0.2515 -0.1312  0.0766
   42TPM     S114160   3.378   4.446  -1.681 -0.1039 -0.6325 -0.0389
   43BDTP    C114161   3.468   3.725  -1.639 -0.0734 -0.0377 -0.3178
   43BDTP    C214162   3.598   3.755  -1.688  0.0499  0.0519  0.0544
   43BDTP    C314163   3.648   3.885  -1.694  0.0744  0.0620  0.4249
   43BDTP    C414164   3.565   3.990  -1.649 -0.0275 -0.0199  0.4294
   43BDTP    C514165   3.435   3.959  -1.600 -0.1508 -0.1094  0.0575
   43BDTP    C614166   3.386   3.830  -1.594 -0.1752 -0.1195 -0.3126
   43BDTP    C714167   3.595   4.131  -1.646 -0.0253 -0.0270  0.7755
   43BDTP    C814168   3.494   4.208  -1.597 -0.1394 -0.1163  0.6831
   43BDTP    S114169   3.348   4.111  -1.548 -0.2660 -0.2041  0.1438
   43BDTP    C914170   3.439   3.583  -1.642 -0.0756 -0.0306 -0.6638
   43BDTP   C1014171   3.539   3.507  -1.691  0.0387  0.0588 -0.5705
   43BDTP    S214172   3.685   3.603  -1.740  0.1651  0.1464 -0.0318
   44FTM     S114173   3.901   4.034  -1.723  0.0883  0.0846  0.1703
   44FTM     C114174   3.968   4.024  -1.891 -0.5443  0.8057 -0.1369
   44FTM     C214175   3.889   3.944  -1.967 -1.0269  1.4148 -0.2871
   44FTM     C314176   3.774   3.887  -1.903 -0.9366  1.3592 -0.1750
   44FTM     C414177   3.765   3.925  -1.772 -0.3660  0.6854  0.0688
   44FTM     F114178   3.915   3.918  -2.101 -1.5793  2.0589 -0.5350
   44FTM     C514179   4.105   4.066  -1.896 -0.2152  0.5687  1.2314
   44FTM     C614180   4.226   4.006  -1.807  2.5216  0.0823  1.6160
   44FTM     C714181   4.247   3.859  -1.785 -0.7509 -0.1580  1.0105
   44FTM     C814182   4.124   3.786  -1.738  0.1009  0.9508  0.6355
   44FTM     C914183   4.129   3.631  -1.756 -1.1412  1.0148  0.7861
   44FTM    C1014184   4.002   3.560  -1.793 -0.0690 -0.1666 -0.8602
   44FTM    C1114185   4.330   4.112  -1.791  0.8542 -0.4783 -0.2704
   44FTM    C1214186   4.450   4.072  -1.861 -0.6880  0.3011 -0.3369
   45FTM     S114187   3.202   3.666  -1.469  0.0253 -0.0864  0.5559
   45FTM     C114188   3.029   3.683  -1.516  0.0868 -0.3872  0.2210
   45FTM     C214189   3.014   3.787  -1.602  0.0680 -0.4067  0.2000
   45FTM     C314190   3.133   3.860  -1.634  0.0063 -0.1941  0.4377
   45FTM     C414191   3.243   3.808  -1.572 -0.0233 -0.0056  0.6473
   45FTM     F114192   2.891   3.824  -1.655  0.1055 -0.6182 -0.0358
   45FTM     C514193   2.933   3.616  -1.424 -0.2361 -0.4265 -0.5264
   45FTM     C614194   2.854   3.491  -1.448  0.8706  1.6704  0.4651
   45FTM     C714195   2.698   3.498  -1.495  0.1287 -0.9890  0.5409
   45FTM     C814196   2.600   3.566  -1.394 -0.1190  0.3745  0.6928
   45FTM     C914197   2.497   3.459  -1.371 -0.7674  1.1481 -0.6920
   45FTM    C1014198   2.396   3.496  -1.266 -0.3422  1.1260 -0.3557
   45FTM    C1114199   2.941   3.368  -1.483 -0.4241 -0.8715  0.6219
   45FTM    C1214200   2.952   3.324  -1.637  0.5039  0.1186 -1.8546
   46TPM     C114201   3.543   3.367  -1.705 -0.2365  0.3846  0.4281
   46TPM     C214202   3.636   3.322  -1.794 -0.2643  0.4596  0.3612
   46TPM     C314203   3.623   3.182  -1.826 -0.2717  0.4851  0.2496
   46TPM     C414204   3.521   3.121  -1.760 -0.2497  0.4293  0.2315
   46TPM     S114205   3.432   3.235  -1.653 -0.2174  0.3397  0.3548
   47BDD     C114206   3.377   2.788  -1.932 -0.7321  0.1768  0.3728
   47BDD     C214207   3.427   2.752  -1.810 -0.4576  0.2074  0.2713
   47BDD     C314208   3.480   2.865  -1.734 -0.0278  0.1860  0.0117
   47BDD     C414209   3.469   2.984  -1.800  0.0192  0.1392 -0.0811
   47BDD     S114210   3.393   2.964  -1.961 -0.4714  0.1190  0.1502
   47BDD     C514211   3.428   2.614  -1.758 -0.5804  0.2576  0.4091
   47BDD     C614212   3.538   2.850  -1.599  0.3207  0.2125 -0.1349
   47BDD     O114213   3.584   2.947  -1.534  0.6914  0.1941 -0.3591
   47BDD     O214214   3.383   2.517  -1.823 -0.9510  0.2761  0.6332
   47BDD     C714215   3.540   2.711  -1.547  0.1980  0.2627  0.0031
   47BDD     C814216   3.487   2.599  -1.623 -0.2318  0.2843  0.2627
   47BDD     C914217   3.498   2.480  -1.557 -0.2788  0.3310  0.3555
   47BDD     S214218   3.574   2.500  -1.396  0.2118  0.3513  0.1241
   47BDD    C1014219   3.590   2.676  -1.425  0.4725  0.2934 -0.0985
   47BDD    C1114220   3.632   2.744  -1.289  0.4969  0.1188  0.0672
   47BDD    C1214221   3.789   2.702  -1.283 -0.0376 -0.8539 -0.5347
   47BDD    C1314222   3.882   2.756  -1.399 -0.5217  0.6853 -0.3695
   47BDD    C1414223   3.887   2.903  -1.463 -0.5250  0.6362  0.4818
   47BDD    C1514224   3.945   2.872  -1.596  0.9014  0.6111 -0.0548
   47BDD    C1614225   4.012   2.975  -1.669 -0.1253 -0.3985  0.3444
   47BDD    C1714226   3.832   2.759  -1.159  0.8001  1.1848 -0.6957
   47BDD    C1814227   3.812   2.666  -1.029 -0.8554 -0.9305 -0.2139
   47BDD    C1914228   3.453   2.343  -1.588  0.0790 -0.3708  1.0062
   47BDD    C2014229   3.572   2.242  -1.611  0.0292 -0.8070  0.1736
   47BDD    C2114230   3.567   2.110  -1.550  0.0754  0.8399  0.2481
   47BDD    C2214231   3.479   2.084  -1.415 -0.9762  0.4835  0.5628
   47BDD    C2314232   3.469   1.927  -1.405 -0.1612 -0.8737 -0.2740
   47BDD    C2414233   3.347   1.939  -1.321  1.3688  0.5557 -0.0994
   47BDD    C2514234   3.679   2.268  -1.734  0.1509  0.6678 -1.2672
   47BDD    C2614235   3.797   2.193  -1.743 -0.8969 -0.7423  1.0230
   48TPM     C114236   3.308   2.725  -2.044  0.3081  0.5053 -0.1292
   48TPM     C214237   3.362   2.606  -2.084  0.5865  0.5200  0.1874
   48TPM     C314238   3.326   2.570  -2.219  0.6816  0.0827  0.2780
   48TPM     C414239   3.245   2.660  -2.281  0.4757 -0.2655  0.0308
   48TPM     S114240   3.207   2.800  -2.173  0.1433 -0.0666 -0.3388
   49BDTP    C114241   3.016   2.505  -2.840  0.1349  0.1066  0.1462
   49BDTP    C214242   2.919   2.598  -2.791 -0.0024 -0.0094  0.0958
   49BDTP    C314243   2.932   2.661  -2.668 -0.0964  0.0753  0.0622
   49BDTP    C414244   3.045   2.632  -2.590 -0.0532  0.2842  0.0784
   49BDTP    C514245   3.141   2.540  -2.639  0.0840  0.4002  0.1285
   49BDTP    C614246   3.129   2.476  -2.762  0.1781  0.3155  0.1625
   49BDTP    C714247   3.079   2.685  -2.459 -0.1321  0.4052  0.0503
   49BDTP    C814248   3.195   2.638  -2.409 -0.0616  0.6039  0.0765
   49BDTP    S114249   3.278   2.519  -2.519  0.1146  0.6657  0.1407
   49BDTP    C914250   2.982   2.452  -2.970  0.2136 -0.0144  0.1743
   49BDTP   C1014251   2.865   2.500  -3.021  0.1432 -0.2131  0.1481
   49BDTP    S214252   2.783   2.619  -2.911 -0.0330 -0.2749  0.0837
   50FTM     S114253   2.918   2.941  -2.633 -0.2571 -0.1859  0.0882
   50FTM     C114254   2.757   3.019  -2.646 -0.1429  0.0725  0.2163
   50FTM     C214255   2.659   2.924  -2.650 -0.2772  0.2189 -0.0191
   50FTM     C314256   2.704   2.788  -2.644 -0.4723  0.1408 -0.3061
   50FTM     C414257   2.839   2.778  -2.635 -0.4880 -0.0722 -0.2905
   50FTM     F114258   2.524   2.955  -2.660 -0.2313  0.4321  0.0117
   50FTM     C514259   2.767   3.170  -2.687  0.4399  0.3786 -0.2527
   50FTM     C614260   2.769   3.202  -2.847  0.2299  0.2325 -0.5094
   50FTM     C714261   2.653   3.160  -2.931  0.2122 -0.5935  0.7543
   50FTM     C814262   2.514   3.232  -2.935  1.1755  1.5203  0.3415
   50FTM     C914263   2.455   3.283  -2.800  0.2978  0.0594  0.2873
   50FTM    C1014264   2.317   3.270  -2.756  0.1310  0.7602  0.3607
   50FTM    C1114265   2.916   3.155  -2.903  0.3085  0.1531  0.3383
   50FTM    C1214266   2.956   3.219  -3.034  0.2487 -0.1043  0.9664
   51FTM     S114267   3.414   2.448  -2.808  0.2164 -0.1542 -0.3959
   51FTM     C114268   3.457   2.285  -2.871  0.0352 -0.4300  0.1831
   51FTM     C214269   3.343   2.215  -2.899 -0.0427 -0.4122  0.4461
   51FTM     C314270   3.220   2.283  -2.874  0.0321 -0.1885  0.2184
   51FTM     C414271   3.239   2.409  -2.825  0.1718 -0.0298 -0.2333
   51FTM     F114272   3.345   2.086  -2.949 -0.1863 -0.5975  0.9084
   51FTM     C514273   3.595   2.236  -2.908  0.2879 -0.6132  0.3805
   51FTM     C614274   3.686   2.162  -2.801  0.3302  0.7952 -0.0435
   51FTM     C714275   3.754   2.039  -2.868  0.4697 -0.8846 -1.4868
   51FTM     C814276   3.915   2.030  -2.883  0.1659 -0.0919 -1.4745
   51FTM     C914277   3.971   1.895  -2.877 -0.4022  1.4093 -0.3073
   51FTM    C1014278   4.002   1.856  -2.728 -1.0304  0.0673 -0.3635
   51FTM    C1114279   3.739   2.220  -2.667  1.3102 -0.3117 -0.0946
   51FTM    C1214280   3.677   2.331  -2.592 -0.0248 -0.0752 -0.6708
   52TPM     C114281   2.790   2.444  -3.127 -0.1113  0.3522  0.3006
   52TPM     C214282   2.663   2.469  -3.168 -0.0560  0.3111  0.0999
   52TPM     C314283   2.631   2.413  -3.296  0.1434  0.2446  0.0787
   52TPM     C414284   2.734   2.344  -3.353  0.2401  0.2350  0.2634
   52TPM     S114285   2.881   2.346  -3.248  0.0855  0.3099  0.4798
   53BDD     C114286   2.626   2.150  -3.675  0.1295  0.4789  0.1791
   53BDD     C214287   2.689   2.059  -3.594  0.1611  0.4270  0.0968
   53BDD     C314288   2.737   2.116  -3.470 -0.0018  0.2958  0.2203
   53BDD     C414289   2.710   2.250  -3.458 -0.1555  0.2497  0.3949
   53BDD     S114290   2.623   2.313  -3.601 -0.1067  0.3673  0.4169
   53BDD     C514291   2.707   1.916  -3.629  0.3425  0.4960 -0.0986
   53BDD     C614292   2.807   2.037  -3.367  0.0008  0.2211  0.1607
   53BDD     O114293   2.848   2.086  -3.260 -0.1397  0.1079  0.2673
   53BDD     O214294   2.666   1.867  -3.736  0.4831  0.6091 -0.2052
   53BDD     C714295   2.826   1.894  -3.402  0.1822  0.2901 -0.0349
   53BDD     C814296   2.778   1.837  -3.526  0.3451  0.4212 -0.1585
   53BDD     C914297   2.805   1.703  -3.538  0.4987  0.4674 -0.3333
   53BDD     S214298   2.892   1.640  -3.395  0.4499  0.3498 -0.3551
   53BDD    C1014299   2.888   1.803  -3.321  0.2138  0.2381 -0.1171
   53BDD    C1114300   2.987   1.809  -3.210  0.6442 -0.5697 -0.1217
   53BDD    C1214301   2.937   1.830  -3.073  0.0588 -0.4163 -0.4607
   53BDD    C1314302   2.879   1.706  -3.013  0.6196  1.5932  0.6780
   53BDD    C1414303   2.770   1.594  -3.061 -0.2611 -0.7262  0.0889
   53BDD    C1514304   2.625   1.602  -3.057 -1.6926 -0.7312  0.7744
   53BDD    C1614305   2.543   1.558  -3.174 -0.1597  0.1194  0.2063
   53BDD    C1714306   3.022   1.905  -2.978 -0.8687 -0.0387  0.5639
   53BDD    C1814307   3.164   1.892  -2.920 -0.2550  0.7611 -0.5524
   53BDD    C1914308   2.750   1.611  -3.640  0.4243 -0.2843 -1.2240
   53BDD    C2014309   2.836   1.491  -3.675  1.2572  0.4945  0.2132
   53BDD    C2114310   2.821   1.397  -3.553 -1.3563 -0.6999  0.1468
   53BDD    C2214311   2.868   1.248  -3.566  0.3641 -0.0587 -0.9152
   53BDD    C2314312   2.858   1.139  -3.454 -1.2647  0.3251  0.8807
   53BDD    C2414313   2.853   1.004  -3.514 -0.2658  0.1301  0.8354
   53BDD    C2514314   2.983   1.536  -3.712  0.4985 -1.0669  0.5990
   53BDD    C2614315   3.009   1.632  -3.839  0.1568  1.1118 -0.5492
   54TPM     C114316   2.555   2.155  -3.800  0.0154 -0.1227  0.0056
   54TPM     C214317   2.636   2.155  -3.910  0.2033  0.5199  0.1342
   54TPM     C314318   2.583   2.228  -4.022  0.1165  0.6705  0.2725
   54TPM     C414319   2.461   2.284  -3.998 -0.1374  0.1426  0.2493
   54TPM     S114320   2.403   2.249  -3.831 -0.2879 -0.5911  0.0492
   55BDTP    C114321   2.070   2.668  -4.316 -0.0685  0.5044  0.2158
   55BDTP    C214322   2.185   2.665  -4.399 -0.2608  0.1606 -0.0451
   55BDTP    C314323   2.298   2.589  -4.369 -0.3920 -0.1285 -0.2689
   55BDTP    C414324   2.296   2.513  -4.251 -0.3310 -0.0766 -0.2344
   55BDTP    C514325   2.180   2.516  -4.168 -0.1386  0.2671  0.0266
   55BDTP    C614326   2.068   2.592  -4.198 -0.0075  0.5563  0.2506
   55BDTP    C714327   2.400   2.427  -4.198 -0.4410 -0.3356 -0.4361
   55BDTP    C814328   2.368   2.366  -4.081 -0.3417 -0.2044 -0.3402
   55BDTP    S114329   2.202   2.409  -4.021 -0.0951  0.2655  0.0188
   55BDTP    C914330   1.965   2.754  -4.369  0.0415  0.7634  0.4176
   55BDTP   C1014331   1.997   2.815  -4.486 -0.0578  0.6322  0.3217
   55BDTP    S214332   2.163   2.772  -4.546 -0.3044  0.1623 -0.0374
   56FTM     S114333   2.562   2.669  -4.415 -0.4952  0.1407 -0.4076
   56FTM     C114334   2.643   2.592  -4.556 -0.0289  0.2036 -0.1770
   56FTM     C214335   2.558   2.507  -4.619  0.2887 -0.0385 -0.2890
   56FTM     C314336   2.426   2.497  -4.562  0.1912 -0.2818 -0.5543
   56FTM     C414337   2.411   2.576  -4.452 -0.2142 -0.2241 -0.6487
   56FTM     F114338   2.593   2.434  -4.731  0.6866 -0.0542 -0.1578
   56FTM     C514339   2.762   2.671  -4.614 -0.8444  1.8539 -0.4842
   56FTM     C614340   2.892   2.748  -4.546 -1.6236 -0.2730  0.1714
   56FTM     C714341   2.890   2.894  -4.478 -0.5768 -0.3492 -0.0395
   56FTM     C814342   2.851   2.992  -4.571 -0.8113 -0.1525 -0.7930
   56FTM     C914343   2.875   2.981  -4.721 -0.5701 -0.1131 -0.8346
   56FTM    C1014344   2.798   3.087  -4.797 -0.0368  0.3561  0.4549
   56FTM    C1114345   2.988   2.661  -4.461  0.3675 -0.1774  0.0686
   56FTM    C1214346   3.044   2.530  -4.511 -0.1993  0.0411  0.0718
   57FTM     S114347   1.796   2.569  -4.115 -0.2647 -0.1525 -0.0510
   57FTM     C114348   1.766   2.608  -3.942  0.0481  0.4380 -0.1254
   57FTM     C214349   1.880   2.654  -3.884  0.2056  0.4411 -0.4367
   57FTM     C314350   1.995   2.662  -3.969  0.0955 -0.0048 -0.6317
   57FTM     C414351   1.968   2.620  -4.096 -0.1547 -0.3609 -0.4642
   57FTM     F114352   1.887   2.693  -3.751  0.4590  0.8478 -0.5636
   57FTM     C514353   1.623   2.600  -3.883  0.4787 -0.0678  0.5739
   57FTM     C614354   1.573   2.711  -3.781  0.1727 -0.3974 -0.4888
   57FTM     C714355   1.550   2.852  -3.839 -0.2345  1.3965  0.8447
   57FTM     C814356   1.392   2.865  -3.858 -0.8162  0.3891  0.0224
   57FTM     C914357   1.343   3.011  -3.853 -0.9950  0.5967 -0.2221
   57FTM    C1014358   1.409   3.096  -3.749 -0.3882  0.5335 -0.1178
   57FTM    C1114359   1.626   2.746  -3.633  0.4679  1.5106  0.1363
   57FTM    C1214360   1.641   2.621  -3.542 -0.0727 -0.2212  1.2703
   58TPM     C114361   1.912   2.927  -4.544  0.6119 -0.2902  0.2307
   58TPM     C214362   1.959   3.036  -4.612  1.1070  0.2417  1.3752
   58TPM     C314363   1.858   3.134  -4.639  1.3505  0.5531  1.5839
   58TPM     C414364   1.734   3.101  -4.593  1.0410  0.2587  0.5986
   58TPM     S114365   1.736   2.941  -4.510  0.4131 -0.4402 -0.6792
   59BDD     C114366   1.479   3.322  -4.382  0.6087  0.5088  0.3198
   59BDD     C214367   1.487   3.382  -4.505  0.4320  0.2751  0.1941
   59BDD     C314368   1.568   3.308  -4.600  0.1145 -0.0194  0.1489
   59BDD     C414369   1.621   3.193  -4.548  0.0537 -0.0060  0.2409
   59BDD     S114370   1.573   3.170  -4.376  0.3897  0.3762  0.3903
   59BDD     C514371   1.420   3.509  -4.540  0.5487  0.3140  0.1109
   59BDD     C614372   1.590   3.353  -4.738 -0.1170 -0.3034  0.0162
   59BDD     O114373   1.660   3.289  -4.820 -0.3908 -0.5574 -0.0226
   59BDD     O214374   1.350   3.573  -4.458  0.8225  0.5680  0.1497
   59BDD     C714375   1.523   3.480  -4.773 -0.0004 -0.2646 -0.0670
   59BDD     C814376   1.442   3.555  -4.678  0.3172  0.0299 -0.0218
   59BDD     C914377   1.389   3.670  -4.730  0.3780  0.0165 -0.1137
   59BDD     S214378   1.438   3.693  -4.902  0.0420 -0.3658 -0.2633
   59BDD    C1014379   1.531   3.540  -4.896 -0.1770 -0.4983 -0.1926
   59BDD    C1114380   1.591   3.510  -5.035 -0.7992 -0.6341  0.6090
   59BDD    C1214381   1.740   3.544  -5.071 -0.9744 -1.0023  0.1079
   59BDD    C1314382   1.849   3.590  -4.972  0.3400 -0.7384 -0.4647
   59BDD    C1414383   1.920   3.478  -4.893 -1.6035 -1.1866  0.1356
   59BDD    C1514384   2.054   3.523  -4.817 -0.5150 -0.9576  0.2946
   59BDD    C1614385   1.991   3.545  -4.675 -0.8151  0.4055  1.8602
   59BDD    C1714386   1.763   3.523  -5.215 -1.0462 -0.4339  0.7224
   59BDD    C1814387   1.779   3.651  -5.288 -0.0329  0.9481 -0.6142
   59BDD    C1914388   1.308   3.777  -4.665 -0.3726 -0.8057 -0.2579
   59BDD    C2014389   1.178   3.797  -4.738  0.0965  1.3732  0.3254
   59BDD    C2114390   1.165   3.938  -4.788 -1.1040  0.5154 -0.7095
   59BDD    C2214391   1.055   3.993  -4.871 -0.5692 -1.2845  0.0691
   59BDD    C2314392   1.061   4.141  -4.894 -0.6402  0.6170  0.6897
   59BDD    C2414393   0.927   4.198  -4.941  0.0958  0.6976 -0.1383
   59BDD    C2514394   1.070   3.728  -4.650 -1.2211  0.1017  0.4603
   59BDD    C2614395   0.927   3.733  -4.706 -0.1626  1.1205 -1.1054
   60TPM     C114396   1.391   3.321  -4.258  0.4980 -1.1975  0.0126
   60TPM     C214397   1.374   3.441  -4.196 -0.6180 -0.6250 -1.2925
   60TPM     C314398   1.306   3.431  -4.069 -1.5486  0.3067 -1.6954
   60TPM     C414399   1.271   3.304  -4.035 -1.1421  0.4447 -0.6975
   60TPM     S114400   1.322   3.185  -4.161  0.4600 -0.5996  0.8404
    1BDTP    C114401   6.197   9.571  11.005  0.2031 -0.3557 -0.2894
    1BDTP    C214402   6.153   9.447  10.949  0.0204 -0.4005 -0.0498
    1BDTP    C314403   6.021   9.424  10.914 -0.0473 -0.3369  0.1581
    1BDTP    C414404   5.927   9.527  10.934  0.0702 -0.2236  0.1283
    1BDTP    C514405   5.971   9.650  10.990  0.2528 -0.1786 -0.1111
    1BDTP    C614406   6.103   9.674  11.025  0.3208 -0.2425 -0.3190
    1BDTP    C714407   5.785   9.525  10.905  0.0306 -0.1413  0.3162
    1BDTP    C814408   5.721   9.641  10.936  0.1731 -0.0386  0.2301
    1BDTP    S114409   5.831   9.767  11.006  0.3773 -0.0310 -0.1006
    1BDTP    C914410   6.339   9.572  11.034  0.2426 -0.4377 -0.4771
    1BDTP   C1014411   6.403   9.457  11.003  0.1003 -0.5407 -0.3912
    1BDTP    S214412   6.292   9.331  10.932 -0.1040 -0.5485 -0.0603
    2FTM     S114413   5.825   9.223  10.930 -0.5817  0.5042 -0.4287
    2FTM     C114414   5.821   9.102  10.796 -0.5579  0.2025 -0.1612
    2FTM     C214415   5.926   9.123  10.711 -0.2034 -0.3612  0.1302
    2FTM     C314416   6.014   9.231  10.745  0.0652 -0.5867  0.1624
    2FTM     C414417   5.975   9.295  10.859 -0.0891 -0.1834 -0.1136
    2FTM     F114418   5.949   9.045  10.599 -0.1006 -0.7055  0.3853
    2FTM     C514419   5.712   9.004  10.776  0.5365 -0.5999  0.5029
    2FTM     C614420   5.616   8.958  10.880  1.2670 -0.3032  0.4699
    2FTM     C714421   5.481   9.033  10.876 -0.7768  0.1134  0.0525
    2FTM     C814422   5.451   9.177  10.854 -0.6182  0.9180 -0.1712
    2FTM     C914423   5.466   9.230  10.704 -1.5191  0.3341 -0.0233
    2FTM    C1014424   5.549   9.351  10.690 -0.5959 -0.8123  0.6338
    2FTM    C1114425   5.563   8.810  10.859  0.4530  0.6658 -0.9565
    2FTM    C1214426   5.682   8.713  10.872  1.3125 -0.7496 -0.9012
    3FTM     S114427   6.185   9.949  11.003  0.3524  0.1459 -0.2133
    3FTM     C114428   6.244  10.025  11.155 -0.4058 -0.3954  0.3710
    3FTM     C214429   6.228   9.939  11.260 -1.2841 -0.6273  0.0598
    3FTM     C314430   6.169   9.812  11.228 -1.4175 -0.4039 -0.6349
    3FTM     C414431   6.140   9.800  11.096 -0.6154  0.0129 -0.8634
    3FTM     F114432   6.265   9.970  11.389 -2.0189 -1.0560  0.3855
    3FTM     C514433   6.311  10.168  11.146 -0.1733  1.5646 -0.5717
    3FTM     C614434   6.233  10.294  11.183 -0.2791 -1.1707 -0.6968
    3FTM     C714435   6.124  10.309  11.084 -0.3200 -0.4347 -0.6066
    3FTM     C814436   5.981  10.306  11.144 -0.7125  0.8918  0.4546
    3FTM     C914437   5.896  10.311  11.018 -0.2920  0.6165  0.0530
    3FTM    C1014438   5.764  10.245  11.007  0.9696  1.0374  1.8669
    3FTM    C1114439   6.253  10.349  11.332 -0.5208  1.3555 -0.1401
    3FTM    C1214440   6.242  10.502  11.338  2.4882 -0.2711 -0.9323
    4TPM     C114441   6.546   9.435  11.016 -0.2971  0.2453  0.3004
    4TPM     C214442   6.641   9.484  10.932 -0.3856 -0.3479 -0.1631
    4TPM     C314443   6.769   9.419  10.944 -0.6138 -0.8633 -0.4864
    4TPM     C414444   6.771   9.319  11.037 -0.6990 -0.6633 -0.2691
    4TPM     S114445   6.610   9.300  11.117 -0.4963  0.1981  0.3656
    5BDD     C114446   7.114   9.139  10.982  0.1591 -0.1370  0.0435
    5BDD     C214447   7.020   9.041  11.001  0.1132 -0.0913  0.0548
    5BDD     C314448   6.887   9.093  11.029  0.1521 -0.0267  0.1194
    5BDD     C414449   6.882   9.230  11.032  0.2271 -0.0249  0.1567
    5BDD     S114450   7.042   9.303  10.999  0.2540 -0.1035  0.1128
    5BDD     C514451   7.049   8.897  10.993  0.0319 -0.1047  0.0064
    5BDD     C614452   6.771   9.005  11.053  0.1136  0.0303  0.1421
    5BDD     O114453   6.656   9.050  11.077  0.1472  0.0858  0.1979
    5BDD     O214454   7.163   8.852  10.968 -0.0017 -0.1602 -0.0491
    5BDD     C714455   6.800   8.861  11.045  0.0323  0.0167  0.0939
    5BDD     C814456   6.932   8.809  11.016 -0.0066 -0.0477  0.0293
    5BDD     C914457   6.938   8.672  11.013 -0.0815 -0.0503 -0.0081
    5BDD     S214458   6.777   8.599  11.046 -0.1085  0.0280  0.0354
    5BDD    C1014459   6.706   8.763  11.063 -0.0135  0.0622  0.1049
    5BDD    C1114460   6.548   8.775  11.066  0.8307  0.0032  0.5763
    5BDD    C1214461   6.475   8.818  11.187  0.5165 -0.4312 -0.8248
    5BDD    C1314462   6.324   8.810  11.155  0.2226  0.2837 -0.1821
    5BDD    C1414463   6.212   8.890  11.225 -0.7815 -0.3348  0.2036
    5BDD    C1514464   6.063   8.890  11.168 -0.5318  1.5309 -0.0523
    5BDD    C1614465   5.983   8.766  11.215  0.1420 -0.6399 -0.4056
    5BDD    C1714466   6.491   8.756  11.334  0.5308  0.0040  0.6765
    5BDD    C1814467   6.633   8.797  11.377  0.6316  0.0917 -1.4548
    5BDD    C1914468   7.059   8.582  10.978  0.0260  0.8822  0.3522
    5BDD    C2014469   7.151   8.535  11.086  0.6625  1.3943 -0.3438
    5BDD    C2114470   7.248   8.419  11.046  0.1091 -0.5905 -0.5406
    5BDD    C2214471   7.372   8.452  10.971 -1.0629  0.2303  0.9339
    5BDD    C2314472   7.331   8.487  10.814 -2.0882  0.1192  1.4331
    5BDD    C2414473   7.275   8.369  10.746 -0.8470 -1.3999  1.2535
    5BDD    C2514474   7.217   8.633  11.189  0.7153  0.3094  0.2255
    5BDD    C2614475   7.112   8.636  11.304 -0.1692 -0.1951  0.3673
    6TPM     C114476   7.264   9.146  10.960  0.4702  0.0233 -0.1492
    6TPM     C214477   7.323   9.063  10.869  0.3911  0.0937 -0.2644
    6TPM     C314478   7.460   9.096  10.840  0.3827  0.0825 -0.3169
    6TPM     C414479   7.506   9.204  10.909  0.4552  0.0038 -0.2417
    6TPM     S114480   7.379   9.273  11.017  0.5404 -0.0630 -0.0980
    7BDTP    C114481   8.070   9.474  10.858 -0.5596  0.6039  0.2577
    7BDTP    C214482   7.999   9.532  10.748 -0.4755  0.4125  0.1016
    7BDTP    C314483   7.866   9.504  10.721 -0.3716  0.1323 -0.1304
    7BDTP    C414484   7.799   9.414  10.807 -0.3492  0.0370 -0.2127
    7BDTP    C514485   7.869   9.357  10.916 -0.4332  0.2286 -0.0567
    7BDTP    C614486   8.002   9.385  10.943 -0.5371  0.5082  0.1751
    7BDTP    C714487   7.661   9.370  10.799 -0.2478 -0.2431 -0.4452
    7BDTP    C814488   7.625   9.283  10.896 -0.2518 -0.2704 -0.4714
    7BDTP    S114489   7.761   9.245  11.011 -0.3842  0.0544 -0.2046
    7BDTP    C914490   8.207   9.519  10.866 -0.6609  0.8836  0.4902
    7BDTP   C1014491   8.243   9.606  10.769 -0.6571  0.9112  0.5159
    7BDTP    S214492   8.108   9.644  10.653 -0.5245  0.5865  0.2492
    8FTM     S114493   7.644   9.601  10.561 -0.0283  0.8997 -0.3466
    8FTM     C114494   7.671   9.596  10.383 -0.1398  0.0285 -0.3449
    8FTM     C214495   7.795   9.546  10.356 -0.3432 -0.5770 -0.2069
    8FTM     C314496   7.875   9.511  10.470 -0.4225 -0.4046 -0.0968
    8FTM     C414497   7.810   9.534  10.588 -0.2754  0.3580 -0.1526
    8FTM     F114498   7.844   9.531  10.227 -0.4693 -1.3232 -0.1724
    8FTM     C514499   7.570   9.634  10.277 -0.7557  0.2172  0.1159
    8FTM     C614500   7.450   9.714  10.325 -1.2570 -0.4359  1.1007
    8FTM     C714501   7.333   9.670  10.415 -0.6581 -0.1525  0.3871
    8FTM     C814502   7.286   9.529  10.401  0.7122  1.0300 -0.3792
    8FTM     C914503   7.365   9.416  10.462 -0.8212 -0.5325 -0.1852
    8FTM    C1014504   7.300   9.368  10.588 -0.9355 -0.7458  0.6421
    8FTM    C1114505   7.478   9.862  10.344  0.1318  0.1055  1.1730
    8FTM    C1214506   7.390   9.958  10.282  0.6033  1.2054  0.7884
    9FTM     S114507   8.232   9.268  11.055 -0.2045  0.0489  0.2995
    9FTM     C114508   8.234   9.232  11.231 -0.2667  0.0499  0.3008
    9FTM     C214509   8.114   9.262  11.287 -0.5286 -0.6289  0.1230
    9FTM     C314510   8.014   9.314  11.197 -0.6926 -1.1783 -0.0210
    9FTM     C414511   8.060   9.324  11.069 -0.5522 -0.9111  0.0480
    9FTM     F114512   8.086   9.245  11.421 -0.6344 -0.7939  0.0806
    9FTM     C514513   8.367   9.162  11.290  1.5657 -0.7057  0.3992
    9FTM     C614514   8.351   9.062  11.403  0.9200 -0.1296  0.7945
    9FTM     C714515   8.500   9.041  11.446 -0.4291 -0.3030  1.5390
    9FTM     C814516   8.535   9.016  11.596 -1.4014 -0.2866  0.7897
    9FTM     C914517   8.514   8.882  11.655  0.5912 -0.3438  0.8182
    9FTM    C1014518   8.596   8.871  11.770 -1.1033 -0.3703  0.0631
    9FTM    C1114519   8.247   8.949  11.357 -0.8457 -0.7781 -0.2606
    9FTM    C1214520   8.181   8.859  11.467  0.0048 -0.0197  0.3300
   10TPM     C114521   8.384   9.641  10.755 -0.2336  0.3368  0.4357
   10TPM     C214522   8.438   9.705  10.647 -0.7613  0.8264  0.4520
   10TPM     C314523   8.582   9.702  10.644 -0.7689  0.8342 -0.2649
   10TPM     C414524   8.638   9.636  10.750 -0.2478  0.3501 -0.8278
   10TPM     S114525   8.512   9.572  10.862  0.2981 -0.1565 -0.4934
   11BDD     C114526   8.964   9.445  10.672 -0.2358  0.1265 -0.2016
   11BDD     C214527   8.979   9.495  10.798 -0.1893  0.0494 -0.1757
   11BDD     C314528   8.868   9.580  10.840 -0.3622 -0.2902  0.0658
   11BDD     C414529   8.771   9.593  10.745 -0.5386 -0.4667  0.2211
   11BDD     S114530   8.810   9.500  10.596 -0.4995 -0.2208  0.0753
   11BDD     C514531   9.095   9.468  10.885  0.0160  0.2849 -0.3729
   11BDD     C614532   8.864   9.645  10.972 -0.3471 -0.4265  0.1338
   11BDD     O114533   8.769   9.718  11.008 -0.4964 -0.7191  0.3421
   11BDD     O214534   9.190   9.394  10.849  0.1652  0.5774 -0.5813
   11BDD     C714535   8.980   9.618  11.059 -0.1416 -0.1910 -0.0629
   11BDD     C814536   9.090   9.533  11.017  0.0312  0.1483 -0.3049
   11BDD     C914537   9.188   9.520  11.112  0.2074  0.3250 -0.4601
   11BDD     S214538   9.149   9.613  11.260  0.1686  0.0789 -0.3143
   11BDD    C1014539   8.995   9.668  11.185 -0.0951 -0.2682 -0.0377
   11BDD    C1114540   8.890   9.726  11.273 -0.4454  0.1409 -0.0658
   11BDD    C1214541   8.953   9.837  11.364  0.2875  0.8103  0.3306
   11BDD    C1314542   8.996   9.970  11.293  1.0712  0.2218  0.3212
   11BDD    C1414543   9.063  10.076  11.382 -0.7813 -1.0881  0.4488
   11BDD    C1514544   9.133  10.172  11.283  0.0351 -0.9492 -1.3866
   11BDD    C1614545   9.059  10.250  11.184  0.3799 -0.1877  0.5254
   11BDD    C1714546   8.885   9.818  11.495  0.9810 -0.4266 -1.6084
   11BDD    C1814547   8.852   9.945  11.582  0.2311  1.5300  0.7496
   11BDD    C1914548   9.317   9.436  11.116  0.0699  0.0625 -0.3233
   11BDD    C2014549   9.321   9.321  11.217 -0.4622  0.0081  0.6631
   11BDD    C2114550   9.454   9.259  11.264 -0.1848 -0.5142 -0.8214
   11BDD    C2214551   9.473   9.289  11.411  1.3666 -0.8538  0.1467
   11BDD    C2314552   9.480   9.181  11.519  0.9390 -0.5735  0.4882
   11BDD    C2414553   9.615   9.115  11.522 -1.1648  0.0549 -0.0544
   11BDD    C2514554   9.207   9.208  11.226 -1.0310  0.0919  1.1172
   11BDD    C2614555   9.135   9.170  11.096  1.5185 -0.5547  0.2796
   12TPM     C114556   9.038   9.371  10.582  0.5314 -0.7132  0.2367
   12TPM     C214557   9.005   9.243  10.550  0.6242 -0.7117  0.1352
   12TPM     C314558   9.109   9.172  10.480  0.4523 -0.3924 -0.4561
   12TPM     C414559   9.221   9.247  10.459  0.2285 -0.1507 -0.8056
   12TPM     S114560   9.204   9.413  10.526  0.2177 -0.3086 -0.4118
   13BDTP    C114561   9.711   9.133  10.103  0.2513  0.1328  0.1364
   13BDTP    C214562   9.612   9.048  10.047  0.2661  0.2382 -0.0496
   13BDTP    C314563   9.484   9.038  10.099  0.1645  0.3541 -0.2742
   13BDTP    C414564   9.452   9.115  10.212  0.0424  0.3672 -0.3171
   13BDTP    C514565   9.551   9.200  10.268  0.0279  0.2618 -0.1311
   13BDTP    C614566   9.679   9.211  10.216  0.1296  0.1460  0.0936
   13BDTP    C714567   9.326   9.121  10.283 -0.0767  0.4779 -0.5349
   13BDTP    C814568   9.326   9.206  10.389 -0.1786  0.4611 -0.5212
   13BDTP    S114569   9.485   9.289  10.413 -0.1383  0.3026 -0.2310
   13BDTP    C914570   9.837   9.127  10.032  0.3705  0.0222  0.3543
   13BDTP   C1014571   9.837   9.043   9.926  0.4725  0.0389  0.3407
   13BDTP    S214572   9.678   8.959   9.902  0.4324  0.1972  0.0501
   14FTM     S114573   9.364   8.948   9.853  0.8868  0.3718 -0.0952
   14FTM     C114574   9.222   8.840   9.874  0.2424  1.1627 -0.2725
   14FTM     C214575   9.197   8.820  10.006 -0.0837  1.3556 -0.3014
   14FTM     C314576   9.286   8.886  10.097  0.1416  0.9112 -0.1903
   14FTM     C414577   9.381   8.959  10.033  0.6575  0.3598 -0.0724
   14FTM     F114578   9.094   8.740  10.052 -0.6063  1.9464 -0.4303
   14FTM     C514579   9.152   8.754   9.763 -0.6197  0.3085  0.0813
   14FTM     C614580   9.149   8.838   9.624 -0.0434 -0.8111 -2.1053
   14FTM     C714581   9.060   8.960   9.634  0.4599 -0.5324  1.2931
   14FTM     C814582   9.060   9.077   9.739 -0.3735 -0.7522 -0.7126
   14FTM     C914583   8.957   9.183   9.711  0.1217  0.1547  0.6233
   14FTM    C1014584   8.975   9.304   9.787 -0.4595 -0.6954 -1.0489
   14FTM    C1114585   9.226   8.809   9.503 -0.2203  0.0262 -0.5543
   14FTM    C1214586   9.299   8.679   9.479 -1.5012  0.7831 -0.5471
   15FTM     S114587   9.754   9.426  10.407  0.1910 -0.4919 -0.0328
   15FTM     C114588   9.894   9.527  10.352 -0.1475 -0.1490 -0.2799
   15FTM     C214589   9.938   9.482  10.232 -0.6454  0.3600 -0.6607
   15FTM     C314590   9.868   9.370  10.176 -0.7901  0.5105 -0.7815
   15FTM     C414591   9.767   9.328  10.256 -0.3906  0.1033 -0.4825
   15FTM     F114592  10.045   9.540  10.165 -0.9995  0.7198 -0.9229
   15FTM     C514593   9.967   9.641  10.431 -0.0622  0.5121 -0.1437
   15FTM     C614594   9.872   9.766  10.483 -0.7406 -0.7345  0.2736
   15FTM     C714595   9.760   9.821  10.403  1.1987  1.0013  0.2091
   15FTM     C814596   9.659   9.921  10.463  0.1076  0.5417 -0.2102
   15FTM     C914597   9.562   9.864  10.569  1.0448 -0.4809  0.2796
   15FTM    C1014598   9.547   9.969  10.693  1.2513  1.5753  0.1027
   15FTM    C1114599   9.967   9.885  10.535 -0.9020 -0.7926  1.9415
   15FTM    C1214600  10.058   9.968  10.437  0.5111 -0.0465 -0.5685
   16TPM     C114601   9.937   9.056   9.816  0.8507  0.1293  0.2743
   16TPM     C214602  10.067   9.015   9.810  0.8650  0.2084  0.0017
   16TPM     C314603  10.134   9.050   9.687  0.5605  0.1729 -0.1767
   16TPM     C414604  10.055   9.119   9.600  0.3143  0.0678 -0.0396
   16TPM     S114605   9.889   9.144   9.666  0.4489  0.0038  0.3275
   17BDD     C114606  10.279   9.185   9.280  0.0439 -0.4898 -0.3645
   17BDD     C214607  10.152   9.223   9.244  0.0272 -0.3848 -0.1996
   17BDD     C314608  10.054   9.202   9.349  0.1886 -0.0770  0.0141
   17BDD     C414609  10.107   9.150   9.464  0.3256  0.0481  0.0091
   17BDD     S114610  10.283   9.122   9.448  0.2625 -0.2105 -0.2644
   17BDD     C514611  10.117   9.279   9.112 -0.1373 -0.5636 -0.2317
   17BDD     C614612   9.911   9.236   9.332  0.2010  0.0815  0.2162
   17BDD     O114613   9.826   9.218   9.422  0.3400  0.3469  0.4005
   17BDD     O214614  10.201   9.296   9.021 -0.2763 -0.8287 -0.4158
   17BDD     C714615   9.876   9.292   9.200  0.0360 -0.0970  0.1836
   17BDD     C814616   9.974   9.312   9.095 -0.1252 -0.4051 -0.0300
   17BDD     C914617   9.921   9.365   8.980 -0.2623 -0.5300 -0.0248
   17BDD     S214618   9.744   9.392   8.996 -0.1990 -0.2716  0.2484
   17BDD    C1014619   9.749   9.329   9.164  0.0196  0.0079  0.3486
   17BDD    C1114620   9.610   9.312   9.233 -0.4818 -0.9434 -0.3444
   17BDD    C1214621   9.507   9.208   9.172 -0.4330  0.1138 -0.2192
   17BDD    C1314622   9.444   9.252   9.035 -0.7460 -0.0176 -0.0583
   17BDD    C1414623   9.319   9.198   8.963 -0.7352 -0.5042  1.3539
   17BDD    C1514624   9.319   9.192   8.809  0.1941 -0.5343 -0.5192
   17BDD    C1614625   9.456   9.180   8.747  0.8536  0.9130  0.2728
   17BDD    C1714626   9.432   9.123   9.272  0.4573 -0.3836 -0.1399
   17BDD    C1814627   9.510   9.044   9.375 -0.4431  0.2138  0.1877
   17BDD    C1914628   9.992   9.452   8.874  0.4162 -0.4156  0.3987
   17BDD    C2014629   9.963   9.429   8.730 -0.5059 -0.6776 -1.3967
   17BDD    C2114630   9.817   9.416   8.668 -0.1101 -1.6352  1.6759
   17BDD    C2214631   9.795   9.374   8.519  0.4645  0.8825  0.7316
   17BDD    C2314632   9.675   9.434   8.455  0.3806 -0.3603  0.0876
   17BDD    C2414633   9.710   9.563   8.373  1.1637 -0.8774 -0.1951
   17BDD    C2514634  10.059   9.496   8.626 -0.2978  1.0064  0.0913
   17BDD    C2614635  10.197   9.429   8.590  0.6723  0.6064 -0.5381
   18TPM     C114636  10.413   9.196   9.212 -0.2825 -0.7235  0.6760
   18TPM     C214637  10.433   9.147   9.087 -0.8874 -1.5786  0.9024
   18TPM     C314638  10.572   9.128   9.053 -1.0417 -1.7354  0.3357
   18TPM     C414639  10.658   9.163   9.152 -0.5541 -1.0001 -0.3228
   18TPM     S114640  10.570   9.224   9.298  0.1431 -0.0451 -0.2780
   19BDTP    C114641  11.266   9.311   9.060  0.2568 -0.0691  0.7262
   19BDTP    C214642  11.224   9.400   9.163 -0.0818  0.3316  0.2558
   19BDTP    C314643  11.095   9.401   9.214 -0.2060  0.4208 -0.0603
   19BDTP    C414644  11.002   9.310   9.159  0.0136  0.0997  0.0937
   19BDTP    C514645  11.044   9.222   9.056  0.3524 -0.3016  0.5639
   19BDTP    C614646  11.173   9.221   9.006  0.4763 -0.3908  0.8801
   19BDTP    C714647  10.863   9.293   9.195 -0.0574  0.1176 -0.1700
   19BDTP    C814648  10.799   9.197   9.125  0.2079 -0.2460  0.0765
   19BDTP    S114649  10.906   9.115   9.003  0.5851 -0.6623  0.6769
   19BDTP    C914650  11.405   9.328   9.024  0.3278 -0.0873  0.9897
   19BDTP   C1014651  11.470   9.424   9.094  0.0625  0.2763  0.7434
   19BDTP    S214652  11.363   9.507   9.216 -0.3145  0.6929  0.1430
   20FTM     S114653  10.978   9.652   9.211  0.2987 -0.1027  0.0718
   20FTM     C114654  10.950   9.738   9.367  0.1943 -0.9378  0.5244
   20FTM     C214655  10.988   9.659   9.471  0.0799 -1.5204  0.1330
   20FTM     C314656  11.040   9.530   9.437  0.0663 -1.3571 -0.5262
   20FTM     C414657  11.042   9.509   9.302  0.1744 -0.6253 -0.6435
   20FTM     F114658  10.978   9.698   9.604 -0.0198 -2.2364  0.3488
   20FTM     C514659  10.886   9.870   9.358  0.6570 -0.5153 -0.0412
   20FTM     C614660  10.735   9.875   9.364  1.0203 -0.0595 -0.1995
   20FTM     C714661  10.627   9.783   9.298 -1.3601  1.0916  0.0743
   20FTM     C814662  10.652   9.740   9.158  0.3779  0.0492  2.3562
   20FTM     C914663  10.541   9.683   9.074 -0.3242 -0.1864  0.5733
   20FTM    C1014664  10.463   9.567   9.134 -0.0311  0.1615  0.9001
   20FTM    C1114665  10.669   9.921   9.493  0.8298 -0.4700 -0.0939
   20FTM    C1214666  10.717  10.059   9.531 -0.3626 -0.4014  0.4722
   21FTM     S114667  11.068   9.105   8.755  0.5477  0.5911 -0.4300
   21FTM     C114668  11.194   9.035   8.647  0.6317 -0.4529  0.3108
   21FTM     C214669  11.316   9.042   8.706  0.4690 -0.6649  0.6747
   21FTM     C314670  11.319   9.101   8.837  0.2737 -0.0434  0.4065
   21FTM     C414671  11.195   9.141   8.879  0.2874  0.6675 -0.1823
   21FTM     F114672  11.432   8.996   8.646  0.4869 -1.4343  1.2727
   21FTM     C514673  11.130   9.021   8.500 -0.7756  1.0899 -0.8301
   21FTM     C614674  11.009   8.910   8.479 -2.1115  0.4256  0.3803
   21FTM     C714675  10.896   8.897   8.577 -0.7049 -0.3937 -0.2495
   21FTM     C814676  10.783   8.997   8.589  1.2158 -0.8080 -0.5976
   21FTM     C914677  10.683   8.976   8.714 -1.2164 -1.5056  0.6471
   21FTM    C1014678  10.544   9.055   8.687 -0.1171  0.0667 -0.4947
   21FTM    C1114679  11.014   8.817   8.359  0.9496  0.0952  0.1944
   21FTM    C1214680  11.145   8.748   8.368  0.5990  0.1489  0.1750
   22TPM     C114681  11.594   9.484   9.070 -0.1296 -0.0319 -0.3636
   22TPM     C214682  11.663   9.580   9.138 -0.1120 -0.4041  0.1564
   22TPM     C314683  11.783   9.624   9.071  0.0288 -0.2415  0.5109
   22TPM     C414684  11.805   9.561   8.952  0.1186  0.2545  0.2616
   22TPM     S114685  11.676   9.441   8.915  0.0316  0.5570 -0.4459
   23BDD     C114686  12.155   9.573   8.764 -0.0473  0.0386  0.1596
   23BDD     C214687  12.060   9.597   8.669  0.0767  0.0486  0.0381
   23BDD     C314688  11.926   9.606   8.722  0.0198  0.1547 -0.1211
   23BDD     C414689  11.920   9.588   8.858 -0.1469  0.2239 -0.1194
   23BDD     S114690  12.082   9.559   8.928 -0.2441  0.1609  0.0830
   23BDD     C514691  12.090   9.613   8.525  0.2522 -0.0384  0.0644
   23BDD     C614692  11.808   9.631   8.637  0.1328  0.1838 -0.2699
   23BDD     O114693  11.691   9.639   8.683  0.0836  0.2749 -0.4075
   23BDD     O214694  12.206   9.605   8.479  0.3013 -0.1299  0.2017
   23BDD     C714695  11.837   9.647   8.493  0.3082  0.0963 -0.2441
   23BDD     C814696  11.972   9.638   8.440  0.3652 -0.0098 -0.0846
   23BDD     C914697  11.978   9.656   8.304  0.5319 -0.0789 -0.0863
   23BDD     S214698  11.815   9.684   8.234  0.6290 -0.0162 -0.2883
   23BDD    C1014699  11.742   9.671   8.398  0.4323  0.1063 -0.3650
   23BDD    C1114700  11.600   9.698   8.406 -0.4937  0.3749 -0.7670
   23BDD    C1214701  11.556   9.836   8.347  0.5997  0.3199 -1.5608
   23BDD    C1314702  11.584   9.981   8.402 -0.5329 -0.3599 -0.0278
   23BDD    C1414703  11.561  10.030   8.545 -0.7813  2.0453 -0.6066
   23BDD    C1514704  11.630  10.168   8.564  1.4899 -0.0446  1.3967
   23BDD    C1614705  11.513  10.235   8.630  0.0466 -0.7232 -0.5029
   23BDD    C1714706  11.402   9.822   8.370  0.1327 -1.2098  0.8181
   23BDD    C1814707  11.288   9.899   8.298 -0.4743 -1.3665  1.1979
   23BDD    C1914708  12.101   9.682   8.224 -0.2996 -0.1994  0.1696
   23BDD    C2014709  12.112   9.813   8.134  0.0809 -0.2390 -1.2608
   23BDD    C2114710  12.051   9.939   8.200 -0.3502  0.4300 -1.0013
   23BDD    C2214711  12.141   9.983   8.314  0.8187 -0.7099 -0.2011
   23BDD    C2314712  12.083  10.129   8.354 -0.6697 -0.5248  0.3511
   23BDD    C2414713  12.161  10.252   8.292 -0.9058 -0.2314  0.5688
   23BDD    C2514714  12.248   9.820   8.063  0.8846 -0.9844  0.4704
   23BDD    C2614715  12.261   9.924   7.933 -1.4196  0.4759  0.4265
   24TPM     C114716  12.293   9.531   8.757 -0.4551 -0.4678  0.3547
   24TPM     C214717  12.383   9.603   8.830 -0.6192 -0.4547  0.5462
   24TPM     C314718  12.508   9.535   8.852 -0.5130 -0.2823  0.4797
   24TPM     C414719  12.513   9.411   8.796 -0.2678 -0.1642  0.2370
   24TPM     S114720  12.360   9.370   8.710 -0.1512 -0.2619  0.0728
   25BDTP    C114721  13.032   9.130   8.586 -0.0872 -0.2773 -0.0186
   25BDTP    C214722  12.931   9.061   8.513 -0.2549 -0.0513 -0.0002
   25BDTP    C314723  12.795   9.085   8.531 -0.2047  0.0870  0.1895
   25BDTP    C414724  12.758   9.182   8.627  0.0214 -0.0007  0.3691
   25BDTP    C514725  12.859   9.250   8.700  0.1891 -0.2267  0.3502
   25BDTP    C614726  12.995   9.226   8.681  0.1389 -0.3649  0.1608
   25BDTP    C714727  12.624   9.224   8.663  0.1138  0.1107  0.5819
   25BDTP    C814728  12.620   9.319   8.759  0.3399 -0.0188  0.7219
   25BDTP    S114729  12.785   9.370   8.817  0.4676 -0.3004  0.6044
   25BDTP    C914730  13.166   9.087   8.549 -0.1796 -0.3886 -0.2313
   25BDTP   C1014731  13.170   8.992   8.453 -0.4057 -0.2587 -0.3717
   25BDTP    S214732  13.005   8.942   8.396 -0.5334  0.0222 -0.2540
   26FTM     S114733  12.543   8.963   8.480 -0.1584  0.0649  0.2952
   26FTM     C114734  12.496   8.965   8.306  0.0382  1.0078  0.2414
   26FTM     C214735  12.600   9.008   8.231  0.3748  0.7081  0.5286
   26FTM     C314736  12.720   9.041   8.302  0.4974 -0.2491  0.8008
   26FTM     C414737  12.707   9.023   8.436  0.2465 -0.6978  0.7201
   26FTM     F114738  12.594   9.020   8.093  0.5919  1.2834  0.5610
   26FTM     C514739  12.371   8.895   8.261 -0.4518 -0.2224 -0.0539
   26FTM     C614740  12.243   8.985   8.242 -0.5283  0.5544  0.2269
   26FTM     C714741  12.139   8.931   8.147  0.0797  1.0807  1.9550
   26FTM     C814742  12.185   8.928   8.000 -0.0569 -0.1891  0.7076
   26FTM     C914743  12.158   9.048   7.909 -0.9143 -1.1726 -1.1554
   26FTM    C1014744  12.019   9.109   7.895 -0.3479 -1.5116  1.3928
   26FTM    C1114745  12.201   9.029   8.381 -0.3840  1.0381  0.2231
   26FTM    C1214746  12.107   9.145   8.414  0.9840  0.5590 -0.1552
   27FTM     S114747  13.234   9.198   8.821 -0.3924 -0.1454  0.0916
   27FTM     C114748  13.318   9.350   8.870 -0.9837 -0.2169  1.4235
   27FTM     C214749  13.245   9.458   8.830 -0.7671 -0.1559  1.1868
   27FTM     C314750  13.123   9.429   8.761 -0.1434 -0.0527 -0.0157
   27FTM     C414751  13.101   9.295   8.747  0.1266 -0.0334 -0.7226
   27FTM     F114752  13.285   9.588   8.854 -1.1209 -0.1907  2.0452
   27FTM     C514753  13.469   9.339   8.914 -0.9373 -0.9834  0.4951
   27FTM     C614754  13.564   9.297   8.801 -0.2479 -0.3895 -1.1299
   27FTM     C714755  13.600   9.376   8.669 -1.1466  0.4139  1.0155
   27FTM     C814756  13.604   9.518   8.704  0.2683 -1.3275  0.2254
   27FTM     C914757  13.738   9.574   8.763  0.6531 -2.0021  0.3234
   27FTM    C1014758  13.748   9.613   8.904 -0.4504  0.1940 -1.3218
   27FTM    C1114759  13.542   9.147   8.792 -0.9561  0.3524  1.1798
   27FTM    C1214760  13.618   9.046   8.710 -1.0897 -0.0098  0.0853
   28TPM     C114761  13.285   8.926   8.416 -0.6135 -0.0920 -0.4027
   28TPM     C214762  13.394   8.966   8.344 -0.9025 -0.1979 -0.9072
   28TPM     C314763  13.494   8.864   8.330 -0.9606 -0.2203 -1.1683
   28TPM     C414764  13.462   8.746   8.391 -0.7158 -0.1309 -0.8627
   28TPM     S114765  13.301   8.756   8.472 -0.3904 -0.0114 -0.2169
   29BDD     C114766  13.738   8.487   8.282  0.2028 -0.1658 -0.5180
   29BDD     C214767  13.628   8.411   8.309  0.2328 -0.1650 -0.3953
   29BDD     C314768  13.514   8.488   8.354  0.3384 -0.1824 -0.0942
   29BDD     C414769  13.538   8.623   8.360  0.3876 -0.1959  0.0087
   29BDD     S114770  13.706   8.661   8.310  0.3048 -0.1879 -0.2644
   29BDD     C514771  13.623   8.264   8.295  0.1655 -0.1488 -0.5510
   29BDD     C614772  13.384   8.426   8.390  0.3869 -0.1850  0.0801
   29BDD     O114773  13.286   8.493   8.429  0.4780 -0.2000  0.3400
   29BDD     O214774  13.722   8.197   8.256  0.0745 -0.1340 -0.8109
   29BDD     C714775  13.380   8.279   8.376  0.3195 -0.1683 -0.0749
   29BDD     C814776  13.494   8.202   8.331  0.2140 -0.1509 -0.3762
   29BDD     C914777  13.469   8.067   8.324  0.1649 -0.1373 -0.4790
   29BDD     S214778  13.301   8.029   8.375  0.2477 -0.1456 -0.2059
   29BDD    C1014779  13.270   8.203   8.403  0.3496 -0.1676  0.0474
   29BDD    C1114780  13.123   8.249   8.435 -0.8345  2.2387 -0.1618
   29BDD    C1214781  13.020   8.226   8.318 -0.5187 -1.3263 -0.5427
   29BDD    C1314782  13.029   8.334   8.210 -1.1181  0.0180  0.0947
   29BDD    C1414783  12.990   8.475   8.243  0.7602 -0.9290  0.0517
   29BDD    C1514784  13.029   8.596   8.145 -0.7431  0.4077 -0.2640
   29BDD    C1614785  13.171   8.638   8.134 -1.0050 -0.0676 -0.0699
   29BDD    C1714786  12.949   8.101   8.280  0.3197  0.0051 -0.4843
   29BDD    C1814787  12.989   8.039   8.155 -1.5505 -0.8115  1.5225
   29BDD    C1914788  13.551   7.942   8.299  0.0035  0.3207 -0.6388
   29BDD    C2014789  13.682   7.941   8.386  0.5650 -0.4357  0.2211
   29BDD    C2114790  13.649   7.924   8.537  0.5360 -0.5112 -0.5683
   29BDD    C2214791  13.734   7.944   8.664  0.1786 -1.5945  0.6038
   29BDD    C2314792  13.644   7.970   8.784 -1.1483 -0.8391 -1.7428
   29BDD    C2414793  13.706   7.984   8.928 -0.3272  0.7912 -0.2895
   29BDD    C2514794  13.805   7.853   8.336 -0.1407 -0.2868  0.7471
   29BDD    C2614795  13.941   7.941   8.310  0.4671 -0.2183 -0.2597
   30TPM     C114796  13.877   8.470   8.255 -0.4556  0.2487  0.5430
   30TPM     C214797  13.934   8.380   8.170 -1.1920  0.7129 -0.4761
   30TPM     C314798  14.075   8.400   8.149 -1.2508  0.4742 -1.1544
   30TPM     C414799  14.126   8.505   8.219 -0.5594 -0.1717 -0.6526
   30TPM     S114800  13.999   8.588   8.317  0.2258 -0.5320  0.7267
   31BDTP    C114801  14.718   8.722   8.237 -0.3534  0.2592 -0.1876
   31BDTP    C214802  14.738   8.582   8.218 -0.3414  0.2351  0.0055
   31BDTP    C314803  14.633   8.492   8.212 -0.3331  0.2165  0.1383
   31BDTP    C414804  14.502   8.541   8.225 -0.3369  0.2222  0.0789
   31BDTP    C514805  14.482   8.681   8.244 -0.3489  0.2468 -0.1140
   31BDTP    C614806  14.587   8.772   8.250 -0.3571  0.2650 -0.2474
   31BDTP    C714807  14.378   8.467   8.223 -0.3302  0.2063  0.1909
   31BDTP    C814808  14.267   8.543   8.238 -0.3363  0.2177  0.0930
   31BDTP    S114809  14.304   8.720   8.258 -0.3516  0.2496 -0.1554
   31BDTP    C914810  14.842   8.797   8.240 -0.3602  0.2751 -0.2999
   31BDTP   C1014811  14.953   8.721   8.224 -0.3541  0.2642 -0.2019
   31BDTP    S214812  14.916   8.544   8.204 -0.3387  0.2321  0.0465
   32FTM     S114813  14.763   8.257   8.334 -0.7683 -0.2407  0.1559
   32FTM     C114814  14.736   8.099   8.252 -0.5370 -0.1788 -0.0412
   32FTM     C214815  14.646   8.115   8.151 -0.2760 -0.1085 -0.2666
   32FTM     C314816  14.594   8.247   8.132 -0.2405 -0.0994 -0.2995
   32FTM     C414817  14.646   8.336   8.222 -0.4825 -0.1643 -0.0921
   32FTM     F114818  14.605   8.010   8.070 -0.0535 -0.0486 -0.4573
   32FTM     C514819  14.855   8.013   8.278 -0.5242 -0.7062  0.4059
   32FTM     C614820  14.875   7.908   8.393 -0.1952  0.0546  0.0212
   32FTM     C714821  15.019   7.885   8.448  1.1649  0.3233  1.1520
   32FTM     C814822  15.141   7.863   8.386 -0.2159  0.0222  0.6149
   32FTM     C914823  15.270   7.869   8.485  1.3238  0.6597 -0.1131
   32FTM    C1014824  15.387   7.842   8.377  0.1461 -0.7643  0.4376
   32FTM    C1114825  14.783   7.795   8.421 -1.2367  0.1362 -0.5373
   32FTM    C1214826  14.664   7.856   8.477  0.6487 -0.1814  0.5376
   33FTM     S114827  14.627   9.036   8.334 -0.2968 -1.2872 -0.0919
   33FTM     C114828  14.563   9.169   8.232  0.7967 -0.6072  0.0746
   33FTM     C214829  14.492   9.118   8.128  1.2292  0.0920 -0.5865
   33FTM     C314830  14.484   8.975   8.122  0.7482  0.1409 -1.2462
   33FTM     C414831  14.550   8.915   8.224 -0.0796 -0.5439 -1.0855
   33FTM     F114832  14.430   9.198   8.033  2.0862  0.7298 -0.6325
   33FTM     C514833  14.611   9.312   8.235  0.5074  0.5681 -0.0576
   33FTM     C614834  14.685   9.400   8.121 -0.1374  0.7533 -0.7632
   33FTM     C714835  14.802   9.330   8.056  0.2253 -0.6978 -0.7615
   33FTM     C814836  14.776   9.191   7.971  0.4187  0.7814 -1.0052
   33FTM     C914837  14.900   9.126   7.910 -0.2580  0.5042  0.2766
   33FTM    C1014838  14.873   8.984   7.901  1.4553 -0.0537  0.4256
   33FTM    C1114839  14.715   9.548   8.173  0.2590  0.6015  1.4597
   33FTM    C1214840  14.601   9.631   8.149  0.9482 -1.2579 -0.3683
   34TPM     C114841  15.099   8.756   8.206 -0.2079  1.1847 -0.5838
   34TPM     C214842  15.185   8.667   8.149 -0.8638  0.6857 -0.8297
   34TPM     C314843  15.323   8.693   8.180 -0.6639 -0.5410 -0.6008
   34TPM     C414844  15.342   8.801   8.261  0.1442 -0.9771 -0.1801
   34TPM     S114845  15.186   8.880   8.304  0.7202  0.1365 -0.0392
   35BDD     C114846  15.592   8.945   8.527 -0.0217 -0.1699 -0.1804
   35BDD     C214847  15.653   8.832   8.480  0.0008 -0.1583 -0.1798
   35BDD     C314848  15.579   8.765   8.375  0.1068 -0.0677 -0.3135
   35BDD     C414849  15.461   8.828   8.343  0.1636 -0.0117 -0.4140
   35BDD     S114850  15.436   8.975   8.442  0.0882 -0.0687 -0.3486
   35BDD     C514851  15.783   8.782   8.530 -0.0744 -0.2294 -0.0563
   35BDD     C614852  15.627   8.641   8.310  0.1477 -0.0398 -0.3364
   35BDD     O114853  15.563   8.584   8.219  0.2391  0.0386 -0.4513
   35BDD     O214854  15.847   8.840   8.621 -0.1656 -0.3078  0.0589
   35BDD     C714855  15.756   8.591   8.360  0.0727 -0.1109 -0.2127
   35BDD     C814856  15.831   8.658   8.465 -0.0333 -0.2015 -0.0792
   35BDD     C914857  15.948   8.596   8.497 -0.0902 -0.2575  0.0212
   35BDD     S214858  15.973   8.448   8.397 -0.0149 -0.2006 -0.0444
   35BDD    C1014859  15.818   8.478   8.313  0.0949 -0.0992 -0.2122
   35BDD    C1114860  15.799   8.371   8.206  0.0199  0.0695 -0.5928
   35BDD    C1214861  15.663   8.289   8.168 -1.5204 -0.6772 -0.4435
   35BDD    C1314862  15.650   8.201   8.044  0.6879  0.0594  0.1333
   35BDD    C1414863  15.674   8.286   7.911 -0.7360 -0.3841  0.0872
   35BDD    C1514864  15.601   8.275   7.771  0.5816 -0.1834  0.1364
   35BDD    C1614865  15.616   8.140   7.705  0.5459 -0.2904 -0.0444
   35BDD    C1714866  15.569   8.219   8.274 -0.0101  1.2950 -1.0206
   35BDD    C1814867  15.547   8.288   8.408  0.6652  0.5818  0.8020
   35BDD    C1914868  16.067   8.620   8.588  0.3700 -1.1986 -0.5886
   35BDD    C2014869  16.043   8.594   8.739  0.7452 -1.2491  1.3161
   35BDD    C2114870  15.930   8.500   8.784  0.0163  0.1013 -0.5086
   35BDD    C2214871  15.957   8.380   8.893 -0.6270  0.4071  0.0491
   35BDD    C2314872  16.026   8.268   8.824  1.2284  0.0499 -0.8923
   35BDD    C2414873  16.180   8.276   8.794  0.7068  0.5403 -0.7201
   35BDD    C2514874  16.127   8.683   8.844 -0.4193 -0.5225 -0.7380
   35BDD    C2614875  16.042   8.802   8.917  0.1569  0.3368  0.1674
   36TPM     C114876  15.618   9.049   8.627  0.1553  0.1175 -0.0417
   36TPM     C214877  15.632   9.018   8.759  0.5050  0.2112 -0.0534
   36TPM     C314878  15.606   9.129   8.847  0.4250  0.1936 -0.0544
   36TPM     C414879  15.574   9.244   8.782  0.0142  0.0860 -0.0430
   36TPM     S114880  15.572   9.222   8.603 -0.3058 -0.0016 -0.0304
   37BDTP    C114881  15.244   9.710   9.042  0.0673  0.1025 -0.1614
   37BDTP    C214882  15.201   9.716   8.906  0.2095 -0.0093 -0.2112
   37BDTP    C314883  15.251   9.631   8.808  0.3135 -0.0889 -0.0899
   37BDTP    C414884  15.347   9.535   8.846  0.2758 -0.0570  0.0892
   37BDTP    C514885  15.390   9.530   8.982  0.1337  0.0553  0.1392
   37BDTP    C614886  15.340   9.615   9.080  0.0296  0.1348  0.0178
   37BDTP    C714887  15.413   9.437   8.762  0.3651 -0.1242  0.2382
   37BDTP    C814888  15.501   9.358   8.828  0.2978 -0.0691  0.3960
   37BDTP    S114889  15.514   9.398   9.005  0.1117  0.0761  0.3774
   37BDTP    C914890  15.178   9.809   9.125 -0.0220  0.1702 -0.3107
   37BDTP   C1014891  15.090   9.887   9.059  0.0454  0.1154 -0.4683
   37BDTP    S214892  15.077   9.848   8.882  0.2314 -0.0302 -0.4496
   38FTM     S114893  15.300   9.728   8.543  0.1344 -0.0102 -0.2184
   38FTM     C114894  15.171   9.698   8.420  0.0189  0.2542 -0.1635
   38FTM     C214895  15.069   9.627   8.476 -0.2043  0.6535 -0.0618
   38FTM     C314896  15.084   9.593   8.615 -0.2967  0.7753 -0.0219
   38FTM     C414897  15.202   9.639   8.666 -0.1392  0.4590 -0.0944
   38FTM     F114898  14.956   9.590   8.405 -0.3380  0.9327  0.0005
   38FTM     C514899  15.154   9.747   8.281  0.8039  1.3329 -0.8200
   38FTM     C614900  15.250   9.777   8.174 -1.8575  0.4605  0.9095
   38FTM     C714901  15.272   9.923   8.128 -0.6312  0.3307  0.9352
   38FTM     C814902  15.397  10.004   8.180 -0.4997 -0.4005 -0.3078
   38FTM     C914903  15.354  10.076   8.304 -0.0113  0.0926 -0.9588
   38FTM    C1014904  15.335  10.220   8.313  0.2255  0.1884 -0.2378
   38FTM    C1114905  15.246   9.676   8.047 -0.2621  0.1476 -0.5735
   38FTM    C1214906  15.323   9.537   8.061  0.1221  0.6661 -0.1338
   39FTM     S114907  15.264   9.551   9.352 -0.5399 -0.1511  0.1361
   39FTM     C114908  15.382   9.603   9.477 -0.5019  0.1076 -0.0065
   39FTM     C214909  15.495   9.651   9.418 -0.5085 -0.0403 -0.1385
   39FTM     C314910  15.496   9.649   9.274 -0.5430 -0.3555 -0.1366
   39FTM     C414911  15.381   9.599   9.222 -0.5632 -0.4527  0.0009
   39FTM     F114912  15.604   9.698   9.489 -0.4840  0.1016 -0.2687
   39FTM     C514913  15.338   9.641   9.619  0.0893 -0.6907 -0.2363
   39FTM     C614914  15.186   9.597   9.671  0.7102  0.4019 -0.4910
   39FTM     C714915  15.068   9.680   9.651  0.8018 -0.3576 -0.4853
   39FTM     C814916  15.077   9.830   9.703 -0.7733 -0.6526  1.1063
   39FTM     C914917  14.997   9.947   9.636  0.0609 -0.4546  0.0147
   39FTM    C1014918  15.023   9.968   9.489  0.0970  1.3225 -1.6538
   39FTM    C1114919  15.147   9.445   9.680 -1.2302  0.8213  0.6881
   39FTM    C1214920  15.226   9.383   9.786 -0.3711 -0.4948 -0.2744
   40TPM     C114921  14.983   9.970   9.099  0.0607 -0.0799  0.0992
   40TPM     C214922  14.981  10.095   9.155 -0.1550 -0.5996  1.3072
   40TPM     C314923  14.849  10.150   9.170 -0.2407 -0.8965  1.7145
   40TPM     C414924  14.750  10.069   9.124 -0.0905 -0.6035  0.8164
   40TPM     S114925  14.816   9.914   9.060  0.1730  0.0758 -0.6239
   41BDD     C114926  14.366  10.059   9.216 -0.2081 -0.0135 -0.3495
   41BDD     C214927  14.388  10.185   9.169 -0.0640 -0.0021 -0.2520
   41BDD     C314928  14.525  10.208   9.126 -0.0390 -0.1268 -0.2401
   41BDD     C414929  14.606  10.099   9.140 -0.1646 -0.2309 -0.3282
   41BDD     S114930  14.516   9.959   9.209 -0.3225 -0.1802 -0.4327
   41BDD     C514931  14.284  10.290   9.163  0.0563  0.1233 -0.1667
   41BDD     C614932  14.571  10.338   9.073  0.1084 -0.1378 -0.1416
   41BDD     O114933  14.689  10.358   9.035  0.1299 -0.2451 -0.1311
   41BDD     O214934  14.166  10.270   9.200  0.0348  0.2306 -0.1769
   41BDD     C714935  14.467  10.443   9.066  0.2286 -0.0122 -0.0563
   41BDD     C814936  14.330  10.420   9.109  0.2037  0.1123 -0.0684
   41BDD     C914937  14.250  10.530   9.095  0.3294  0.2170  0.0196
   41BDD     S214938  14.339  10.669   9.027  0.4873  0.1665  0.1236
   41BDD    C1014939  14.489  10.570   9.020  0.3729 -0.0007  0.0405
   41BDD    C1114940  14.594  10.647   8.937 -0.5310 -0.1360  0.5418
   41BDD    C1214941  14.641  10.784   8.975  0.4748  0.0155  0.9059
   41BDD    C1314942  14.708  10.780   9.105 -0.7818  0.4922 -0.2020
   41BDD    C1414943  14.629  10.846   9.216 -0.2491  0.0934 -0.8747
   41BDD    C1514944  14.685  10.972   9.282 -0.3473  0.1820  0.6286
   41BDD    C1614945  14.840  11.003   9.292 -0.6604 -0.0586 -0.5263
   41BDD    C1714946  14.755  10.848   8.871  2.5950  0.7377 -0.9123
   41BDD    C1814947  14.749  10.866   8.711  0.3153  0.8547 -0.6844
   41BDD    C1914948  14.091  10.540   9.078  0.2998 -0.2351  1.1273
   41BDD    C2014949  13.996  10.642   9.158 -0.9196  1.4893  0.2312
   41BDD    C2114950  13.937  10.558   9.278 -0.4799  0.3175 -0.4660
   41BDD    C2214951  14.041  10.512   9.382  0.1126  1.0657 -0.0391
   41BDD    C2314952  14.000  10.405   9.498  0.1725  0.0069 -0.2407
   41BDD    C2414953  13.858  10.428   9.560 -0.3952  0.3643 -2.8076
   41BDD    C2514954  13.884  10.684   9.081 -0.2687 -0.6784 -0.0224
   41BDD    C2614955  13.865  10.818   8.999  1.8717 -0.5010 -0.1592
   42TPM     C114956  14.248   9.986   9.258 -0.0195  1.1188 -0.6569
   42TPM     C214957  14.247   9.895   9.359  0.3432  1.5266 -0.2732
   42TPM     C314958  14.119   9.830   9.377  0.5612  1.1840  0.0749
   42TPM     C414959  14.024   9.872   9.289  0.3647  0.5149 -0.0436
   42TPM     S114960  14.088   9.998   9.177 -0.1146  0.2634 -0.6084
   43BDTP    C114961  13.392   9.800   9.301 -0.1710  0.0770  0.0205
   43BDTP    C214962  13.440   9.668   9.328 -0.0893  0.1090  0.0350
   43BDTP    C314963  13.575   9.638   9.339 -0.0705  0.1948  0.0432
   43BDTP    C414964  13.668   9.742   9.322 -0.1354  0.2518  0.0365
   43BDTP    C514965  13.620   9.874   9.295 -0.2171  0.2193  0.0217
   43BDTP    C614966  13.485   9.904   9.284 -0.2359  0.1336  0.0137
   43BDTP    C714967  13.812   9.735   9.328 -0.1311  0.3430  0.0422
   43BDTP    C814968  13.875   9.854   9.307 -0.2047  0.3803  0.0329
   43BDTP    S114969  13.759   9.991   9.277 -0.2898  0.3049  0.0150
   43BDTP    C914970  13.248   9.807   9.295 -0.1753 -0.0145  0.0143
   43BDTP   C1014971  13.185   9.688   9.316 -0.1017 -0.0520  0.0238
   43BDTP    S214972  13.301   9.551   9.346 -0.0166  0.0232  0.0417
   44FTM     S114973  13.751   9.419   9.290 -0.3779  0.7138 -0.1713
   44FTM     C114974  13.736   9.287   9.411 -0.4359  0.5585 -0.3469
   44FTM     C214975  13.636   9.315   9.499 -0.4231  0.4871 -0.3095
   44FTM     C314976  13.566   9.438   9.477 -0.3686  0.5472 -0.1459
   44FTM     C414977  13.614   9.507   9.369 -0.3388  0.6690 -0.0550
   44FTM     F114978  13.602   9.231   9.603 -0.4598  0.3624 -0.4213
   44FTM     C514979  13.858   9.198   9.408  0.5941  0.3349  0.5602
   44FTM     C614980  13.969   9.229   9.517 -0.1505 -0.4302 -0.5378
   44FTM     C714981  14.107   9.184   9.468  1.1817 -1.0781  0.3581
   44FTM     C814982  14.201   9.292   9.400  0.7013  0.9412 -1.4440
   44FTM     C914983  14.316   9.216   9.326  0.1979  1.0115 -0.8739
   44FTM    C1014984  14.407   9.310   9.280 -0.1914  0.4142  0.3967
   44FTM    C1114985  13.965   9.362   9.615 -0.7591  0.8140 -1.2429
   44FTM    C1214986  14.074   9.387   9.726  0.7747  0.1489  0.1471
   45FTM     S114987  13.459  10.146   9.444  0.2720  0.0752  0.1492
   45FTM     C114988  13.412  10.303   9.368 -0.1057 -0.0624  0.0954
   45FTM     C214989  13.387  10.284   9.236 -0.1516 -0.1843  0.1211
   45FTM     C314990  13.402  10.151   9.186  0.0982 -0.1788  0.1824
   45FTM     C414991  13.441  10.064   9.284  0.3432 -0.0479  0.2042
   45FTM     F114992  13.348  10.388   9.151 -0.4224 -0.3085  0.0906
   45FTM     C514993  13.392  10.440   9.433 -0.9493  0.6462 -0.8290
   45FTM     C614994  13.267  10.463   9.520  0.2546 -0.2040  1.0703
   45FTM     C714995  13.248  10.597   9.590 -0.8765  0.4584  1.2525
   45FTM     C814996  13.365  10.611   9.687 -0.2621 -0.7118  1.5376
   45FTM     C914997  13.346  10.618   9.836  0.8056  0.5545 -0.7060
   45FTM    C1014998  13.222  10.554   9.898  1.2554 -0.4856 -0.3271
   45FTM    C1114999  13.159  10.356   9.523  0.0424 -0.9677 -0.8948
   45FTM    C1215000  13.015  10.422   9.495 -1.4445 -0.6700  0.1709
   46TPM     C115001  13.042   9.683   9.319  0.3175 -0.8462  0.2545
   46TPM     C215002  12.943   9.768   9.280  0.7276 -0.4723  0.0222
   46TPM     C315003  12.811   9.711   9.285  0.4880  0.0415 -0.2284
   46TPM     C415004  12.809   9.582   9.329 -0.1048  0.0598 -0.1869
   46TPM     S115005  12.975   9.522   9.367 -0.4087 -0.5758  0.1753
   47BDD     C115006  12.581   9.290   9.193  0.0423  0.1379 -0.0332
   47BDD     C215007  12.490   9.374   9.251 -0.0043  0.0620  0.0041
   47BDD     C315008  12.551   9.487   9.320 -0.0564 -0.0837  0.2887
   47BDD     C415009  12.687   9.486   9.314 -0.0489 -0.1166  0.4636
   47BDD     S115010  12.749   9.345   9.222  0.0239  0.0317  0.2849
   47BDD     C515011  12.343   9.355   9.244 -0.0025  0.1209 -0.2198
   47BDD     C615012  12.471   9.590   9.389 -0.1118 -0.1843  0.3762
   47BDD     O115013  12.524   9.687   9.449 -0.1568 -0.3099  0.6213
   47BDD     O215014  12.291   9.258   9.184  0.0425  0.2468 -0.4652
   47BDD     C715015  12.325   9.571   9.383 -0.1100 -0.1254  0.1521
   47BDD     C815016  12.264   9.459   9.313 -0.0579  0.0203 -0.1323
   47BDD     C915017  12.127   9.459   9.319 -0.0654  0.0534 -0.3071
   47BDD     S215018  12.066   9.600   9.411 -0.1383 -0.0953 -0.1283
   47BDD    C1015019  12.234   9.655   9.440 -0.1566 -0.2012  0.1900
   47BDD    C1115020  12.236   9.794   9.512 -0.2324  0.0935 -0.1147
   47BDD    C1215021  12.222   9.930   9.419 -1.2992  0.9643 -1.2056
   47BDD    C1315022  12.085   9.918   9.354 -0.1446 -1.0595  0.2995
   47BDD    C1415023  12.037  10.045   9.281 -0.2514  1.9155 -0.0028
   47BDD    C1515024  11.988  10.175   9.351 -0.1995  0.4444  1.1103
   47BDD    C1615025  12.015  10.304   9.254 -0.9171  0.5074 -0.1980
   47BDD    C1715026  12.348   9.978   9.345  1.0947 -0.5489 -0.5236
   47BDD    C1815027  12.412   9.889   9.239 -0.2012  1.0998 -0.4560
   47BDD    C1915028  12.019   9.390   9.240  0.6635 -0.7683 -0.6359
   47BDD    C2015029  11.948   9.261   9.299 -0.7588 -0.8127 -0.3739
   47BDD    C2115030  12.060   9.151   9.337  0.9698  0.4126  0.0279
   47BDD    C2215031  11.997   9.019   9.378  0.1156 -0.5991  0.4626
   47BDD    C2315032  12.090   8.906   9.320  0.2203  0.8510  0.4800
   47BDD    C2415033  11.998   8.790   9.279  0.7178  0.4100  0.8891
   47BDD    C2515034  11.853   9.278   9.421  1.2517 -0.1988  0.6546
   47BDD    C2615035  11.710   9.234   9.392  0.3514  0.3646  1.0516
   48TPM     C115036  12.568   9.151   9.143  0.3729 -0.5910  0.0556
   48TPM     C215037  12.615   9.056   9.229  0.6652 -0.6108 -0.1216
   48TPM     C315038  12.564   8.924   9.204  0.6872 -0.6301 -0.0653
   48TPM     C415039  12.478   8.918   9.098  0.4116 -0.6256  0.1544
   48TPM     S115040  12.455   9.080   9.022  0.1006 -0.5954  0.3091
   49BDTP    C115041  12.257   8.364   8.910  0.2921  0.0548 -0.1552
   49BDTP    C215042  12.284   8.343   9.048  0.0016  0.0803 -0.0949
   49BDTP    C315043  12.336   8.441   9.131  0.0066  0.0379 -0.0472
   49BDTP    C415044  12.363   8.567   9.074  0.3123 -0.0331 -0.0589
   49BDTP    C515045  12.337   8.588   8.936  0.6028 -0.0587 -0.1192
   49BDTP    C615046  12.285   8.490   8.853  0.5978 -0.0164 -0.1670
   49BDTP    C715047  12.418   8.685   9.140  0.3786 -0.0874 -0.0169
   49BDTP    C815048  12.433   8.792   9.058  0.7008 -0.1514 -0.0420
   49BDTP    S115049  12.381   8.759   8.887  0.9655 -0.1521 -0.1230
   49BDTP    C915050  12.203   8.247   8.844  0.2258  0.1090 -0.1976
   49BDTP   C1015051  12.188   8.140   8.926 -0.0964  0.1729 -0.1721
   49BDTP    S215052  12.240   8.172   9.097 -0.3611  0.1739 -0.0914
   50FTM     S115053  12.269   8.480   9.412  0.3917 -0.6732 -0.4740
   50FTM     C115054  12.388   8.411   9.528  0.7886 -0.6325 -0.8508
   50FTM     C215055  12.486   8.345   9.461  1.0808  0.1428 -1.2102
   50FTM     C315056  12.475   8.344   9.318  1.0153  0.7384 -1.2140
   50FTM     C415057  12.365   8.412   9.275  0.6615  0.4082 -0.8457
   50FTM     F115058  12.592   8.282   9.524  1.4248  0.3595 -1.5569
   50FTM     C515059  12.370   8.476   9.669  0.2916  0.7437  1.0885
   50FTM     C615060  12.468   8.464   9.773 -1.7547  0.5077 -0.5859
   50FTM     C715061  12.626   8.494   9.751 -0.6263 -0.0048  0.1597
   50FTM     C815062  12.652   8.622   9.663 -0.5530  0.4107  0.6123
   50FTM     C915063  12.775   8.631   9.577 -0.2546  0.7468 -0.1214
   50FTM    C1015064  12.830   8.509   9.506 -1.0155  0.4353 -0.5349
   50FTM    C1115065  12.420   8.539   9.900 -1.0210  0.8349  0.3883
   50FTM    C1215066  12.453   8.467  10.027  0.0623 -0.4388  0.1538
   51FTM     S115067  12.368   8.431   8.568  0.1032  0.2159  0.2363
   51FTM     C115068  12.281   8.526   8.444 -0.1190 -0.1331  0.1225
   51FTM     C215069  12.198   8.617   8.504 -0.3215 -0.2446  0.0153
   51FTM     C315070  12.199   8.617   8.647 -0.3163 -0.0691  0.0153
   51FTM     C415071  12.284   8.524   8.698 -0.1028  0.1848  0.1261
   51FTM     F115072  12.118   8.704   8.432 -0.5236 -0.5116 -0.0892
   51FTM     C515073  12.279   8.480   8.311  0.0703 -0.2820 -1.0392
   51FTM     C615074  12.400   8.403   8.253  0.2092 -0.5960  0.0896
   51FTM     C715075  12.544   8.472   8.221 -0.4674 -0.3539 -0.9709
   51FTM     C815076  12.576   8.596   8.316  0.4376  1.1517 -1.3606
   51FTM     C915077  12.705   8.575   8.398 -0.4045  0.1416  0.0028
   51FTM    C1015078  12.686   8.630   8.541  0.6418  0.2629 -0.1325
   51FTM    C1115079  12.375   8.261   8.265 -0.9856  0.1030  0.2118
   51FTM    C1215080  12.403   8.169   8.144 -1.0073  0.6247 -1.2161
   52TPM     C115081  12.131   8.012   8.883  1.1309  0.2989  0.0104
   52TPM     C215082  12.062   7.935   8.972  1.2146  0.7201  0.4518
   52TPM     C315083  12.010   7.813   8.914  0.5202  0.7969  0.8984
   52TPM     C415084  12.039   7.798   8.782 -0.0929  0.4337  0.7975
   52TPM     S115085  12.135   7.937   8.719  0.1611 -0.0369  0.1252
   53BDD     C115086  12.092   7.437   8.643  0.0923 -0.3009  0.3531
   53BDD     C215087  11.957   7.457   8.640  0.1037 -0.2488  0.0980
   53BDD     C315088  11.917   7.587   8.692  0.0751 -0.1174 -0.2449
   53BDD     C415089  12.023   7.664   8.734  0.0424 -0.0715 -0.2466
   53BDD     S115090  12.179   7.579   8.710  0.0451 -0.1891  0.1812
   53BDD     C515091  11.860   7.358   8.590  0.1412 -0.3176  0.1607
   53BDD     C615092  11.776   7.630   8.699  0.0813 -0.0424 -0.5579
   53BDD     O115093  11.742   7.742   8.744  0.0566  0.0707 -0.8535
   53BDD     O215094  11.894   7.247   8.545  0.1658 -0.4308  0.4561
   53BDD     C715095  11.679   7.531   8.649  0.1188 -0.1115 -0.4957
   53BDD     C815096  11.719   7.401   8.597  0.1474 -0.2426 -0.1528
   53BDD     C915097  11.613   7.325   8.556  0.1801 -0.2886 -0.1512
   53BDD     S215098  11.457   7.409   8.579  0.1773 -0.1708 -0.5786
   53BDD    C1015099  11.543   7.551   8.647  0.1301 -0.0592 -0.7503
   53BDD    C1115100  11.450   7.670   8.662  0.5305  1.9254  1.4485
   53BDD    C1215101  11.313   7.648   8.738 -0.6782  0.3317 -0.4318
   53BDD    C1315102  11.197   7.618   8.648  0.4354 -0.0796 -0.7659
   53BDD    C1415103  11.151   7.699   8.526 -1.2072  0.1655 -0.0984
   53BDD    C1515104  11.041   7.644   8.447 -1.0503 -0.7505  0.0924
   53BDD    C1615105  11.095   7.529   8.366  0.0251  0.2167 -0.2519
   53BDD    C1715106  11.286   7.736   8.870  1.1270 -1.1678  0.2651
   53BDD    C1815107  11.242   7.883   8.838  0.3169 -1.0150  1.0697
   53BDD    C1915108  11.597   7.187   8.496  0.2706  0.9512 -0.2059
   53BDD    C2015109  11.609   7.161   8.333  1.1143  0.1588  0.1015
   53BDD    C2115110  11.547   7.239   8.220  0.0936  0.2657  0.4692
   53BDD    C2215111  11.515   7.391   8.232 -0.5185  1.9299 -0.7107
   53BDD    C2315112  11.617   7.494   8.227 -0.5981 -1.0365  1.7687
   53BDD    C2415113  11.556   7.636   8.204 -0.0243 -0.5005  0.1091
   53BDD    C2515114  11.597   7.015   8.293  0.2869  0.9460  0.8778
   53BDD    C2615115  11.455   6.954   8.324 -0.5450  1.2838  0.9270
   54TPM     C115116  12.192   7.324   8.596  0.1891 -0.0571  0.6127
   54TPM     C215117  12.326   7.343   8.611  0.1853 -0.4078  1.1599
   54TPM     C315118  12.406   7.240   8.552  0.1633 -0.3415  1.0140
   54TPM     C415119  12.333   7.141   8.491  0.1504  0.0596  0.3557
   54TPM     S115120  12.156   7.172   8.505  0.1651  0.3874 -0.1353
   55BDTP    C115121  12.635   6.610   8.388  0.4788  0.0077 -0.1893
   55BDTP    C215122  12.499   6.569   8.389  0.5124 -0.1056 -0.2213
   55BDTP    C315123  12.394   6.659   8.398  0.4348 -0.1916 -0.2627
   55BDTP    C415124  12.424   6.796   8.407  0.3185 -0.1646 -0.2744
   55BDTP    C515125  12.561   6.837   8.406  0.2849 -0.0513 -0.2432
   55BDTP    C615126  12.666   6.747   8.396  0.3624  0.0349 -0.2012
   55BDTP    C715127  12.332   6.907   8.417  0.2227 -0.2394 -0.3158
   55BDTP    C815128  12.392   7.029   8.424  0.1201 -0.1882 -0.3171
   55BDTP    S115129  12.574   7.019   8.418  0.1304 -0.0380 -0.2658
   55BDTP    C915130  12.727   6.498   8.377  0.5745  0.0826 -0.1483
   55BDTP   C1015131  12.667   6.377   8.370  0.6772  0.0314 -0.1471
   55BDTP    S215132  12.486   6.387   8.376  0.6669 -0.1187 -0.1980
   56FTM     S115133  12.159   6.529   8.261  0.0583  0.3111 -0.1479
   56FTM     C115134  12.011   6.514   8.363  0.5010 -0.9249  0.3338
   56FTM     C215135  12.033   6.570   8.485  0.7435 -1.6302  0.6256
   56FTM     C315136  12.163   6.627   8.505  0.6033 -1.2612  0.4952
   56FTM     C415137  12.243   6.615   8.396  0.2415 -0.2401  0.0907
   56FTM     F115138  11.938   6.572   8.585  1.1069 -2.6519  1.0276
   56FTM     C515139  11.886   6.450   8.331  0.2500 -0.1861 -0.7488
   56FTM     C615140  11.891   6.317   8.252  1.2900  0.1581  0.5268
   56FTM     C715141  11.998   6.211   8.282  0.0271  0.2849  0.2510
   56FTM     C815142  12.023   6.146   8.428 -0.3840 -0.7574  1.2200
   56FTM     C915143  11.910   6.050   8.496 -0.8097 -1.4497 -0.2251
   56FTM    C1015144  11.807   6.135   8.570  0.6443  0.1953  0.3954
   56FTM    C1115145  11.755   6.242   8.252  0.1383  0.2639 -0.7426
   56FTM    C1215146  11.727   6.123   8.159 -0.7238  0.8107  0.2742
   57FTM     S115147  12.902   6.776   8.273 -0.4371 -0.1684  0.1333
   57FTM     C115148  13.039   6.849   8.364 -0.2407  0.1998 -0.4446
   57FTM     C215149  13.002   6.872   8.493  0.1402  0.3986 -0.3681
   57FTM     C315150  12.868   6.835   8.527  0.2986  0.2794  0.1328
   57FTM     C415151  12.800   6.782   8.422  0.0303 -0.0203  0.4502
   57FTM     F115152  13.088   6.927   8.587  0.3679  0.7002 -0.7470
   57FTM     C515153  13.147   6.874   8.286 -1.1047  0.2924  1.2029
   57FTM     C615154  13.284   6.849   8.340  0.1520 -1.5756 -1.6296
   57FTM     C715155  13.333   6.712   8.415  1.2615  0.2574  0.3012
   57FTM     C815156  13.277   6.584   8.350  0.0280 -0.1467  0.8032
   57FTM     C915157  13.236   6.463   8.430 -0.7205 -0.2142 -0.1210
   57FTM    C1015158  13.095   6.465   8.462  0.0229 -0.1542 -0.1241
   57FTM    C1115159  13.385   6.897   8.234 -0.4689  0.2150  0.7994
   57FTM    C1215160  13.531   6.928   8.279  0.5855  0.2195  0.1415
   58TPM     C115161  12.721   6.242   8.369 -0.2946  0.1603  0.4027
   58TPM     C215162  12.676   6.134   8.298 -0.6239  0.1913  0.5584
   58TPM     C315163  12.743   6.011   8.331 -0.4067  0.1925  0.1400
   58TPM     C415164  12.838   6.024   8.428  0.0883  0.1622 -0.3342
   58TPM     S115165  12.852   6.195   8.485  0.3203  0.1296 -0.2893
   59BDD     C115166  13.180   5.843   8.443  0.3026 -0.0314  0.1227
   59BDD     C215167  13.085   5.745   8.450  0.2677 -0.0044  0.0234
   59BDD     C315168  12.949   5.797   8.443  0.2889  0.0318 -0.1490
   59BDD     C415169  12.943   5.933   8.432  0.3397  0.0314 -0.1788
   59BDD     S115170  13.107   6.006   8.428  0.3645 -0.0139  0.0069
   59BDD     C515171  13.115   5.601   8.462  0.2135 -0.0105  0.0834
   59BDD     C615172  12.830   5.709   8.449  0.2580  0.0651 -0.2780
   59BDD     O115173  12.713   5.754   8.443  0.2764  0.0961 -0.4268
   59BDD     O215174  13.231   5.556   8.467  0.1952 -0.0416  0.2322
   59BDD     C715175  12.860   5.565   8.461  0.2038  0.0589 -0.2179
   59BDD     C815176  12.996   5.513   8.468  0.1826  0.0230 -0.0455
   59BDD     C915177  13.002   5.377   8.479  0.1318  0.0231 -0.0157
   59BDD     S215178  12.838   5.304   8.483  0.1070  0.0686 -0.2014
   59BDD    C1015179  12.765   5.467   8.468  0.1689  0.0861 -0.3171
   59BDD    C1115180  12.615   5.476   8.459  0.0006  0.6743 -0.7850
   59BDD    C1215181  12.554   5.488   8.329  0.7866 -0.6180  0.5124
   59BDD    C1315182  12.613   5.454   8.184  0.0583  0.5386 -0.1141
   59BDD    C1415183  12.670   5.567   8.110 -0.1961 -0.0016  1.3043
   59BDD    C1515184  12.599   5.654   8.008  0.2118  0.5332  0.3299
   59BDD    C1615185  12.687   5.746   7.937 -1.3270  0.9926  0.0526
   59BDD    C1715186  12.416   5.535   8.360 -0.3041  0.1264 -0.0063
   59BDD    C1815187  12.309   5.423   8.344 -0.8865 -0.3414  1.4183
   59BDD    C1915188  13.098   5.274   8.501  0.0947  0.7448 -0.2295
   59BDD    C2015189  13.123   5.264   8.653 -0.0919  0.2164 -0.1424
   59BDD    C2115190  13.233   5.342   8.729  0.1367 -0.2684 -0.9434
   59BDD    C2215191  13.219   5.409   8.865  0.7707 -0.7616 -0.9829
   59BDD    C2315192  13.120   5.352   8.971  0.6980 -1.0773 -0.5435
   59BDD    C2415193  13.136   5.451   9.093  0.3633 -1.5965  0.3583
   59BDD    C2515194  13.128   5.120   8.720  0.2611 -0.4247  1.0595
   59BDD    C2615195  13.158   4.998   8.626  0.8149 -1.3558 -1.9334
   60TPM     C115196  13.327   5.857   8.466 -0.1991  0.8929  0.2358
   60TPM     C215197  13.416   5.769   8.413 -0.3169  0.9023  0.0200
   60TPM     C315198  13.553   5.808   8.429 -0.2620  0.6578  0.1616
   60TPM     C415199  13.569   5.927   8.494 -0.1023  0.4621  0.4856
   60TPM     S115200  13.411   5.999   8.540 -0.0081  0.5720  0.6381
    1BDTP    C115201   3.167  10.835   0.015 -0.1646 -0.3152  0.2290
    1BDTP    C215202   3.024  10.829   0.023 -0.1711 -0.1972  0.1981
    1BDTP    C315203   2.948  10.929   0.082 -0.1110 -0.0672  0.0588
    1BDTP    C415204   3.016  11.039   0.137 -0.0408 -0.0532 -0.0556
    1BDTP    C515205   3.158  11.045   0.130 -0.0344 -0.1714 -0.0247
    1BDTP    C615206   3.234  10.945   0.070 -0.0945 -0.3009  0.1146
    1BDTP    C715207   2.958  11.155   0.204  0.0293  0.0707 -0.2084
    1BDTP    C815208   3.050  11.245   0.246  0.0875  0.0515 -0.2927
    1BDTP    S115209   3.221  11.198   0.208  0.0616 -0.1259 -0.1903
    1BDTP    C915210   3.224  10.719  -0.051 -0.2348 -0.4392  0.3819
    1BDTP   C1015211   3.133  10.629  -0.094 -0.2930 -0.4201  0.4663
    1BDTP    S215212   2.961  10.676  -0.055 -0.2672 -0.2426  0.3635
    2FTM     S115213   2.757  10.866   0.282  0.1817  0.1311 -0.3301
    2FTM     C115214   2.590  10.919   0.239  0.3989  0.9011 -0.2517
    2FTM     C215215   2.584  10.953   0.108  0.6102  1.4174 -0.1317
    2FTM     C315216   2.706  10.941   0.034  0.6159  1.2500 -0.0942
    2FTM     C415217   2.809  10.895   0.111  0.4021  0.5836 -0.1887
    2FTM     F115218   2.468  10.998   0.046  0.8109  2.0726 -0.0486
    2FTM     C515219   2.466  10.922   0.327 -0.5517  0.1124 -1.4170
    2FTM     C615220   2.414  11.053   0.399  0.5911  1.6976  0.5896
    2FTM     C715221   2.513  11.063   0.510 -0.2605  1.1640 -1.1334
    2FTM     C815222   2.621  11.168   0.520 -0.6600  0.2958  1.3013
    2FTM     C915223   2.687  11.151   0.667  0.1566 -1.1858 -1.7140
    2FTM    C1015224   2.669  11.295   0.729 -1.0276  0.2313 -0.0428
    2FTM    C1115225   2.285  11.039   0.469  1.0301  0.1029  0.4526
    2FTM    C1215226   2.168  11.084   0.391  0.1497 -0.1086 -0.2992
    3FTM     S115227   3.431  11.027  -0.092 -0.1978  0.1868 -0.3526
    3FTM     C115228   3.605  11.011  -0.050 -0.2835  0.0377 -0.0506
    3FTM     C215229   3.618  10.952   0.072 -0.5341 -0.3955 -0.2291
    3FTM     C315230   3.496  10.916   0.138 -0.6715 -0.6325 -0.6018
    3FTM     C415231   3.386  10.949   0.065 -0.5213 -0.3718 -0.7129
    3FTM     F115232   3.741  10.927   0.131 -0.6539 -0.6039 -0.0648
    3FTM     C515233   3.729  11.046  -0.142 -1.1474  0.1598  1.4641
    3FTM     C615234   3.877  10.994  -0.128 -0.9052  1.2709 -0.3859
    3FTM     C715235   3.926  10.855  -0.160 -0.0030  0.1268  0.2090
    3FTM     C815236   3.895  10.812  -0.308 -0.6706  0.7111  1.7035
    3FTM     C915237   3.952  10.888  -0.440 -0.4038  1.5083  0.6698
    3FTM    C1015238   3.948  10.838  -0.572 -0.6322  1.5321  0.3415
    3FTM    C1115239   3.980  11.095  -0.059  0.8822  0.4128 -1.0906
    3FTM    C1215240   4.066  11.015   0.053  1.2081 -0.5260 -0.8216
    4TPM     C115241   3.166  10.500  -0.148 -0.0273  0.3205  0.3727
    4TPM     C215242   3.263  10.452  -0.230  0.4331  0.5639  0.7658
    4TPM     C315243   3.258  10.309  -0.249  0.7767  0.5696  0.6263
    4TPM     C415244   3.157  10.248  -0.181  0.5783  0.3305  0.1273
    4TPM     S115245   3.059  10.367  -0.087 -0.0629  0.0775 -0.2083
    5BDD     C115246   2.943   9.928  -0.302 -0.3132 -0.1347 -0.1458
    5BDD     C215247   3.073   9.886  -0.291 -0.3128 -0.1411 -0.1767
    5BDD     C315248   3.165   9.991  -0.253 -0.3243 -0.1845 -0.0279
    5BDD     C415249   3.104  10.112  -0.235 -0.3333 -0.2105  0.1139
    5BDD     S115250   2.927  10.102  -0.264 -0.3279 -0.1822  0.0713
    5BDD     C515251   3.117   9.747  -0.317 -0.3020 -0.1085 -0.3440
    5BDD     C615252   3.310   9.968  -0.236 -0.3261 -0.1991 -0.0324
    5BDD     O115253   3.389  10.059  -0.203 -0.3361 -0.2367  0.0958
    5BDD     O215254   3.037   9.656  -0.350 -0.2920 -0.0710 -0.4721
    5BDD     C715255   3.354   9.829  -0.262 -0.3152 -0.1657 -0.1996
    5BDD     C815256   3.262   9.724  -0.300 -0.3037 -0.1225 -0.3483
    5BDD     C915257   3.322   9.603  -0.318 -0.2949 -0.0966 -0.4902
    5BDD     S215258   3.499   9.612  -0.289 -0.3003 -0.1249 -0.4475
    5BDD    C1015259   3.483   9.787  -0.251 -0.3151 -0.1721 -0.2303
    5BDD    C1115260   3.616   9.855  -0.199  0.1265 -0.5186  1.9040
    5BDD    C1215261   3.700   9.914  -0.310 -0.7205 -0.9860 -0.2302
    5BDD    C1315262   3.747  10.068  -0.306  0.2462  0.3729  0.1313
    5BDD    C1415263   3.719  10.177  -0.410  0.9290 -0.0882  0.3136
    5BDD    C1515264   3.574  10.199  -0.453  0.1875 -0.2222  0.3187
    5BDD    C1615265   3.515  10.132  -0.569  1.3734 -0.9191  0.3097
    5BDD    C1715266   3.727   9.857  -0.440 -0.5183  0.3752 -0.7887
    5BDD    C1815267   3.846   9.881  -0.533 -1.4939 -0.6222 -0.0812
    5BDD    C1915268   3.278   9.464  -0.372 -1.5344 -0.1520 -1.0057
    5BDD    C2015269   3.393   9.385  -0.448  0.6576 -1.1506  0.2847
    5BDD    C2115270   3.424   9.458  -0.584 -0.9878  1.2774  0.3119
    5BDD    C2215271   3.530   9.408  -0.680  0.0563 -1.5537  0.1577
    5BDD    C2315272   3.682   9.398  -0.632  0.5399  0.9815  0.2164
    5BDD    C2415273   3.732   9.378  -0.491 -0.0514 -0.6286  0.5113
    5BDD    C2515274   3.330   9.229  -0.475 -0.0327  0.4332 -0.2007
    5BDD    C2615275   3.341   9.134  -0.358 -0.2838 -0.4298 -0.4507
    6TPM     C115276   2.822   9.856  -0.308 -0.1656  1.2438  0.4651
    6TPM     C215277   2.788   9.757  -0.220  0.3136  1.2412  0.6530
    6TPM     C315278   2.662   9.694  -0.250  0.9105  0.1214  0.3903
    6TPM     C415279   2.600   9.744  -0.360  0.8863 -0.7301  0.0016
    6TPM     S115280   2.697   9.876  -0.436  0.1017 -0.1793 -0.0627
    7BDTP    C115281   1.973   9.755  -0.377 -0.0348  0.1864 -0.0341
    7BDTP    C215282   2.004   9.616  -0.383  0.1487  0.2341 -0.1760
    7BDTP    C315283   2.135   9.568  -0.383  0.2120  0.4070 -0.2470
    7BDTP    C415284   2.239   9.662  -0.376  0.0890  0.5395 -0.1743
    7BDTP    C515285   2.208   9.801  -0.370 -0.0944  0.4926 -0.0319
    7BDTP    C615286   2.077   9.848  -0.370 -0.1579  0.3196  0.0386
    7BDTP    C715287   2.382   9.637  -0.375  0.1233  0.7272 -0.2251
    7BDTP    C815288   2.458   9.749  -0.368 -0.0236  0.8221 -0.1295
    7BDTP    S115289   2.360   9.902  -0.362 -0.2261  0.6871  0.0384
    7BDTP    C915290   1.830   9.780  -0.379 -0.0690 -0.0010  0.0167
    7BDTP   C1015291   1.754   9.668  -0.386  0.0778 -0.0961 -0.0787
    7BDTP    S215292   1.852   9.515  -0.392  0.2803  0.0394 -0.2467
    8FTM     S115293   2.106   9.292  -0.481 -0.4710 -0.0150  0.3455
    8FTM     C115294   2.207   9.170  -0.395 -0.1445 -0.1991 -0.2818
    8FTM     C215295   2.276   9.231  -0.294  0.4301 -0.3643 -0.5703
    8FTM     C315296   2.256   9.372  -0.279  0.6462 -0.3576 -0.3273
    8FTM     C415297   2.168   9.421  -0.370  0.2234 -0.1822  0.1638
    8FTM     F115298   2.362   9.161  -0.210  0.7945 -0.5314 -1.0722
    8FTM     C515299   2.205   9.041  -0.473  0.2278 -1.3264  0.1934
    8FTM     C615300   2.333   9.002  -0.533 -0.3750  1.0847  0.0045
    8FTM     C715301   2.405   8.944  -0.413 -0.0641 -0.8995  0.8245
    8FTM     C815302   2.553   8.933  -0.408  0.1414  0.0116  0.3748
    8FTM     C915303   2.648   9.046  -0.423  0.2977 -1.4356  0.7606
    8FTM    C1015304   2.796   9.009  -0.410 -0.8617  0.2734 -0.2285
    8FTM    C1115305   2.349   8.915  -0.656 -0.0995 -1.9898  0.7437
    8FTM    C1215306   2.241   8.811  -0.666  0.3701 -0.4871  0.6589
    9FTM     S115307   2.076  10.021  -0.127 -0.2735 -0.1371  0.0596
    9FTM     C115308   2.020  10.190  -0.154  0.7820  0.2950  0.4938
    9FTM     C215309   1.992  10.209  -0.286  1.4666  0.9983  0.4330
    9FTM     C315310   2.011  10.095  -0.372  1.2180  1.2374  0.0544
    9FTM     C415311   2.056   9.986  -0.303  0.3136  0.7007 -0.1826
    9FTM     F115312   1.947  10.330  -0.337  2.3589  1.4665  0.7169
    9FTM     C515313   2.004  10.292  -0.044  0.3392  0.6051  0.1937
    9FTM     C615314   1.937  10.427  -0.060 -0.0526 -1.2526 -0.3462
    9FTM     C715315   1.996  10.547   0.016  0.4428 -0.3512  0.4088
    9FTM     C815316   2.141  10.614  -0.015 -0.4924  1.0373 -0.0476
    9FTM     C915317   2.152  10.761   0.005 -0.0915  0.3816  0.8741
    9FTM    C1015318   2.199  10.787   0.142 -1.6310 -1.1690  0.8486
    9FTM    C1115319   1.781  10.431  -0.073  0.9876 -0.3958 -0.1211
    9FTM    C1215320   1.683  10.393   0.043 -0.3846  1.3156 -0.0847
   10TPM     C115321   1.619   9.646  -0.408 -0.0882 -0.3129 -0.4225
   10TPM     C215322   1.556   9.535  -0.456  0.0182  0.0126 -1.3411
   10TPM     C315323   1.417   9.557  -0.489  0.0582  0.2072 -1.3835
   10TPM     C415324   1.375   9.684  -0.466 -0.0175  0.0299 -0.4971
   10TPM     S115325   1.507   9.787  -0.400 -0.1464 -0.3997  0.4671
   11BDD     C115326   1.047   9.736  -0.667 -0.1902  0.1137  0.3733
   11BDD     C215327   1.138   9.817  -0.730 -0.0915 -0.0732  0.2716
   11BDD     C315328   1.269   9.816  -0.668  0.0476 -0.5364 -0.0243
   11BDD     C415329   1.277   9.734  -0.559  0.0530 -0.6959 -0.1439
   11BDD     S115330   1.120   9.653  -0.526 -0.1158 -0.2770  0.1059
   11BDD     C515331   1.106   9.899  -0.849 -0.1214  0.1667  0.4430
   11BDD     C615332   1.382   9.896  -0.719  0.1702 -0.8044 -0.1771
   11BDD     O115333   1.495   9.895  -0.666  0.2901 -1.2040 -0.4325
   11BDD     O215334   0.993   9.900  -0.902 -0.2414  0.5660  0.6979
   11BDD     C715335   1.351   9.978  -0.838  0.1402 -0.5643 -0.0064
   11BDD     C815336   1.219   9.980  -0.900  0.0011 -0.1013  0.2894
   11BDD     C915337   1.212  10.062  -1.009 -0.0042  0.0575  0.4094
   11BDD     S215338   1.368  10.143  -1.042  0.1645 -0.3613  0.1600
   11BDD    C1015339   1.441  10.059  -0.901  0.2390 -0.7522 -0.1078
   11BDD    C1115340   1.581  10.127  -0.868  0.2575  0.8105  0.8137
   11BDD    C1215341   1.629  10.161  -0.741 -0.5208  0.8624 -2.5486
   11BDD    C1315342   1.790  10.148  -0.706  1.8346 -0.2568  0.8241
   11BDD    C1415343   1.860  10.243  -0.798 -0.9026  1.4467 -0.2571
   11BDD    C1515344   1.966  10.152  -0.863 -0.4118  0.4792  0.3260
   11BDD    C1615345   2.053  10.225  -0.967 -0.0228  0.5514 -0.9790
   11BDD    C1715346   1.558  10.250  -0.631  0.6710  0.7853 -0.5212
   11BDD    C1815347   1.413  10.265  -0.628  0.2674 -0.9932 -0.1699
   11BDD    C1915348   1.091  10.101  -1.107  0.0069  0.1975 -1.4409
   11BDD    C2015349   1.092  10.243  -1.152  0.0515 -1.5797 -0.0059
   11BDD    C2115350   1.065  10.259  -1.306  0.1337 -0.6427 -1.3881
   11BDD    C2215351   1.105  10.385  -1.368 -0.4475  0.4474 -0.0489
   11BDD    C2315352   1.267  10.434  -1.379  0.4510 -0.6656 -1.0187
   11BDD    C2415353   1.376  10.335  -1.400 -0.4594 -0.1272 -1.3554
   11BDD    C2515354   1.038  10.341  -1.049  0.9536  0.8662  0.1879
   11BDD    C2615355   0.956  10.465  -1.090  0.5676  0.6739 -0.4561
   12TPM     C115356   0.911   9.670  -0.687 -0.6918 -0.8348 -0.1940
   12TPM     C215357   0.812   9.719  -0.767 -0.8849 -0.8485  0.0360
   12TPM     C315358   0.688   9.647  -0.755 -0.9196 -0.7155  0.5019
   12TPM     C415359   0.693   9.544  -0.666 -0.7529 -0.6001  0.6273
   12TPM     S115360   0.855   9.529  -0.590 -0.5375 -0.6516  0.1628
   13BDTP    C115361   0.213   9.176  -0.516  0.1977 -0.1161 -0.0134
   13BDTP    C215362   0.322   9.104  -0.458  0.2594 -0.0010  0.0148
   13BDTP    C315363   0.453   9.147  -0.467  0.2149  0.1464  0.0608
   13BDTP    C415364   0.480   9.266  -0.536  0.1045  0.1812  0.0799
   13BDTP    C515365   0.371   9.339  -0.594  0.0428  0.0663  0.0510
   13BDTP    C615366   0.239   9.296  -0.585  0.0872 -0.0807  0.0056
   13BDTP    C715367   0.608   9.331  -0.558  0.0408  0.3253  0.1263
   13BDTP    C815368   0.601   9.446  -0.629 -0.0644  0.3233  0.1340
   13BDTP    S115369   0.431   9.490  -0.677 -0.0976  0.1400  0.0834
   13BDTP    C915370   0.085   9.112  -0.494  0.2613 -0.2596 -0.0603
   13BDTP   C1015371   0.092   8.996  -0.423  0.3665 -0.2584 -0.0679
   13BDTP    S215372   0.262   8.953  -0.375  0.3997 -0.0744 -0.0177
   14FTM     S115373   0.704   9.030  -0.461  0.0673 -0.3935  0.3437
   14FTM     C115374   0.774   9.006  -0.297  0.3173 -0.5979  0.2070
   14FTM     C215375   0.682   9.035  -0.202  0.7040  0.0544  0.3910
   14FTM     C315376   0.554   9.078  -0.250  0.8264  0.7360  0.6433
   14FTM     C415377   0.547   9.080  -0.386  0.5237  0.6019  0.6529
   14FTM     F115378   0.708   9.026  -0.066  0.9700  0.0725  0.3419
   14FTM     C515379   0.919   8.998  -0.326 -0.8499 -0.6076 -0.0015
   14FTM     C615380   1.033   9.104  -0.344  0.6268  0.2683 -0.0935
   14FTM     C715381   1.036   9.160  -0.493  0.2886 -0.0209 -0.5564
   14FTM     C815382   1.064   9.085  -0.617  0.4216 -0.3918  0.1586
   14FTM     C915383   1.202   9.067  -0.663 -0.7202  1.4750 -0.5094
   14FTM    C1015384   1.245   8.926  -0.721 -0.1130 -1.0719  0.3346
   14FTM    C1115385   1.018   9.230  -0.263  0.3512  0.6024 -0.2625
   14FTM    C1215386   1.122   9.322  -0.206  0.2126 -0.4902  0.4793
   15FTM     S115387   0.002   9.444  -0.560  0.6623  0.7688 -0.1080
   15FTM     C115388  -0.064   9.528  -0.706  0.8994  0.2929 -0.4962
   15FTM     C215389   0.009   9.495  -0.815  0.4227 -0.9253 -0.4742
   15FTM     C315390   0.118   9.404  -0.794 -0.1419 -1.5481 -0.1621
   15FTM     C415391   0.129   9.367  -0.663 -0.0965 -0.7812  0.0622
   15FTM     F115392  -0.018   9.544  -0.942  0.4699 -1.5490 -0.7358
   15FTM     C515393  -0.190   9.621  -0.705 -0.2008  0.2381 -0.1410
   15FTM     C615394  -0.307   9.606  -0.609  0.9653 -0.6720  0.4002
   15FTM     C715395  -0.345   9.745  -0.539  0.0192 -0.5121  0.9575
   15FTM     C815396  -0.506   9.763  -0.546 -0.1713 -0.5877 -0.2294
   15FTM     C915397  -0.569   9.867  -0.441  0.3368  0.3608 -0.6753
   15FTM    C1015398  -0.486   9.974  -0.386  0.8535  1.0878  0.5197
   15FTM    C1115399  -0.352   9.469  -0.548  0.2360  0.1548  1.2240
   15FTM    C1215400  -0.364   9.348  -0.654 -0.3284  0.0856 -0.9720
   16TPM     C115401  -0.016   8.900  -0.405  0.2466 -0.0042 -0.2793
   16TPM     C215402  -0.014   8.764  -0.395 -0.0821  0.0257  0.2306
   16TPM     C315403  -0.143   8.707  -0.365 -0.1550  0.4683  0.8113
   16TPM     C415404  -0.243   8.799  -0.353  0.1178  0.7754  0.7442
   16TPM     S115405  -0.181   8.967  -0.378  0.4915  0.5282 -0.0637
   17BDD     C115406  -0.594   8.729  -0.191  0.2305 -0.5146  0.4786
   17BDD     C215407  -0.586   8.645  -0.298  0.0086 -0.3533  0.3309
   17BDD     C315408  -0.465   8.663  -0.377 -0.2816 -0.0494 -0.0553
   17BDD     C415409  -0.383   8.761  -0.328 -0.2770  0.0172 -0.1963
   17BDD     S115410  -0.452   8.838  -0.181  0.0911 -0.2966  0.1442
   17BDD     C515411  -0.688   8.544  -0.332  0.0560 -0.4728  0.5400
   17BDD     C615412  -0.435   8.582  -0.496 -0.5529  0.1645 -0.2701
   17BDD     O115413  -0.330   8.598  -0.564 -0.8032  0.4265 -0.6034
   17BDD     O215414  -0.792   8.528  -0.265  0.3064 -0.7353  0.8731
   17BDD     C715415  -0.537   8.481  -0.531 -0.5059  0.0451 -0.0615
   17BDD     C815416  -0.658   8.463  -0.452 -0.2158 -0.2592  0.3252
   17BDD     C915417  -0.740   8.364  -0.501 -0.2201 -0.3254  0.4663
   17BDD     S215418  -0.671   8.288  -0.648 -0.5882 -0.0118  0.1255
   17BDD    C1015419  -0.528   8.396  -0.638 -0.7277  0.2060 -0.2091
   17BDD    C1115420  -0.421   8.367  -0.749 -0.1917 -0.1571  0.3334
   17BDD    C1215421  -0.302   8.265  -0.738 -0.3340 -0.8241 -0.2845
   17BDD    C1315422  -0.269   8.219  -0.888 -0.0235 -0.3464  0.0407
   17BDD    C1415423  -0.179   8.115  -0.894  0.4695  0.4136 -1.3365
   17BDD    C1515424  -0.198   7.989  -0.985  0.9165 -1.1415 -0.4654
   17BDD    C1615425  -0.067   7.918  -0.982  0.3047 -1.1348 -0.4082
   17BDD    C1715426  -0.182   8.312  -0.628  0.8550 -0.4389  1.0070
   17BDD    C1815427  -0.083   8.424  -0.638  0.6455 -0.3456  0.0513
   17BDD    C1915428  -0.854   8.293  -0.443 -0.2680  0.3766  2.2639
   17BDD    C2015429  -0.806   8.171  -0.367 -0.3013  0.2882 -0.0057
   17BDD    C2115430  -0.725   8.074  -0.440 -1.5598  1.5409 -1.5769
   17BDD    C2215431  -0.780   7.984  -0.557 -0.0254 -1.1552 -0.2340
   17BDD    C2315432  -0.705   7.902  -0.658  0.2266  0.4357 -0.3180
   17BDD    C2415433  -0.565   7.887  -0.641 -0.2417 -0.4728  0.3955
   17BDD    C2515434  -0.757   8.197  -0.223  0.1153  0.0878  0.8671
   17BDD    C2615435  -0.868   8.242  -0.130 -1.2740  0.3811  1.7082
   18TPM     C115436  -0.686   8.766  -0.085 -0.1406  0.8574  0.1450
   18TPM     C215437  -0.720   8.897  -0.076 -0.1822  0.8171  0.6273
   18TPM     C315438  -0.840   8.921  -0.000 -0.3374  0.4766  0.4923
   18TPM     C415439  -0.898   8.807   0.048 -0.4137  0.2573 -0.0932
   18TPM     S115440  -0.804   8.661   0.002 -0.2951  0.4657 -0.5228
   19BDTP    C115441  -1.492   8.748   0.241 -0.4046  0.1793 -0.3239
   19BDTP    C215442  -1.456   8.877   0.291 -0.3743  0.1810 -0.3496
   19BDTP    C315443  -1.331   8.934   0.269 -0.3169  0.0930 -0.2525
   19BDTP    C415444  -1.237   8.860   0.194 -0.2873 -0.0010 -0.1239
   19BDTP    C515445  -1.273   8.732   0.145 -0.3173 -0.0026 -0.0982
   19BDTP    C615446  -1.397   8.675   0.166 -0.3751  0.0852 -0.1953
   19BDTP    C715447  -1.102   8.899   0.159 -0.2280 -0.1019 -0.0075
   19BDTP    C815448  -1.035   8.806   0.086 -0.2120 -0.1783  0.1030
   19BDTP    S115449  -1.134   8.658   0.052 -0.2706 -0.1333  0.0751
   19BDTP    C915450  -1.627   8.710   0.276 -0.4642  0.2799 -0.4403
   19BDTP   C1015451  -1.693   8.802   0.349 -0.4797  0.3564 -0.5508
   19BDTP    S215452  -1.594   8.951   0.384 -0.4215  0.3112 -0.5229
   20FTM     S115453  -1.191   9.200   0.279 -0.0173  0.1628  0.5533
   20FTM     C115454  -1.198   9.286   0.437  0.0020  0.2026  0.5328
   20FTM     C215455  -1.274   9.214   0.524  0.0215  0.2191  0.5630
   20FTM     C315456  -1.329   9.092   0.475  0.0217  0.2027  0.6029
   20FTM     C415457  -1.295   9.068   0.345  0.0030  0.1725  0.6033
   20FTM     F115458  -1.298   9.256   0.655  0.0391  0.2503  0.5562
   20FTM     C515459  -1.123   9.410   0.458  1.0593  0.6044  0.8331
   20FTM     C615460  -1.091   9.494   0.320  0.7879 -0.7590 -1.7509
   20FTM     C715461  -1.198   9.542   0.203  0.4147  0.1736 -0.0031
   20FTM     C815462  -1.278   9.673   0.259  1.3136  1.0261 -0.2075
   20FTM     C915463  -1.205   9.805   0.271  0.0443  0.5043 -0.1025
   20FTM    C1015464  -1.134   9.883   0.161  1.2139 -0.6284  0.9116
   20FTM    C1115465  -0.978   9.446   0.220 -1.5856 -2.3506  0.0159
   20FTM    C1215466  -0.832   9.436   0.274  0.7667  0.8879  0.9310
   21FTM     S115467  -1.394   8.492  -0.067 -0.0040 -0.0295  0.3483
   21FTM     C115468  -1.428   8.322  -0.017  0.8992 -0.2977  0.0908
   21FTM     C215469  -1.453   8.317   0.117  1.3158 -0.6964  0.1559
   21FTM     C315470  -1.446   8.442   0.187  0.9673 -0.8154  0.4036
   21FTM     C415471  -1.416   8.546   0.104  0.2603 -0.4972  0.5331
   21FTM     F115472  -1.482   8.199   0.183  2.0380 -0.9775 -0.0055
   21FTM     C515473  -1.478   8.217  -0.103 -0.1304 -0.3402 -0.2232
   21FTM     C615474  -1.411   8.085  -0.156 -0.9960  0.3721 -0.3378
   21FTM     C715475  -1.268   8.094  -0.223 -1.2642  1.0744  0.6747
   21FTM     C815476  -1.188   7.984  -0.302 -0.9451  0.2805 -0.6115
   21FTM     C915477  -1.168   7.850  -0.247 -0.5239  0.7178  0.1496
   21FTM    C1015478  -1.048   7.791  -0.324 -0.5529  0.8713 -0.6219
   21FTM    C1115479  -1.531   7.998  -0.204  0.3372 -0.1033  0.0490
   21FTM    C1215480  -1.524   7.854  -0.215 -0.9620  0.3928 -0.5401
   22TPM     C115481  -1.810   8.778   0.420 -0.0039  0.4391  0.4733
   22TPM     C215482  -1.866   8.852   0.521  0.1533  0.1557  0.7736
   22TPM     C315483  -1.991   8.798   0.568  0.3171 -0.0784  0.9465
   22TPM     C415484  -2.030   8.684   0.504  0.2844  0.0265  0.7780
   22TPM     S115485  -1.911   8.635   0.378  0.0426  0.4326  0.3848
   23BDD     C115486  -2.359   8.499   0.399 -0.4117  0.1345 -0.0427
   23BDD     C215487  -2.381   8.547   0.525 -0.3021  0.1736 -0.0375
   23BDD     C315488  -2.267   8.616   0.582 -0.2947  0.3016 -0.2075
   23BDD     C415489  -2.159   8.620   0.498 -0.3986  0.3584 -0.3398
   23BDD     S115490  -2.193   8.538   0.342 -0.5131  0.2553 -0.2607
   23BDD     C515491  -2.509   8.530   0.598 -0.2000  0.0947  0.1238
   23BDD     C615492  -2.269   8.676   0.717 -0.1845  0.3631 -0.2325
   23BDD     O115493  -2.171   8.736   0.766 -0.1783  0.4737 -0.3791
   23BDD     O215494  -2.607   8.470   0.549 -0.2065 -0.0157  0.2704
   23BDD     C715495  -2.397   8.659   0.790 -0.0830  0.2844 -0.0712
   23BDD     C815496  -2.511   8.590   0.733 -0.0904  0.1564  0.0988
   23BDD     C915497  -2.619   8.585   0.816  0.0138  0.0999  0.2311
   23BDD     S215498  -2.586   8.668   0.972  0.1281  0.2028  0.1520
   23BDD    C1015499  -2.420   8.707   0.916  0.0267  0.3238 -0.0660
   23BDD    C1115500  -2.346   8.774   1.021 -0.3137 -0.4666  0.8317
   23BDD    C1215501  -2.391   8.818   1.153  1.2100 -0.2475  0.3149
   23BDD    C1315502  -2.479   8.951   1.158 -1.0437 -0.5594  0.7561
   23BDD    C1415503  -2.548   9.007   1.294 -0.7859 -0.1184  0.3743
   23BDD    C1515504  -2.601   9.155   1.322 -0.6482  0.2970 -0.4877
   23BDD    C1615505  -2.702   9.252   1.256  0.9884 -0.7433  0.3094
   23BDD    C1715506  -2.293   8.805   1.273 -0.3783 -1.8318  1.0844
   23BDD    C1815507  -2.177   8.893   1.244  0.7356 -0.0095  0.6810
   23BDD    C1915508  -2.754   8.538   0.811  0.1434 -0.0064  0.2550
   23BDD    C2015509  -2.858   8.648   0.737  0.3605  0.2421 -1.0488
   23BDD    C2115510  -2.836   8.803   0.741  1.6576 -0.2460  0.1971
   23BDD    C2215511  -2.945   8.893   0.807  0.4632 -1.2821  0.1580
   23BDD    C2315512  -3.010   8.847   0.926  0.8863 -0.9020 -0.1942
   23BDD    C2415513  -3.116   8.944   0.951  0.8663 -0.0662 -0.1383
   23BDD    C2515514  -2.970   8.570   0.671 -0.0141 -0.3170  1.0867
   23BDD    C2615515  -2.975   8.554   0.521 -0.0344 -0.2950  0.0024
   24TPM     C115516  -2.448   8.462   0.295  0.0575 -0.1223  0.2500
   24TPM     C215517  -2.533   8.357   0.309  0.3428 -0.3035  0.6491
   24TPM     C315518  -2.610   8.329   0.191  0.1345 -0.7164  0.8796
   24TPM     C415519  -2.585   8.413   0.087 -0.3095 -0.8502  0.6563
   24TPM     S115520  -2.460   8.535   0.130 -0.5006 -0.4619  0.1335
   25BDTP    C115521  -2.767   8.244  -0.492  0.5412  0.1523 -0.3924
   25BDTP    C215522  -2.775   8.386  -0.498  0.2105  0.1476 -0.1540
   25BDTP    C315523  -2.745   8.468  -0.391 -0.0656  0.0360  0.0107
   25BDTP    C415524  -2.705   8.408  -0.270 -0.0134 -0.0772 -0.0627
   25BDTP    C515525  -2.697   8.265  -0.263  0.3176 -0.0725 -0.3018
   25BDTP    C615526  -2.727   8.183  -0.371  0.5933  0.0396 -0.4664
   25BDTP    C715527  -2.669   8.472  -0.146 -0.2602 -0.2043  0.0756
   25BDTP    C815528  -2.635   8.386  -0.047 -0.1318 -0.2940 -0.0458
   25BDTP    S115529  -2.643   8.212  -0.097  0.3190 -0.2301 -0.3533
   25BDTP    C915530  -2.803   8.180  -0.616  0.7880  0.2799 -0.5312
   25BDTP   C1015531  -2.838   8.266  -0.715  0.6597  0.3695 -0.4094
   25BDTP    S215532  -2.829   8.440  -0.664  0.2086  0.3058 -0.1022
   26FTM     S115533  -2.676   8.743  -0.305 -0.4427 -0.2506 -0.1180
   26FTM     C115534  -2.798   8.867  -0.355 -0.7823 -0.3575  0.4386
   26FTM     C215535  -2.890   8.810  -0.437 -0.8895 -0.3452  0.5481
   26FTM     C315536  -2.871   8.671  -0.467 -0.7186 -0.2532  0.2143
   26FTM     C415537  -2.762   8.619  -0.405 -0.4719 -0.1940 -0.1632
   26FTM     F115538  -2.996   8.881  -0.491 -1.1489 -0.4156  0.9577
   26FTM     C515539  -2.786   9.018  -0.300  1.0238  1.1788  0.0189
   26FTM     C615540  -2.692   9.108  -0.362 -0.4138  0.2393 -0.4049
   26FTM     C715541  -2.717   9.162  -0.500 -0.4768 -0.1973  0.4973
   26FTM     C815542  -2.730   9.069  -0.622  1.1484 -0.9823 -1.3218
   26FTM     C915543  -2.822   9.136  -0.735 -0.8182  0.5881  0.4892
   26FTM    C1015544  -2.946   9.228  -0.695  0.5232 -0.9278 -0.4387
   26FTM    C1115545  -2.631   9.238  -0.286 -0.3372 -0.8327 -0.0832
   26FTM    C1215546  -2.719   9.361  -0.247 -0.8530 -0.6191 -0.1986
   27FTM     S115547  -2.878   8.008  -0.211  0.3514 -0.2322 -0.0975
   27FTM     C115548  -2.876   7.832  -0.250  0.2775 -0.2386 -0.0755
   27FTM     C215549  -2.792   7.809  -0.355 -0.4096 -0.1665 -0.6573
   27FTM     C315550  -2.726   7.924  -0.409 -0.9089 -0.1038 -1.1437
   27FTM     C415551  -2.761   8.039  -0.344 -0.5931 -0.1282 -0.9277
   27FTM     F115552  -2.770   7.683  -0.407 -0.6278 -0.1531 -0.7839
   27FTM     C515553  -2.942   7.735  -0.173  0.5905 -0.4095 -0.1951
   27FTM     C615554  -2.942   7.698  -0.018  0.4166 -1.0019 -0.3856
   27FTM     C715555  -3.049   7.596   0.020  0.6441  0.8615 -0.8892
   27FTM     C815556  -3.187   7.627   0.085  0.3178  0.3183 -0.2862
   27FTM     C915557  -3.271   7.534   0.188  0.0608  0.9563  0.4085
   27FTM    C1015558  -3.332   7.423   0.100 -0.6229 -0.1915  0.9168
   27FTM    C1115559  -2.818   7.665   0.064 -0.0493 -0.4369  0.2603
   27FTM    C1215560  -2.731   7.788   0.060  0.9343  0.1153 -0.0017
   28TPM     C115561  -2.865   8.230  -0.841  0.6967 -0.3776  0.2053
   28TPM     C215562  -2.852   8.298  -0.959  0.5631  0.0424  0.4263
   28TPM     C315563  -2.892   8.221  -1.074 -0.2553  0.6921  0.2511
   28TPM     C415564  -2.934   8.095  -1.044 -0.7456  0.7672 -0.1035
   28TPM     S115565  -2.928   8.063  -0.866 -0.2076  0.0172 -0.2449
   29BDD     C115566  -2.980   7.776  -1.272  0.1817 -0.1306 -0.1268
   29BDD     C215567  -3.064   7.870  -1.325  0.0985 -0.1419 -0.0138
   29BDD     C315568  -3.065   7.995  -1.250 -0.1960 -0.3151  0.2780
   29BDD     C415569  -2.981   7.994  -1.142 -0.3328 -0.4333  0.3836
   29BDD     S115570  -2.896   7.836  -1.126 -0.1028 -0.3361  0.1245
   29BDD     C515571  -3.148   7.850  -1.445  0.2863  0.0062 -0.1702
   29BDD     C615572  -3.148   8.111  -1.288 -0.3307 -0.3569  0.4420
   29BDD     O115573  -3.149   8.218  -1.224 -0.5848 -0.5059  0.6938
   29BDD     O215574  -3.147   7.742  -1.509  0.5400  0.1557 -0.4218
   29BDD     C715575  -3.231   8.090  -1.409 -0.1428 -0.2089  0.2859
   29BDD     C815576  -3.231   7.965  -1.483  0.1514 -0.0355 -0.0062
   29BDD     C915577  -3.315   7.967  -1.592  0.2880  0.0826 -0.1118
   29BDD     S215578  -3.400   8.124  -1.607  0.0583 -0.0149  0.1476
   29BDD    C1015579  -3.315   8.184  -1.461 -0.2265 -0.2201  0.3986
   29BDD    C1115580  -3.365   8.322  -1.401 -0.0963  0.9789 -0.8095
   29BDD    C1215581  -3.281   8.458  -1.408  0.0316  0.2311  0.7444
   29BDD    C1315582  -3.137   8.493  -1.407 -0.2754  0.0404 -0.9073
   29BDD    C1415583  -3.076   8.598  -1.498  0.3247 -0.1617  2.0381
   29BDD    C1515584  -3.140   8.594  -1.635 -0.7292  1.0306  1.3000
   29BDD    C1615585  -3.115   8.460  -1.719  1.3155 -0.4146  0.5620
   29BDD    C1715586  -3.362   8.578  -1.371  1.9533 -0.2436 -0.0781
   29BDD    C1815587  -3.389   8.586  -1.221  0.9279  0.2341 -0.1360
   29BDD    C1915588  -3.327   7.852  -1.694  0.3669 -0.5794  0.2503
   29BDD    C2015589  -3.277   7.900  -1.828 -0.1173  1.7192  0.4645
   29BDD    C2115590  -3.181   8.003  -1.862  0.0719  0.4769 -0.3292
   29BDD    C2215591  -3.033   7.974  -1.836 -1.0980  1.2977 -1.4121
   29BDD    C2315592  -2.924   7.989  -1.945  1.2804  0.8347  0.2191
   29BDD    C2415593  -2.958   7.926  -2.070 -0.5371  0.0526 -0.0063
   29BDD    C2515594  -3.262   7.773  -1.931  0.9910 -1.3353  0.8891
   29BDD    C2615595  -3.297   7.823  -2.077 -0.0186  0.5618 -1.6942
   30TPM     C115596  -2.988   7.634  -1.287  0.2071 -0.4724  0.0175
   30TPM     C215597  -2.916   7.561  -1.376  0.6583 -0.8053  0.6411
   30TPM     C315598  -2.927   7.418  -1.356  0.8025 -0.7300  1.2925
   30TPM     C415599  -3.007   7.384  -1.251  0.4610 -0.3398  1.1655
   30TPM     S115600  -3.076   7.529  -1.169 -0.0734 -0.0347  0.2056
   31BDTP    C115601  -3.052   6.763  -1.209 -0.0145 -0.2570  0.0718
   31BDTP    C215602  -3.174   6.797  -1.273  0.0081 -0.1673  0.0758
   31BDTP    C315603  -3.212   6.928  -1.299  0.0739 -0.1367  0.1345
   31BDTP    C415604  -3.124   7.031  -1.260  0.1197 -0.1975  0.1924
   31BDTP    C515605  -3.002   6.998  -1.195  0.0968 -0.2874  0.1888
   31BDTP    C615606  -2.965   6.866  -1.169  0.0312 -0.3179  0.1297
   31BDTP    C715607  -3.142   7.174  -1.276  0.1898 -0.1815  0.2593
   31BDTP    C815608  -3.040   7.249  -1.227  0.2205 -0.2539  0.3052
   31BDTP    S115609  -2.907   7.148  -1.153  0.1652 -0.3527  0.2701
   31BDTP    C915610  -3.035   6.621  -1.193 -0.0846 -0.2733  0.0048
   31BDTP   C1015611  -3.137   6.546  -1.241 -0.1156 -0.2010 -0.0408
   31BDTP    S215612  -3.269   6.647  -1.315 -0.0601 -0.1019 -0.0062
   32FTM     S115613  -3.317   7.052  -1.535  0.3897  0.8214  0.4732
   32FTM     C115614  -3.491   7.019  -1.567  0.5924  0.4560 -0.2896
   32FTM     C215615  -3.542   6.940  -1.468  0.5319 -0.3730 -0.9594
   32FTM     C315616  -3.451   6.902  -1.364  0.3291 -0.7652 -0.9215
   32FTM     C415617  -3.326   6.953  -1.384  0.2312 -0.2188 -0.1988
   32FTM     F115618  -3.674   6.898  -1.467  0.6567 -0.8260 -1.6468
   32FTM     C515619  -3.567   7.068  -1.685 -0.0660  0.0510  1.5164
   32FTM     C615620  -3.667   7.195  -1.701 -0.9219  1.5945 -1.1514
   32FTM     C715621  -3.578   7.302  -1.772  1.0010  1.1326  1.0541
   32FTM     C815622  -3.606   7.436  -1.762 -1.9350 -0.8236  0.0956
   32FTM     C915623  -3.551   7.533  -1.640  0.9761  0.1112 -0.2480
   32FTM    C1015624  -3.625   7.520  -1.509  0.6942 -0.5529  0.0905
   32FTM    C1115625  -3.802   7.152  -1.767  0.2699 -0.2959 -1.4368
   32FTM    C1215626  -3.904   7.250  -1.713 -0.2494 -0.3061  0.3860
   33FTM     S115627  -2.686   6.932  -1.134 -0.2570  0.2430 -0.1179
   33FTM     C115628  -2.602   6.853  -0.996  0.2451  0.9754  0.0038
   33FTM     C215629  -2.688   6.774  -0.928  0.7656  0.4318  0.0484
   33FTM     C315630  -2.823   6.769  -0.978  0.8047 -0.5635 -0.0079
   33FTM     C415631  -2.839   6.848  -1.088  0.2979 -0.7891 -0.0983
   33FTM     F115632  -2.651   6.700  -0.816  1.2374  0.8031  0.1426
   33FTM     C515633  -2.441   6.846  -0.990  2.2957  0.5119  0.0339
   33FTM     C615634  -2.362   6.937  -1.075 -0.1868  0.3519  0.9999
   33FTM     C715635  -2.281   6.882  -1.206  1.9674 -1.3111 -0.0175
   33FTM     C815636  -2.167   6.791  -1.178 -0.0670  0.4523  0.1744
   33FTM     C915637  -2.127   6.700  -1.296 -1.3971 -1.1836 -0.1832
   33FTM    C1015638  -2.215   6.665  -1.414 -0.6168 -0.0121 -0.0338
   33FTM    C1115639  -2.353   7.088  -1.043  1.3009 -0.4055  1.3191
   33FTM    C1215640  -2.248   7.117  -0.938  0.4153  0.3635  0.4128
   34TPM     C115641  -3.147   6.410  -1.244  0.6363  0.0961 -0.2987
   34TPM     C215642  -3.182   6.336  -1.353  0.7315  0.2323 -0.4234
   34TPM     C315643  -3.164   6.194  -1.334  0.2768  0.1737 -0.4213
   34TPM     C415644  -3.117   6.160  -1.211 -0.1647 -0.0074 -0.2951
   34TPM     S115645  -3.090   6.306  -1.108 -0.0396 -0.1187 -0.1679
   35BDD     C115646  -2.867   5.860  -1.142 -0.0663 -0.1259 -0.5516
   35BDD     C215647  -2.992   5.814  -1.114 -0.0603 -0.0310 -0.3691
   35BDD     C315648  -3.096   5.913  -1.134  0.0017  0.0985 -0.0579
   35BDD     C415649  -3.048   6.034  -1.177  0.0423  0.1004 -0.0079
   35BDD     S115650  -2.870   6.031  -1.196  0.0060 -0.0598 -0.3464
   35BDD     C515651  -3.022   5.676  -1.068 -0.1118 -0.0559 -0.4742
   35BDD     C615652  -3.239   5.885  -1.110  0.0181  0.2155  0.1783
   35BDD     O115653  -3.329   5.971  -1.127  0.0718  0.3272  0.4470
   35BDD     O215654  -2.932   5.590  -1.050 -0.1652 -0.1675 -0.7427
   35BDD     C715655  -3.268   5.748  -1.063 -0.0331  0.1906  0.0734
   35BDD     C815656  -3.165   5.648  -1.043 -0.0951  0.0612 -0.2377
   35BDD     C915657  -3.213   5.528  -1.000 -0.1359  0.0592 -0.2880
   35BDD     S215658  -3.391   5.531  -0.981 -0.0993  0.2195  0.0508
   35BDD    C1015659  -3.394   5.702  -1.035 -0.0274  0.2855  0.2561
   35BDD    C1115660  -3.515   5.749  -1.070  0.9250  2.0511 -1.9541
   35BDD    C1215661  -3.595   5.839  -0.969  0.8018  0.6229  0.6096
   35BDD    C1315662  -3.736   5.890  -1.019  0.4520  1.2024  0.3769
   35BDD    C1415663  -3.716   5.996  -1.125  0.8858 -0.2552 -1.1630
   35BDD    C1515664  -3.838   6.066  -1.134  0.0892 -0.7827 -2.1144
   35BDD    C1615665  -3.833   6.172  -1.246  1.3513 -0.1696 -0.6012
   35BDD    C1715666  -3.598   5.821  -0.821  0.0364 -0.1840 -0.5438
   35BDD    C1815667  -3.628   5.933  -0.712 -0.5942 -0.1697 -0.1107
   35BDD    C1915668  -3.155   5.388  -0.989 -0.2314  1.1152  0.6245
   35BDD    C2015669  -3.224   5.293  -0.885 -0.0406  0.0749  0.3607
   35BDD    C2115670  -3.171   5.157  -0.871 -0.8376  0.1017  0.3863
   35BDD    C2215671  -3.251   5.031  -0.799  0.7799  0.3152  0.9569
   35BDD    C2315672  -3.151   4.919  -0.751  0.8115  0.2454  0.2472
   35BDD    C2415673  -3.229   4.823  -0.667  0.3768 -0.3390  0.1716
   35BDD    C2515674  -3.279   5.345  -0.748 -1.2540 -0.0903 -1.1275
   35BDD    C2615675  -3.179   5.408  -0.645 -0.3469 -0.1685 -0.1677
   36TPM     C115676  -2.727   5.804  -1.140 -0.4135 -0.4728 -0.3066
   36TPM     C215677  -2.613   5.878  -1.145 -0.4890 -0.3456 -0.1426
   36TPM     C315678  -2.493   5.800  -1.162 -0.3874 -0.2040 -0.0830
   36TPM     C415679  -2.516   5.666  -1.171 -0.2341 -0.2232 -0.2013
   36TPM     S115680  -2.692   5.628  -1.158 -0.2066 -0.4232 -0.3993
   37BDTP    C115681  -2.038   5.266  -1.282  0.2501  0.1980  0.2036
   37BDTP    C215682  -1.993   5.344  -1.172  0.2358  0.3197  0.1230
   37BDTP    C315683  -2.069   5.446  -1.116  0.2153  0.3603  0.0219
   37BDTP    C415684  -2.196   5.471  -1.171  0.2086  0.2774 -0.0014
   37BDTP    C515685  -2.241   5.393  -1.281  0.2227  0.1558  0.0796
   37BDTP    C615686  -2.165   5.291  -1.337  0.2433  0.1151  0.1807
   37BDTP    C715687  -2.293   5.571  -1.129  0.1876  0.2986 -0.1000
   37BDTP    C815688  -2.407   5.571  -1.202  0.1860  0.2000 -0.0975
   37BDTP    S115689  -2.408   5.445  -1.333  0.2100  0.0664  0.0303
   37BDTP    C915690  -1.942   5.166  -1.323  0.2706  0.1767  0.3023
   37BDTP   C1015691  -1.827   5.166  -1.250  0.2725  0.2753  0.2999
   37BDTP    S215692  -1.826   5.292  -1.119  0.2484  0.4089  0.1721
   38FTM     S115693  -2.025   5.437  -0.836 -0.4326  0.1741 -0.0607
   38FTM     C115694  -1.952   5.588  -0.770  0.0366 -0.0272 -0.1120
   38FTM     C215695  -1.932   5.677  -0.871 -0.0305  0.0155 -0.0877
   38FTM     C315696  -1.971   5.635  -1.002 -0.4418  0.2031 -0.0286
   38FTM     C415697  -2.023   5.509  -1.002 -0.6972  0.3072 -0.0078
   38FTM     F115698  -1.877   5.803  -0.850  0.2759 -0.1121 -0.1166
   38FTM     C515699  -1.946   5.562  -0.630  0.8924  0.1541 -0.2987
   38FTM     C615700  -1.878   5.657  -0.532  0.5188 -0.6625 -0.6644
   38FTM     C715701  -1.887   5.637  -0.377 -0.4496  0.5382 -0.0372
   38FTM     C815702  -2.037   5.659  -0.330 -0.2964  0.4480  0.7702
   38FTM     C915703  -2.110   5.790  -0.316  0.6968  0.2193 -0.1942
   38FTM    C1015704  -2.204   5.804  -0.197 -0.4643  0.3912  0.8950
   38FTM    C1115705  -1.725   5.676  -0.579 -0.3943  0.0078 -1.3371
   38FTM    C1215706  -1.648   5.791  -0.513 -0.5206 -0.3210 -0.7669
   39FTM     S115707  -2.123   5.254  -1.615 -0.4566  0.5207  0.3620
   39FTM     C115708  -2.239   5.145  -1.699  0.1427 -0.2353  0.4952
   39FTM     C215709  -2.324   5.089  -1.609  0.4301 -0.5798  0.5600
   39FTM     C315710  -2.305   5.127  -1.472  0.2079 -0.2844  0.5109
   39FTM     C415711  -2.202   5.215  -1.457 -0.2657  0.3060  0.4051
   39FTM     F115712  -2.425   5.001  -1.645  0.9122 -1.1835  0.6671
   39FTM     C515713  -2.209   5.123  -1.841 -0.5073 -0.2170  0.1818
   39FTM     C615714  -2.231   5.231  -1.943 -0.2231  1.6427  1.1813
   39FTM     C715715  -2.334   5.344  -1.905 -0.4098 -0.8428 -1.4468
   39FTM     C815716  -2.380   5.462  -1.991  0.2089  0.8026  0.9450
   39FTM     C915717  -2.302   5.588  -2.042  0.9869 -0.0442  1.0132
   39FTM    C1015718  -2.193   5.553  -2.149  0.9631  0.6100  1.3341
   39FTM    C1115719  -2.228   5.176  -2.088 -0.6813  1.5087 -0.7339
   39FTM    C1215720  -2.327   5.061  -2.132  0.2379 -1.8597 -0.4294
   40TPM     C115721  -1.704   5.094  -1.254 -0.0404  0.1269  0.1032
   40TPM     C215722  -1.605   5.080  -1.161 -0.3452 -0.4075  0.3636
   40TPM     C315723  -1.500   4.990  -1.201 -0.6018 -0.7823  0.5322
   40TPM     C415724  -1.520   4.934  -1.324 -0.4921 -0.5336  0.4003
   40TPM     S115725  -1.673   4.992  -1.399 -0.0532  0.1990  0.0498
   41BDD     C115726  -1.244   4.850  -1.587  0.2769  0.5488  0.0857
   41BDD     C215727  -1.243   4.745  -1.500  0.1233  0.4866  0.0136
   41BDD     C315728  -1.344   4.754  -1.397  0.0856  0.5240 -0.0262
   41BDD     C415729  -1.421   4.867  -1.406  0.2111  0.6142  0.0159
   41BDD     S115730  -1.373   4.968  -1.546  0.3848  0.6585  0.1082
   41BDD     C515731  -1.149   4.631  -1.509  0.0052  0.3908 -0.0210
   41BDD     C615732  -1.361   4.651  -1.292 -0.0734  0.4691 -0.1044
   41BDD     O115733  -1.448   4.659  -1.203 -0.1061  0.5012 -0.1388
   41BDD     O215734  -1.061   4.623  -1.598  0.0379  0.3585  0.0134
   41BDD     C715735  -1.266   4.538  -1.301 -0.1915  0.3729 -0.1395
   41BDD     C815736  -1.165   4.528  -1.404 -0.1535  0.3356 -0.0994
   41BDD     C915737  -1.088   4.416  -1.395 -0.2794  0.2455 -0.1416
   41BDD     S215738  -1.137   4.314  -1.255 -0.4528  0.2013 -0.2335
   41BDD    C1015739  -1.265   4.433  -1.214 -0.3452  0.3108 -0.2112
   41BDD    C1115740  -1.300   4.403  -1.062  0.0090 -0.4268 -0.2772
   41BDD    C1215741  -1.237   4.470  -0.952 -1.9551 -0.3854 -0.1360
   41BDD    C1315742  -1.351   4.492  -0.841  0.3053  1.6872  0.2926
   41BDD    C1415743  -1.332   4.556  -0.710  0.4001  0.4292  0.1398
   41BDD    C1515744  -1.457   4.541  -0.617  0.1152  0.8289 -0.3921
   41BDD    C1615745  -1.443   4.644  -0.492  1.1981 -1.2896  0.9854
   41BDD    C1715746  -1.083   4.458  -0.907  1.6255 -1.7784 -0.1220
   41BDD    C1815747  -1.040   4.318  -0.882  0.0572  1.1032 -0.6964
   41BDD    C1915748  -0.992   4.349  -1.493 -1.1251  0.2280  0.0754
   41BDD    C2015749  -0.877   4.277  -1.442 -1.0664 -0.6241 -1.2243
   41BDD    C2115750  -0.794   4.201  -1.544  0.5126  0.1872 -0.6564
   41BDD    C2215751  -0.724   4.294  -1.651  0.7962  0.2879  0.4294
   41BDD    C2315752  -0.591   4.363  -1.601  0.7348  1.3688  1.2593
   41BDD    C2415753  -0.485   4.265  -1.639  0.1858  0.9603 -0.0402
   41BDD    C2515754  -0.810   4.360  -1.335 -0.1731  0.0597 -0.7817
   41BDD    C2615755  -0.738   4.302  -1.210  1.6740 -0.6962  0.3215
   42TPM     C115756  -1.147   4.888  -1.696  0.5173 -0.1926  0.5481
   42TPM     C215757  -1.155   4.829  -1.819 -0.1175  0.3982  0.2904
   42TPM     C315758  -1.086   4.902  -1.923 -0.9179  1.0602  0.2067
   42TPM     C415759  -1.026   5.016  -1.879 -0.8932  0.9742  0.4007
   42TPM     S115760  -1.052   5.041  -1.702  0.1507  0.0432  0.7061
   43BDTP    C115761  -0.701   5.486  -2.140 -0.1955  0.1695 -0.2139
   43BDTP    C215762  -0.619   5.373  -2.169  0.0844  0.2989  0.0637
   43BDTP    C315763  -0.653   5.244  -2.130  0.2575  0.2700  0.1218
   43BDTP    C415764  -0.773   5.226  -2.060  0.1497  0.1059 -0.1040
   43BDTP    C515765  -0.855   5.339  -2.031 -0.1299 -0.0235 -0.3815
   43BDTP    C615766  -0.821   5.468  -2.070 -0.3034  0.0054 -0.4399
   43BDTP    C715767  -0.829   5.102  -2.010  0.2894  0.0459 -0.0954
   43BDTP    C815768  -0.948   5.116  -1.946  0.1299 -0.1200 -0.3500
   43BDTP    S115769  -1.005   5.289  -1.940 -0.2198 -0.2238 -0.6366
   43BDTP    C915770  -0.645   5.610  -2.190 -0.3352  0.2296 -0.2227
   43BDTP   C1015771  -0.526   5.596  -2.254 -0.1757  0.3955  0.0319
   43BDTP    S215772  -0.469   5.423  -2.260  0.1739  0.4992  0.3183
   44FTM     S115773  -0.392   5.115  -2.126 -0.3988  0.6778  0.0322
   44FTM     C115774  -0.388   4.939  -2.164  0.2434  0.7616 -0.3149
   44FTM     C215775  -0.513   4.895  -2.192  0.4983  0.5125 -1.1418
   44FTM     C315776  -0.618   4.993  -2.185  0.2162  0.2472 -1.5459
   44FTM     C415777  -0.571   5.116  -2.151 -0.2703  0.2952 -1.0109
   44FTM     F115778  -0.541   4.763  -2.225  1.0021  0.5094 -1.5817
   44FTM     C515779  -0.249   4.871  -2.131 -0.4436  0.2181 -1.1559
   44FTM     C615780  -0.099   4.891  -2.197  1.4478 -0.3968 -0.3661
   44FTM     C715781  -0.114   4.855  -2.352  0.2427 -0.5216 -1.2613
   44FTM     C815782  -0.143   4.721  -2.386  0.0684 -0.0248 -0.0311
   44FTM     C915783  -0.195   4.678  -2.530 -0.9819 -0.5460  0.3764
   44FTM    C1015784  -0.068   4.691  -2.629  1.8690  0.8214 -0.4557
   44FTM    C1115785  -0.022   5.007  -2.151 -1.0176  0.0937  0.2462
   44FTM    C1215786   0.119   5.032  -2.220 -0.5804  0.5960  0.1804
   45FTM     S115787  -0.821   5.718  -1.917 -0.5831  0.6289  0.3733
   45FTM     C115788  -0.973   5.812  -1.934 -0.6732  0.3552 -0.4287
   45FTM     C215789  -1.064   5.740  -2.005 -0.4728 -0.1738 -0.1616
   45FTM     C315790  -1.022   5.611  -2.049 -0.2429 -0.3929  0.6633
   45FTM     C415791  -0.895   5.582  -2.011 -0.2675 -0.0197  1.0401
   45FTM     F115792  -1.192   5.788  -2.034 -0.4857 -0.4907 -0.6478
   45FTM     C515793  -0.973   5.941  -1.853 -0.2831 -0.8819 -0.9552
   45FTM     C615794  -1.053   6.055  -1.913  0.2333 -0.9842  0.4986
   45FTM     C715795  -1.180   6.069  -1.850 -0.8872 -0.1740 -0.1671
   45FTM     C815796  -1.294   6.143  -1.926  0.3620  0.6082 -0.8968
   45FTM     C915797  -1.375   6.239  -1.845  0.8403  0.5965 -0.9956
   45FTM    C1015798  -1.367   6.378  -1.901  2.4678  0.0416  0.1547
   45FTM    C1115799  -1.033   6.109  -2.054  1.1080  0.5587 -0.6167
   45FTM    C1215800  -0.904   6.143  -2.116  0.5966  0.4132 -0.6124
   46TPM     C115801  -0.440   5.706  -2.278  0.4577 -0.5062  0.2356
   46TPM     C215802  -0.460   5.836  -2.315  0.7315 -0.4678  0.2146
   46TPM     C315803  -0.339   5.914  -2.322  0.8802 -0.6849  0.3467
   46TPM     C415804  -0.227   5.844  -2.289  0.7201 -0.8889  0.4688
   46TPM     S115805  -0.265   5.673  -2.248  0.3660 -0.8222  0.4260
   47BDD     C115806   0.150   5.890  -2.217 -0.0669 -0.3325 -0.3795
   47BDD     C215807   0.121   5.993  -2.302  0.0075 -0.2826 -0.3450
   47BDD     C315808  -0.019   5.997  -2.341 -0.0141 -0.0961 -0.2472
   47BDD     C415809  -0.094   5.898  -2.286 -0.1050 -0.0064 -0.2090
   47BDD     S115810   0.004   5.791  -2.180 -0.1693 -0.1493 -0.2925
   47BDD     C515811   0.221   6.091  -2.350  0.1013 -0.4047 -0.4001
   47BDD     C615812  -0.072   6.101  -2.433  0.0558 -0.0136 -0.1953
   47BDD     O115813  -0.193   6.105  -2.467  0.0372  0.1473 -0.1111
   47BDD     O215814   0.341   6.086  -2.316  0.1200 -0.5656 -0.4842
   47BDD     C715815   0.027   6.198  -2.481  0.1497 -0.1357 -0.2503
   47BDD     C815816   0.167   6.194  -2.442  0.1713 -0.3223 -0.3481
   47BDD     C915817   0.243   6.293  -2.497  0.2620 -0.4121 -0.3862
   47BDD     S215818   0.144   6.400  -2.603  0.3264 -0.2690 -0.3025
   47BDD    C1015819  -0.002   6.302  -2.566  0.2241 -0.0859 -0.2155
   47BDD    C1115820  -0.127   6.373  -2.608  0.1104  1.0810 -0.1809
   47BDD    C1215821  -0.150   6.376  -2.763  0.9212 -1.0687  0.1158
   47BDD    C1315822  -0.260   6.463  -2.826  0.3886 -0.6982 -0.2835
   47BDD    C1415823  -0.251   6.617  -2.800  0.3576  1.4467 -1.5248
   47BDD    C1515824  -0.155   6.682  -2.890  0.8277  0.3678  0.9549
   47BDD    C1615825  -0.209   6.722  -3.030  1.5651 -0.5118  0.5093
   47BDD    C1715826  -0.173   6.232  -2.826  0.3437 -0.3094 -0.2244
   47BDD    C1815827  -0.187   6.203  -2.977 -0.4462 -0.2533  0.7575
   47BDD    C1915828   0.387   6.331  -2.496  0.0183  1.7089  0.3280
   47BDD    C2015829   0.441   6.413  -2.390 -0.8428 -0.8423  0.3191
   47BDD    C2115830   0.531   6.302  -2.330  0.1963 -0.8347  0.4989
   47BDD    C2215831   0.612   6.306  -2.210  1.2973 -0.3209 -0.2357
   47BDD    C2315832   0.637   6.178  -2.122  1.2218  0.3722  0.1688
   47BDD    C2415833   0.756   6.070  -2.156  0.5934 -0.4781  0.5031
   47BDD    C2515834   0.472   6.558  -2.424 -0.9852  0.2796 -0.9010
   47BDD    C2615835   0.545   6.650  -2.324 -0.4262 -0.0027 -0.0540
   48TPM     C115836   0.271   5.841  -2.161 -0.3077  0.0600 -0.0810
   48TPM     C215837   0.325   5.723  -2.203 -0.2537  0.0138  0.1197
   48TPM     C315838   0.438   5.681  -2.125 -0.1014  0.3052  0.0577
   48TPM     C415839   0.471   5.767  -2.024 -0.0394  0.5734 -0.1899
   48TPM     S115840   0.360   5.909  -2.020 -0.1694  0.4783 -0.3655
   49BDTP    C115841   0.921   5.658  -1.583  0.0947 -0.1324  0.1416
   49BDTP    C215842   0.977   5.763  -1.662 -0.0421  0.0988  0.3500
   49BDTP    C315843   0.910   5.819  -1.770 -0.0728  0.1594  0.3998
   49BDTP    C415844   0.783   5.769  -1.803  0.0364 -0.0166  0.2365
   49BDTP    C515845   0.727   5.664  -1.724  0.1733 -0.2478  0.0277
   49BDTP    C615846   0.793   5.609  -1.616  0.2040 -0.3083 -0.0217
   49BDTP    C715847   0.695   5.811  -1.910  0.0298  0.0040  0.2500
   49BDTP    C815848   0.578   5.744  -1.916  0.1536 -0.1980  0.0639
   49BDTP    S115849   0.562   5.618  -1.786  0.2958 -0.4429 -0.1547
   49BDTP    C915850   1.008   5.616  -1.476  0.1013 -0.1531  0.1280
   49BDTP   C1015851   1.126   5.684  -1.470 -0.0224  0.0489  0.3140
   49BDTP    S215852   1.142   5.810  -1.600 -0.1646  0.2940  0.5328
   50FTM     S115853   1.025   6.068  -1.764 -0.4113  0.4898  0.2377
   50FTM     C115854   1.103   6.133  -1.913  0.3692 -0.4006  0.2384
   50FTM     C215855   1.087   6.046  -2.016  1.4040 -1.2845  0.7923
   50FTM     C315856   1.015   5.925  -1.986  1.6471 -1.3223  1.2393
   50FTM     C415857   0.974   5.921  -1.856  0.7699 -0.4386  1.0204
   50FTM     F115858   1.137   6.069  -2.143  2.1925 -2.1117  0.9274
   50FTM     C515859   1.163   6.277  -1.924 -0.9516 -0.8766  0.0212
   50FTM     C615860   1.180   6.370  -1.794  0.9858 -0.6120  0.8475
   50FTM     C715861   1.289   6.353  -1.694 -0.6343  1.1185  0.1412
   50FTM     C815862   1.324   6.208  -1.652 -0.4777 -1.4146 -0.3586
   50FTM     C915863   1.344   6.178  -1.499  0.9456 -0.8821 -2.2863
   50FTM    C1015864   1.468   6.107  -1.441  0.3930 -0.6037 -0.3779
   50FTM    C1115865   1.170   6.514  -1.852  2.3822 -1.0623 -0.4139
   50FTM    C1215866   1.263   6.584  -1.949 -1.8492 -0.6231 -0.1281
   51FTM     S115867   0.739   5.510  -1.351 -0.0809  0.0797  0.0927
   51FTM     C115868   0.646   5.356  -1.342  0.2234 -0.1273 -0.2456
   51FTM     C215869   0.615   5.314  -1.468  0.4337  0.0092 -0.3445
   51FTM     C315870   0.661   5.396  -1.576  0.3726  0.2766 -0.1676
   51FTM     C415871   0.729   5.505  -1.531  0.1068  0.3473  0.0750
   51FTM     F115872   0.543   5.198  -1.493  0.6941 -0.0999 -0.6011
   51FTM     C515873   0.616   5.289  -1.210 -0.1216 -0.3367  0.5853
   51FTM     C615874   0.662   5.148  -1.168 -0.4662  0.2956  0.0871
   51FTM     C715875   0.813   5.119  -1.161  0.4905  0.3831 -0.6437
   51FTM     C815876   0.920   5.222  -1.106  0.1728  0.0239  0.2815
   51FTM     C915877   0.906   5.285  -0.973 -0.1389  0.1670 -0.8294
   51FTM    C1015878   1.009   5.247  -0.863 -0.0321 -0.0391  0.8801
   51FTM    C1115879   0.561   5.070  -1.081  0.1172  0.2408 -0.2520
   51FTM    C1215880   0.429   5.064  -1.148 -0.7033  0.4778 -0.1164
   52TPM     C115881   1.243   5.622  -1.398  0.3253 -0.3933 -0.4048
   52TPM     C215882   1.368   5.674  -1.412  0.2896 -0.3494 -0.5672
   52TPM     C315883   1.470   5.597  -1.345  0.3109  0.0558 -0.1240
   52TPM     C415884   1.423   5.487  -1.281  0.3627  0.3208  0.3763
   52TPM     S115885   1.244   5.471  -1.299  0.3889  0.0773  0.3258
   53BDD     C115886   1.766   5.292  -1.238  0.1462 -0.3393  0.3129
   53BDD     C215887   1.681   5.206  -1.302  0.1136 -0.2854  0.2835
   53BDD     C315888   1.548   5.260  -1.323  0.0783 -0.2989  0.4716
   53BDD     C415889   1.534   5.387  -1.274  0.0846 -0.3631  0.6418
   53BDD     S115890   1.685   5.447  -1.199  0.1350 -0.4110  0.5779
   53BDD     C515891   1.719   5.070  -1.347  0.1136 -0.2191  0.0811
   53BDD     C615892   1.440   5.185  -1.390  0.0397 -0.2476  0.4754
   53BDD     O115893   1.326   5.232  -1.408  0.0092 -0.2593  0.6378
   53BDD     O215894   1.833   5.023  -1.329  0.1441 -0.2074 -0.0808
   53BDD     C715895   1.478   5.049  -1.435  0.0397 -0.1816  0.2737
   53BDD     C815896   1.611   4.995  -1.414  0.0750 -0.1680  0.0856
   53BDD     C915897   1.626   4.868  -1.463  0.0687 -0.1038 -0.0846
   53BDD     S215898   1.474   4.808  -1.538  0.0182 -0.0559 -0.0209
   53BDD    C1015899   1.393   4.963  -1.499  0.0070 -0.1274  0.2441
   53BDD    C1115900   1.247   4.967  -1.527  0.7435 -0.1127 -0.4592
   53BDD    C1215901   1.141   4.870  -1.474  0.3004  0.2098 -0.0462
   53BDD    C1315902   1.010   4.900  -1.556  0.0880 -0.3093 -0.3721
   53BDD    C1415903   1.007   4.862  -1.706 -1.1065  0.3041 -0.6435
   53BDD    C1515904   1.016   4.721  -1.748  0.1957 -0.8013  0.0303
   53BDD    C1615905   1.013   4.656  -1.890  1.7920  0.3522  0.5523
   53BDD    C1715906   1.100   4.892  -1.332 -0.0894 -1.2960 -0.1194
   53BDD    C1815907   1.196   4.889  -1.223  0.3083 -1.5451  0.1128
   53BDD    C1915908   1.735   4.761  -1.441  0.1795  0.2514  2.1379
   53BDD    C2015909   1.692   4.641  -1.343 -0.8022 -0.7313  0.9002
   53BDD    C2115910   1.581   4.669  -1.231  1.1821 -0.1364 -0.5964
   53BDD    C2215911   1.541   4.540  -1.142 -0.1949  0.0827  0.2573
   53BDD    C2315912   1.400   4.499  -1.158  1.3389  0.0399  0.4485
   53BDD    C2415913   1.357   4.476  -1.020  0.5406  0.0548 -1.5529
   53BDD    C2515914   1.800   4.538  -1.325  0.4370  0.6869  0.6775
   53BDD    C2615915   1.842   4.480  -1.467 -0.3385  0.0134  0.4360
   54TPM     C115916   1.911   5.292  -1.203  0.1872  0.4583  0.7908
   54TPM     C215917   1.998   5.385  -1.251  0.3203  0.1954  0.5138
   54TPM     C315918   2.133   5.368  -1.204  0.4632 -0.3188 -0.0577
   54TPM     C415919   2.149   5.262  -1.120  0.4389 -0.4478 -0.2159
   54TPM     S115920   1.994   5.174  -1.094  0.2322  0.0739  0.3481
   55BDTP    C115921   2.652   5.002  -0.851  0.0566 -0.0734  0.0348
   55BDTP    C215922   2.577   4.891  -0.901  0.0613  0.0476 -0.2382
   55BDTP    C315923   2.458   4.907  -0.970  0.0976  0.2156 -0.2642
   55BDTP    C415924   2.409   5.038  -0.989  0.1307  0.2671 -0.0083
   55BDTP    C515925   2.484   5.148  -0.938  0.1259  0.1460  0.2649
   55BDTP    C615926   2.603   5.132  -0.870  0.0898 -0.0221  0.2903
   55BDTP    C715927   2.288   5.079  -1.057  0.1710  0.4343  0.0195
   55BDTP    C815928   2.268   5.213  -1.060  0.1966  0.4442  0.2966
   55BDTP    S115929   2.400   5.306  -0.976  0.1730  0.2434  0.5615
   55BDTP    C915930   2.773   4.961  -0.783  0.0162 -0.2407  0.0069
   55BDTP   C1015931   2.793   4.827  -0.780 -0.0094 -0.2507 -0.2701
   55BDTP    S215932   2.661   4.734  -0.863  0.0142 -0.0500 -0.5353
   56FTM     S115933   2.289   4.689  -0.891 -0.0387  0.1698 -0.0609
   56FTM     C115934   2.241   4.578  -1.024  0.7252  0.3859 -0.5330
   56FTM     C215935   2.295   4.620  -1.141  1.0400  0.8358 -0.2341
   56FTM     C315936   2.375   4.738  -1.135  0.7144  1.0350  0.3655
   56FTM     C415937   2.383   4.789  -1.009  0.1310  0.7276  0.5315
   56FTM     F115938   2.275   4.553  -1.261  1.6419  1.0939 -0.4859
   56FTM     C515939   2.150   4.463  -0.973 -0.8424  0.9627 -0.1665
   56FTM     C615940   2.197   4.322  -1.002  1.5398  0.5840  0.5176
   56FTM     C715941   2.321   4.292  -0.956 -0.4589  0.0278  0.6817
   56FTM     C815942   2.363   4.300  -0.812 -1.2060  1.3158  0.6981
   56FTM     C915943   2.326   4.162  -0.750  1.0306 -0.0397  0.6967
   56FTM    C1015944   2.380   4.142  -0.610  0.5285  0.3377  0.4968
   56FTM    C1115945   2.155   4.256  -1.145 -0.4304 -0.3385 -1.2383
   56FTM    C1215946   2.037   4.285  -1.203 -0.5512  1.9672 -0.4751
   57FTM     S115947   2.670   5.420  -0.851  0.0537  0.5778  0.2308
   57FTM     C115948   2.691   5.487  -0.685 -0.0128  0.4932  0.2741
   57FTM     C215949   2.683   5.388  -0.593  0.3918  0.3802  0.1891
   57FTM     C315950   2.661   5.256  -0.645  0.7689  0.3530  0.0882
   57FTM     C415951   2.651   5.255  -0.781  0.6493  0.4485  0.0957
   57FTM     F115952   2.696   5.409  -0.457  0.4445  0.2942  0.1981
   57FTM     C515953   2.710   5.621  -0.646  1.6122 -0.1030  0.4769
   57FTM     C615954   2.815   5.723  -0.696  0.5081  0.7199 -1.4532
   57FTM     C715955   2.800   5.792  -0.826  1.0691  0.0062  0.7099
   57FTM     C815956   2.846   5.709  -0.945 -0.3648  0.3066 -0.5923
   57FTM     C915957   2.883   5.766  -1.072  0.5430 -1.6225  0.6096
   57FTM    C1015958   2.754   5.800  -1.160 -0.7603  0.2822  0.6489
   57FTM    C1115959   2.964   5.702  -0.645  0.9604  1.6401  0.0356
   57FTM    C1215960   3.056   5.819  -0.663  0.2160 -0.5427  0.4681
   58TPM     C115961   2.910   4.778  -0.703 -0.2709  0.0449  0.0204
   58TPM     C215962   2.985   4.836  -0.605 -0.0196  0.3338 -0.3369
   58TPM     C315963   3.095   4.755  -0.560  0.2782  0.5944 -0.5889
   58TPM     C415964   3.105   4.635  -0.624  0.2539  0.5042 -0.4239
   58TPM     S115965   2.974   4.615  -0.747 -0.1501  0.0796  0.0665
   59BDD     C115966   3.236   4.291  -0.499 -0.2214  0.1227 -0.8055
   59BDD     C215967   3.348   4.369  -0.509 -0.2014  0.1154 -0.6509
   59BDD     C315968   3.320   4.506  -0.551 -0.1627  0.1955 -0.4201
   59BDD     C415969   3.186   4.529  -0.572 -0.1536  0.2625 -0.4023
   59BDD     S115970   3.088   4.383  -0.541 -0.1930  0.2303 -0.6731
   59BDD     C515971   3.485   4.322  -0.481 -0.2173  0.0346 -0.7093
   59BDD     C615972   3.425   4.607  -0.569 -0.1362  0.2024 -0.2255
   59BDD     O115973   3.401   4.724  -0.605 -0.1028  0.2714 -0.0265
   59BDD     O215974   3.510   4.205  -0.445 -0.2505 -0.0345 -0.9081
   59BDD     C715975   3.562   4.560  -0.541 -0.1520  0.1217 -0.2835
   59BDD     C815976   3.591   4.424  -0.499 -0.1906  0.0416 -0.5143
   59BDD     C915977   3.724   4.400  -0.478 -0.1996 -0.0254 -0.5322
   59BDD     S215978   3.823   4.546  -0.509 -0.1604  0.0068 -0.2611
   59BDD    C1015979   3.674   4.638  -0.551 -0.1320  0.1146 -0.1287
   59BDD    C1115980   3.678   4.783  -0.562  0.0122 -0.2213  0.1950
   59BDD    C1215981   3.650   4.869  -0.432  0.6683  0.3201  0.4911
   59BDD    C1315982   3.668   5.012  -0.476  0.3769  0.9874  0.3337
   59BDD    C1415983   3.634   5.137  -0.398  0.3832 -0.2588 -0.2398
   59BDD    C1515984   3.680   5.261  -0.468 -0.1017 -0.3302 -0.7530
   59BDD    C1615985   3.724   5.373  -0.370  0.0370 -0.5488 -0.6905
   59BDD    C1715986   3.732   4.828  -0.310 -1.4689  0.0414 -0.4014
   59BDD    C1815987   3.720   4.879  -0.172  0.5341  0.7783  0.9588
   59BDD    C1915988   3.817   4.302  -0.398  0.9441  1.8279  0.7616
   59BDD    C2015989   3.947   4.257  -0.468 -0.2922  0.5017 -0.0912
   59BDD    C2115990   3.929   4.188  -0.611  1.0040 -0.0783  0.2649
   59BDD    C2215991   3.817   4.081  -0.639 -0.1680  0.2882 -0.2578
   59BDD    C2315992   3.792   3.952  -0.557 -0.2653  0.4807  0.0556
   59BDD    C2415993   3.768   3.823  -0.628 -0.0917 -0.1393  0.6420
   59BDD    C2515994   4.024   4.168  -0.364 -0.0510  0.2776  0.2616
   59BDD    C2615995   4.154   4.247  -0.331 -0.7104 -0.4744  1.1798
   60TPM     C115996   3.218   4.148  -0.443  0.6444  0.1734  0.4593
   60TPM     C215997   3.100   4.116  -0.383  0.5350 -0.0113  0.1507
   60TPM     C315998   3.090   3.977  -0.347  0.3877 -0.1658 -0.4666
   60TPM     C415999   3.200   3.903  -0.380  0.3848 -0.0989 -0.6288
   60TPM     S116000   3.326   4.004  -0.459  0.5694  0.1663 -0.0090
    1BDTP    C116001   9.059   8.338   1.744  0.3655 -0.2656  0.2347
    1BDTP    C216002   8.997   8.345   1.872  0.1626 -0.2208  0.1349
    1BDTP    C316003   9.046   8.424   1.975  0.0734 -0.2840  0.2270
    1BDTP    C416004   9.163   8.499   1.950  0.1893 -0.3963  0.4269
    1BDTP    C516005   9.225   8.492   1.822  0.3922 -0.4406  0.5268
    1BDTP    C616006   9.175   8.413   1.719  0.4812 -0.3774  0.4347
    1BDTP    C716007   9.233   8.588   2.041  0.1295 -0.4779  0.5531
    1BDTP    C816008   9.342   8.647   1.988  0.2759 -0.5798  0.7404
    1BDTP    S116009   9.373   8.598   1.815  0.5100 -0.5875  0.7834
    1BDTP    C916010   8.989   8.249   1.653  0.4253 -0.1838  0.1086
    1BDTP   C1016011   8.879   8.190   1.706  0.2789 -0.0815 -0.0787
    1BDTP    S216012   8.848   8.239   1.878  0.0450 -0.0741 -0.1218
    2FTM     S116013   9.056   8.408   2.259  0.0659 -0.3415 -0.2318
    2FTM     C116014   8.917   8.493   2.336  0.2943 -0.2956  0.1318
    2FTM     C216015   8.827   8.531   2.241  0.5996  0.7446  0.2311
    2FTM     C316016   8.860   8.497   2.106  0.6726  1.5497  0.0352
    2FTM     C416017   8.979   8.430   2.097  0.4152  1.1117 -0.2224
    2FTM     F116018   8.710   8.598   2.271  0.8307  1.0295  0.5051
    2FTM     C516019   8.939   8.524   2.490 -0.0974  0.3400 -0.1296
    2FTM     C616020   8.866   8.424   2.567 -1.3273 -0.4222 -0.2282
    2FTM     C716021   8.733   8.478   2.621  0.0743 -0.1033 -0.9895
    2FTM     C816022   8.613   8.566   2.553 -1.0395 -0.4997 -0.4165
    2FTM     C916023   8.495   8.602   2.659  0.0334 -0.1440 -0.0341
    2FTM    C1016024   8.467   8.463   2.736  1.8179 -0.0226  1.9855
    2FTM    C1116025   8.964   8.366   2.686  0.7573 -0.4185  0.7790
    2FTM    C1216026   9.103   8.348   2.659 -1.3174  0.2954 -0.3282
    3FTM     S116027   9.281   8.300   1.466 -0.5637 -0.5640 -0.1784
    3FTM     C116028   9.359   8.416   1.354 -0.1640 -0.3931  0.2678
    3FTM     C216029   9.359   8.541   1.409  0.4199 -0.6256  0.8205
    3FTM     C316030   9.300   8.553   1.539  0.5882 -0.9432  0.9281
    3FTM     C416031   9.253   8.433   1.585  0.1177 -0.9544  0.4419
    3FTM     F116032   9.413   8.651   1.344  0.8364 -0.5648  1.2619
    3FTM     C516033   9.415   8.367   1.215  1.2009 -0.5115 -0.6121
    3FTM     C616034   9.319   8.383   1.101 -0.6713  0.5526  1.4068
    3FTM     C716035   9.197   8.278   1.112 -1.8150 -0.6222  0.3442
    3FTM     C816036   9.177   8.146   1.188 -0.8661  0.2118 -0.1485
    3FTM     C916037   9.028   8.101   1.202 -0.4705  0.3089  1.3527
    3FTM    C1016038   8.961   8.060   1.067 -0.9513 -0.8575 -0.5114
    3FTM    C1116039   9.381   8.395   0.957 -1.2811  0.6208  0.7628
    3FTM    C1216040   9.435   8.526   0.891 -0.3350  0.2996 -0.1383
    4TPM     C116041   8.778   8.097   1.655 -0.7447  1.5386 -0.0673
    4TPM     C216042   8.679   8.038   1.727 -1.2279  2.4791  0.0632
    4TPM     C316043   8.575   7.979   1.647 -0.8166  1.6481  0.1233
    4TPM     C416044   8.595   7.993   1.512 -0.0196  0.0740  0.0386
    4TPM     S116045   8.748   8.082   1.477  0.2750 -0.4852 -0.1249
    5BDD     C116046   8.351   7.789   1.282  0.0381  0.5338 -0.0275
    5BDD     C216047   8.340   7.919   1.243  0.0017  0.5255 -0.0443
    5BDD     C316048   8.423   8.010   1.320  0.0618  0.5441 -0.1305
    5BDD     C416049   8.496   7.948   1.417  0.1432  0.5660 -0.1781
    5BDD     S116050   8.467   7.771   1.418  0.1502  0.5652 -0.1183
    5BDD     C516051   8.252   7.965   1.133 -0.0899  0.5004  0.0183
    5BDD     C616052   8.426   8.156   1.295  0.0362  0.5393 -0.1624
    5BDD     O116053   8.498   8.234   1.361  0.0880  0.5550 -0.2367
    5BDD     O216054   8.180   7.887   1.067 -0.1416  0.4846  0.0926
    5BDD     C716055   8.338   8.202   1.185 -0.0551  0.5140 -0.0999
    5BDD     C816056   8.255   8.111   1.108 -0.1154  0.4957 -0.0137
    5BDD     C916057   8.181   8.173   1.011 -0.1967  0.4735  0.0339
    5BDD     S216058   8.211   8.350   1.010 -0.2035  0.4744 -0.0258
    5BDD    C1016059   8.326   8.332   1.146 -0.0916  0.5057 -0.1167
    5BDD    C1116060   8.386   8.460   1.207 -0.1880  0.5281  0.5456
    5BDD    C1216061   8.325   8.548   1.327  0.6527  0.4685  0.3510
    5BDD    C1316062   8.394   8.512   1.458  0.6054 -1.0216 -0.0238
    5BDD    C1416063   8.546   8.518   1.457 -0.2675  0.2770 -1.0257
    5BDD    C1516064   8.627   8.613   1.355  1.9097 -0.7065 -0.3445
    5BDD    C1616065   8.775   8.627   1.409  0.2989 -0.8519 -1.3065
    5BDD    C1716066   8.187   8.518   1.396 -0.4424 -1.3062 -0.0676
    5BDD    C1816067   8.041   8.526   1.333 -0.3591 -0.1278  1.1762
    5BDD    C1916068   8.060   8.145   0.930  0.9039  1.1761  0.5841
    5BDD    C2016069   8.102   8.122   0.782  1.6023  0.2464 -1.0225
    5BDD    C2116070   8.176   8.228   0.698  0.6961  0.0278 -1.3907
    5BDD    C2216071   8.301   8.211   0.607  1.2837  0.2187 -0.9040
    5BDD    C2316072   8.247   8.199   0.464 -1.2320  1.1935  0.4937
    5BDD    C2416073   8.351   8.240   0.363  0.6144  0.4652  0.8937
    5BDD    C2516074   8.064   7.986   0.735  1.8420  0.5786 -0.4139
    5BDD    C2616075   7.941   7.971   0.639  0.5927 -0.4154 -0.4245
    6TPM     C116076   8.275   7.667   1.252 -0.0157 -0.4210 -0.3353
    6TPM     C216077   8.334   7.547   1.225 -0.6301 -0.9106  0.3830
    6TPM     C316078   8.241   7.442   1.195 -1.1709 -0.5232  0.6700
    6TPM     C416079   8.111   7.481   1.200 -0.9693  0.2617  0.1707
    6TPM     S116080   8.095   7.655   1.243 -0.0735  0.5749 -0.7077
    7BDTP    C116081   7.580   7.261   0.944  0.2352  0.1515 -0.0442
    7BDTP    C216082   7.561   7.219   1.079  0.1923  0.0654 -0.0764
    7BDTP    C316083   7.656   7.241   1.178  0.1777 -0.0317 -0.0399
    7BDTP    C416084   7.774   7.308   1.142  0.2066 -0.0446  0.0318
    7BDTP    C516085   7.793   7.350   1.007  0.2495  0.0416  0.0641
    7BDTP    C616086   7.698   7.328   0.908  0.2643  0.1387  0.0275
    7BDTP    C716087   7.886   7.343   1.227  0.1987 -0.1376  0.0803
    7BDTP    C816088   7.987   7.408   1.163  0.2333 -0.1256  0.1465
    7BDTP    S116089   7.953   7.434   0.987  0.2806  0.0051  0.1568
    7BDTP    C916090   7.467   7.226   0.859  0.2431  0.2445 -0.0926
    7BDTP   C1016091   7.367   7.161   0.923  0.2086  0.2326 -0.1589
    7BDTP    S216092   7.401   7.135   1.100  0.1613  0.1018 -0.1692
    8FTM     S116093   7.578   7.282   1.448  0.3498  0.0651 -0.2360
    8FTM     C116094   7.555   7.138   1.552  0.4143  0.1873 -0.0517
    8FTM     C216095   7.587   7.025   1.483  0.4063  0.1091  0.0719
    8FTM     C316096   7.631   7.044   1.348  0.3510 -0.0468  0.0317
    8FTM     C416097   7.632   7.175   1.312  0.3150 -0.0894 -0.1278
    8FTM     F116098   7.579   6.898   1.538  0.4487  0.1742  0.2287
    8FTM     C516099   7.535   7.136   1.700  0.2737  0.4338 -0.6583
    8FTM     C616100   7.425   7.217   1.781  0.6624  0.4149  0.2537
    8FTM     C716101   7.512   7.320   1.875  0.8541  0.6640  0.6869
    8FTM     C816102   7.587   7.254   1.987 -0.0982 -0.3566  1.2633
    8FTM     C916103   7.730   7.247   1.998 -1.5637 -0.4898  0.7936
    8FTM    C1016104   7.800   7.371   2.025 -0.4330 -0.3340  1.4381
    8FTM    C1116105   7.281   7.239   1.722  0.6437 -1.1737  1.2209
    8FTM    C1216106   7.271   7.343   1.610  0.2678 -1.4382 -0.3688
    9FTM     S116107   7.732   7.223   0.629 -0.1748 -0.2284  0.1093
    9FTM     C116108   7.745   7.353   0.504  0.4428 -0.1607  0.2422
    9FTM     C216109   7.755   7.474   0.565  0.6171 -0.2338  0.3619
    9FTM     C316110   7.753   7.474   0.708  0.2888 -0.3443  0.3576
    9FTM     C416111   7.741   7.348   0.759 -0.1509 -0.3561  0.2306
    9FTM     F116112   7.767   7.593   0.494  1.0841 -0.2052  0.4824
    9FTM     C516113   7.689   7.319   0.365  0.0984  1.1985  0.0763
    9FTM     C616114   7.549   7.248   0.350 -0.4976  0.1122  1.1959
    9FTM     C716115   7.469   7.373   0.323 -0.3359  1.0413 -0.7670
    9FTM     C816116   7.326   7.367   0.331  0.5284  0.1043 -0.2941
    9FTM     C916117   7.252   7.378   0.190  0.5988 -0.2432 -0.7949
    9FTM    C1016118   7.247   7.520   0.151 -0.6532 -1.0623  0.6103
    9FTM    C1116119   7.536   7.167   0.213  0.1408 -0.2291 -0.6202
    9FTM    C1216120   7.601   7.043   0.191 -1.0168 -0.3148  0.1652
   10TPM     C116121   7.244   7.128   0.858  0.5329 -0.3943 -0.3620
   10TPM     C216122   7.123   7.112   0.919  0.9359 -1.6892  0.1518
   10TPM     C316123   7.013   7.098   0.827  0.5821 -1.9866  0.6099
   10TPM     C416124   7.050   7.104   0.696 -0.0908 -0.9185  0.4454
   10TPM     S116125   7.228   7.128   0.679 -0.3315  0.5572 -0.3068
   11BDD     C116126   6.904   7.009   0.343 -0.1275 -0.3768  0.3652
   11BDD     C216127   6.794   7.051   0.413 -0.1377 -0.2601  0.2810
   11BDD     C316128   6.825   7.093   0.549 -0.1384  0.0840  0.1752
   11BDD     C416129   6.958   7.083   0.580 -0.1290  0.2249  0.1803
   11BDD     S116130   7.054   7.020   0.442 -0.1185 -0.0637  0.3179
   11BDD     C516131   6.657   7.053   0.358 -0.1467 -0.4611  0.2947
   11BDD     C616132   6.721   7.142   0.642 -0.1485  0.2605  0.0729
   11BDD     O116133   6.748   7.178   0.759 -0.1493  0.5572 -0.0183
   11BDD     O216134   6.631   7.016   0.241 -0.1460 -0.7577  0.3859
   11BDD     C716135   6.584   7.144   0.587 -0.1578  0.0596  0.0866
   11BDD     C816136   6.554   7.102   0.451 -0.1570 -0.2844  0.1924
   11BDD     C916137   6.421   7.111   0.420 -0.1665 -0.4256  0.1873
   11BDD     S216138   6.325   7.174   0.558 -0.1770 -0.1370  0.0497
   11BDD    C1016139   6.474   7.186   0.657 -0.1680  0.1760  0.0024
   11BDD    C1116140   6.430   7.201   0.795 -0.1728 -0.6488 -0.9435
   11BDD    C1216141   6.445   7.104   0.916 -0.1812 -0.2721 -0.0709
   11BDD    C1316142   6.402   7.171   1.050 -0.3879 -0.5221  0.3868
   11BDD    C1416143   6.303   7.280   1.086  0.5419 -0.5590 -0.2557
   11BDD    C1516144   6.312   7.330   1.227  0.4220  1.0659 -0.2003
   11BDD    C1616145   6.394   7.462   1.220 -0.3001 -0.0248 -1.0458
   11BDD    C1716146   6.432   6.956   0.879  0.6108 -0.7852  0.3797
   11BDD    C1816147   6.436   6.858   0.996  0.1967 -0.0056  0.1677
   11BDD    C1916148   6.351   7.056   0.297  0.3941 -0.2679  0.7925
   11BDD    C2016149   6.203   7.061   0.292  0.6567 -0.5217 -1.5538
   11BDD    C2116150   6.127   7.172   0.213  0.7818 -0.7353  0.8867
   11BDD    C2216151   6.124   7.128   0.074 -0.6744  0.0427 -0.0057
   11BDD    C2316152   6.138   7.230  -0.042 -0.6020 -0.7136  0.4685
   11BDD    C2416153   6.180   7.168  -0.171  0.5394  0.2870 -0.5819
   11BDD    C2516154   6.131   6.936   0.344 -0.8711 -1.5611 -0.8548
   11BDD    C2616155   6.000   6.933   0.423  0.5808  0.6381 -0.0940
   12TPM     C116156   6.938   6.969   0.207  0.0379 -0.3484 -0.4865
   12TPM     C216157   7.026   7.040   0.130  0.3431 -0.4994 -0.2849
   12TPM     C316158   7.037   6.991  -0.005  0.6115 -0.5507 -0.2438
   12TPM     C416159   6.959   6.883  -0.031  0.5111 -0.4389 -0.4141
   12TPM     S116160   6.864   6.833   0.114  0.0661 -0.2588 -0.6413
   13BDTP    C116161   6.945   6.534  -0.544 -0.3335  0.0004 -0.2303
   13BDTP    C216162   6.817   6.510  -0.486 -0.2700 -0.1835 -0.1650
   13BDTP    C316163   6.774   6.573  -0.371 -0.3181 -0.2164 -0.1645
   13BDTP    C416164   6.861   6.665  -0.309 -0.4339 -0.0608 -0.2320
   13BDTP    C516165   6.989   6.689  -0.367 -0.4973  0.1230 -0.2973
   13BDTP    C616166   7.032   6.626  -0.482 -0.4493  0.1559 -0.2977
   13BDTP    C716167   6.838   6.743  -0.189 -0.5019 -0.0602 -0.2454
   13BDTP    C816168   6.941   6.824  -0.154 -0.6118  0.1131 -0.3171
   13BDTP    S116169   7.082   6.812  -0.269 -0.6450  0.2998 -0.3767
   13BDTP    C916170   6.969   6.456  -0.664 -0.2656 -0.0004 -0.2165
   13BDTP   C1016171   6.865   6.376  -0.698 -0.1552 -0.1736 -0.1454
   13BDTP    S216172   6.724   6.387  -0.584 -0.1225 -0.3602 -0.0855
   14FTM     S116173   6.522   6.691  -0.324 -0.0100  0.1098  0.1666
   14FTM     C116174   6.405   6.604  -0.218 -0.5186  0.1162 -0.3785
   14FTM     C216175   6.458   6.485  -0.179 -1.0738 -0.2975 -0.8476
   14FTM     C316176   6.590   6.455  -0.228 -1.1357 -0.6366 -0.8121
   14FTM     C416177   6.639   6.555  -0.307 -0.6110 -0.4773 -0.2997
   14FTM     F116178   6.391   6.396  -0.096 -1.5587 -0.3937 -1.3361
   14FTM     C516179   6.271   6.661  -0.198 -0.5439  1.3080  0.5517
   14FTM     C616180   6.144   6.592  -0.225  0.1894  0.6071  0.1856
   14FTM     C716181   6.156   6.491  -0.345 -0.9214 -0.9351  0.4587
   14FTM     C816182   6.097   6.349  -0.335 -0.4084 -1.2274  0.3676
   14FTM     C916183   6.200   6.254  -0.312 -0.0316 -0.7680  0.1559
   14FTM    C1016184   6.157   6.124  -0.380  1.0210 -0.3615  0.3191
   14FTM    C1116185   6.007   6.640  -0.195  1.0078 -0.8804 -0.8777
   14FTM    C1216186   6.010   6.727  -0.071  0.6644 -1.3308 -0.6745
   15FTM     S116187   7.308   6.554  -0.588  0.3164  0.5077 -0.6014
   15FTM     C116188   7.371   6.664  -0.716  0.0597  0.7041 -0.5585
   15FTM     C216189   7.288   6.771  -0.729 -0.0800  0.6199 -0.3741
   15FTM     C316190   7.173   6.773  -0.643  0.0023  0.4028 -0.2575
   15FTM     C416191   7.168   6.665  -0.561  0.2117  0.3179 -0.3556
   15FTM     F116192   7.311   6.873  -0.821 -0.2903  0.7344 -0.2995
   15FTM     C516193   7.499   6.651  -0.779 -1.4273 -0.3557 -0.5328
   15FTM     C616194   7.640   6.693  -0.715  0.1876  0.0304 -1.1460
   15FTM     C716195   7.752   6.648  -0.803 -0.2612  0.8503  1.4048
   15FTM     C816196   7.835   6.721  -0.897  1.2912 -0.1575  0.2680
   15FTM     C916197   7.889   6.843  -0.854 -0.0249 -0.8080 -0.1781
   15FTM    C1016198   8.031   6.843  -0.925 -0.2788 -0.2596  0.0927
   15FTM    C1116199   7.660   6.640  -0.569  0.6842 -0.5933  0.3525
   15FTM    C1216200   7.566   6.701  -0.462  0.1843  1.1672 -0.1603
   16TPM     C116201   6.849   6.265  -0.795 -0.7311 -0.9870  0.1306
   16TPM     C216202   6.898   6.139  -0.815 -1.4151 -1.2621  0.1438
   16TPM     C316203   6.813   6.057  -0.898 -1.6190 -0.6428 -0.2780
   16TPM     C416204   6.701   6.120  -0.941 -1.0907  0.1045 -0.6124
   16TPM     S116205   6.692   6.289  -0.879 -0.2882  0.0840 -0.4194
   17BDD     C116206   6.338   5.957  -0.963  0.0369 -0.1488  0.7479
   17BDD     C216207   6.418   5.877  -1.040 -0.0256  0.0107  0.5181
   17BDD     C316208   6.559   5.914  -1.035 -0.1036  0.4191 -0.0439
   17BDD     C416209   6.584   6.021  -0.953 -0.0994  0.5653 -0.2346
   17BDD     S116210   6.433   6.083  -0.877  0.0023  0.2015  0.2763
   17BDD     C516211   6.369   5.765  -1.122 -0.0157 -0.2067  0.8070
   17BDD     C616212   6.663   5.842  -1.111 -0.1792  0.6499 -0.3712
   17BDD     O116213   6.784   5.874  -1.106 -0.2464  1.0021 -0.8559
   17BDD     O216214   6.248   5.733  -1.127  0.0515 -0.5590  1.2913
   17BDD     C716215   6.613   5.730  -1.193 -0.1695  0.4325 -0.0825
   17BDD     C816216   6.473   5.693  -1.198 -0.0916  0.0240  0.4797
   17BDD     C916217   6.448   5.586  -1.280 -0.0957 -0.1221  0.6707
   17BDD     S216218   6.599   5.524  -1.356 -0.1974  0.2417  0.1596
   17BDD    C1016219   6.693   5.651  -1.270 -0.2320  0.5920 -0.3116
   17BDD    C1116220   6.836   5.656  -1.303 -1.0089 -0.1652  0.8431
   17BDD    C1216221   6.873   5.735  -1.436 -0.0214 -0.6077  1.3508
   17BDD    C1316222   6.991   5.838  -1.419 -0.2796 -0.0816 -0.7291
   17BDD    C1416223   7.048   5.924  -1.527  1.0478 -0.0801 -0.0927
   17BDD    C1516224   7.139   6.035  -1.471  0.0033  0.7890 -0.7940
   17BDD    C1616225   7.249   6.057  -1.557 -0.0243 -0.4872 -0.5709
   17BDD    C1716226   6.818   5.672  -1.565 -0.4582  0.0560 -0.2673
   17BDD    C1816227   6.910   5.564  -1.627 -0.8777 -0.7632  1.1555
   17BDD    C1916228   6.312   5.522  -1.339 -1.1490  0.9778 -0.8090
   17BDD    C2016229   6.278   5.557  -1.487 -1.2051  0.1713  1.4215
   17BDD    C2116230   6.147   5.615  -1.518  0.5063 -0.5775 -0.2063
   17BDD    C2216231   6.080   5.732  -1.440  0.1128  1.1169 -0.8031
   17BDD    C2316232   5.934   5.763  -1.459  0.7558 -0.5988  1.0418
   17BDD    C2416233   5.903   5.875  -1.373 -1.0399 -0.2020 -0.4326
   17BDD    C2516234   6.335   5.475  -1.601 -0.5797  1.0892  0.0789
   17BDD    C2616235   6.323   5.317  -1.594 -1.0007  0.0600  1.5167
   18TPM     C116236   6.195   5.977  -0.947  0.4565  0.1854 -0.4879
   18TPM     C216237   6.151   6.023  -0.827  1.0011  0.3194 -0.3316
   18TPM     C316238   6.007   6.020  -0.813  1.0611  0.2822  0.3455
   18TPM     C416239   5.943   5.971  -0.923  0.5617  0.1200  0.7051
   18TPM     S116240   6.059   5.925  -1.053 -0.0273  0.0004  0.2130
   19BDTP    C116241   5.311   5.941  -0.897  0.1806 -0.0165  0.0515
   19BDTP    C216242   5.334   5.872  -1.020  0.1633  0.1689 -0.0565
   19BDTP    C316243   5.461   5.857  -1.074  0.1551  0.2561 -0.1006
   19BDTP    C416244   5.570   5.912  -1.005  0.1639  0.1563 -0.0350
   19BDTP    C516245   5.547   5.981  -0.882  0.1813 -0.0290  0.0730
   19BDTP    C616246   5.420   5.996  -0.828  0.1894 -0.1161  0.1172
   19BDTP    C716247   5.710   5.909  -1.042  0.1583  0.2173 -0.0629
   19BDTP    C816248   5.792   5.971  -0.954  0.1699  0.0887  0.0184
   19BDTP    S116249   5.704   6.043  -0.812  0.1900 -0.1281  0.1407
   19BDTP    C916250   5.171   5.944  -0.861  0.1864 -0.0775  0.0792
   19BDTP   C1016251   5.089   5.882  -0.949  0.1749  0.0511 -0.0014
   19BDTP    S216252   5.178   5.810  -1.090  0.1545  0.2679 -0.1244
   20FTM     S116253   5.567   5.672  -1.282 -0.2369  0.1448  0.2241
   20FTM     C116254   5.496   5.706  -1.444 -0.7294 -0.6180  0.2704
   20FTM     C216255   5.412   5.813  -1.437 -1.1390 -0.9207  0.1266
   20FTM     C316256   5.399   5.874  -1.308 -1.0961 -0.5860 -0.0246
   20FTM     C416257   5.475   5.811  -1.213 -0.6385 -0.0082  0.0044
   20FTM     F116258   5.343   5.863  -1.546 -1.5775 -1.5190  0.1235
   20FTM     C516259   5.577   5.647  -1.567  0.7537 -0.1328  0.2758
   20FTM     C616260   5.602   5.493  -1.596  1.0098 -0.3048  1.0706
   20FTM     C716261   5.606   5.402  -1.474 -0.1948 -0.5776 -0.5669
   20FTM     C816262   5.750   5.388  -1.412  0.3038 -0.2567 -0.3282
   20FTM     C916263   5.774   5.317  -1.278  1.3642 -1.4854 -0.0847
   20FTM    C1016264   5.643   5.325  -1.186  0.2079  0.5230  0.7877
   20FTM    C1116265   5.675   5.463  -1.727 -0.4264  0.4909 -0.5249
   20FTM    C1216266   5.610   5.527  -1.846 -0.3067 -0.3038  0.1819
   21FTM     S116267   5.516   6.100  -0.574 -0.3307 -0.0142 -0.1933
   21FTM     C116268   5.436   6.249  -0.512 -0.2942 -0.1353  0.1521
   21FTM     C216269   5.331   6.282  -0.593  0.1192  0.4487 -0.1571
   21FTM     C316270   5.308   6.196  -0.705  0.4252  1.0121 -0.6690
   21FTM     C416271   5.397   6.093  -0.710  0.2402  0.8546 -0.7546
   21FTM     F116272   5.251   6.393  -0.570  0.2450  0.5074  0.0055
   21FTM     C516273   5.464   6.309  -0.377 -0.3407  0.2208 -0.4028
   21FTM     C616274   5.550   6.425  -0.327 -0.5103 -0.7625 -0.8263
   21FTM     C716275   5.488   6.455  -0.187  0.4877 -0.2180  0.3769
   21FTM     C816276   5.496   6.581  -0.137 -0.8653 -0.2744  1.3341
   21FTM     C916277   5.446   6.622   0.002 -0.0481  0.9745  0.5522
   21FTM    C1016278   5.436   6.772   0.033  0.0527  1.0951 -0.0019
   21FTM    C1116279   5.707   6.430  -0.330 -0.3128  0.8113  0.1742
   21FTM    C1216280   5.768   6.368  -0.459 -0.0673 -0.5751  0.4631
   22TPM     C116281   4.951   5.842  -0.925  0.1378  0.9032 -0.4122
   22TPM     C216282   4.878   5.780  -1.022  0.1870  0.7915 -0.3786
   22TPM     C316283   4.737   5.778  -0.996  0.2549  0.0467 -0.0231
   22TPM     C416284   4.702   5.838  -0.879  0.2572 -0.4099  0.2143
   22TPM     S116285   4.846   5.902  -0.792  0.1733  0.0696  0.0063
   23BDD     C116286   4.388   5.741  -0.667  0.3089 -0.4518 -0.5577
   23BDD     C216287   4.358   5.858  -0.730  0.1252 -0.3405 -0.2654
   23BDD     C316288   4.463   5.905  -0.818  0.1069  0.1101 -0.0553
   23BDD     C416289   4.572   5.822  -0.822  0.2770  0.3360 -0.1904
   23BDD     S116290   4.550   5.680  -0.714  0.4718 -0.0004 -0.5903
   23BDD     C516291   4.231   5.932  -0.711 -0.0404 -0.6441 -0.1681
   23BDD     C616292   4.452   6.030  -0.896 -0.0786  0.3006  0.2723
   23BDD     O116293   4.543   6.070  -0.972 -0.0943  0.6894  0.4535
   23BDD     O216294   4.140   5.892  -0.635 -0.0248 -1.0326 -0.3490
   23BDD     C716295   4.326   6.104  -0.877 -0.2440 -0.0031  0.3693
   23BDD     C816296   4.221   6.058  -0.789 -0.2258 -0.4538  0.1593
   23BDD     C916297   4.112   6.141  -0.785 -0.3959 -0.6794  0.2944
   23BDD     S216298   4.134   6.283  -0.893 -0.5907 -0.3432  0.6941
   23BDD    C1016299   4.296   6.222  -0.940 -0.4277  0.1084  0.6616
   23BDD    C1116300   4.374   6.310  -1.053 -0.1824  0.6143 -0.7008
   23BDD    C1216301   4.474   6.428  -1.023  0.0471  2.1182  1.1543
   23BDD    C1316302   4.560   6.443  -0.905 -0.4264  0.2132  0.0644
   23BDD    C1416303   4.715   6.422  -0.928  0.1599 -0.6427 -0.6637
   23BDD    C1516304   4.814   6.446  -0.811  0.8292  0.4730 -0.2281
   23BDD    C1616305   4.777   6.354  -0.686  0.2523 -0.6361  0.8835
   23BDD    C1716306   4.537   6.490  -1.153 -0.5237  0.3237  1.2500
   23BDD    C1816307   4.448   6.580  -1.237  0.2024  0.2875  0.2641
   23BDD    C1916308   3.979   6.155  -0.725 -0.0960  1.2724 -0.4935
   23BDD    C2016309   3.978   6.185  -0.570 -1.3159  0.2149  1.6838
   23BDD    C2116310   3.948   6.075  -0.484 -0.4144  0.9559 -0.0804
   23BDD    C2216311   3.789   6.024  -0.442 -1.7012 -0.3527  1.3147
   23BDD    C2316312   3.788   5.890  -0.378 -1.0749 -0.1735 -1.8670
   23BDD    C2416313   3.898   5.870  -0.268 -1.1171 -0.0597  0.3259
   23BDD    C2516314   3.889   6.291  -0.510 -0.7036  0.2797  1.6412
   23BDD    C2616315   3.880   6.434  -0.569  0.7802 -0.1443  0.0236
   24TPM     C116316   4.332   5.650  -0.557 -0.5468  0.3460  1.2384
   24TPM     C216317   4.256   5.686  -0.450 -0.6149 -0.6343  1.5383
   24TPM     C316318   4.237   5.580  -0.354 -0.2300 -1.3696  0.8287
   24TPM     C416319   4.300   5.464  -0.387  0.1313 -0.9498 -0.0120
   24TPM     S116320   4.387   5.479  -0.544  0.0129  0.4170  0.0272
   25BDTP    C116321   4.191   4.872  -0.210  0.0334  0.0746 -0.0300
   25BDTP    C216322   4.124   4.948  -0.110 -0.1259  0.2011 -0.2298
   25BDTP    C316323   4.128   5.087  -0.105 -0.1419  0.2074 -0.4041
   25BDTP    C416324   4.201   5.154  -0.205  0.0058  0.0832 -0.3803
   25BDTP    C516325   4.268   5.079  -0.305  0.1653 -0.0433 -0.1805
   25BDTP    C616326   4.264   4.940  -0.309  0.1813 -0.0496 -0.0063
   25BDTP    C716327   4.219   5.297  -0.221  0.0208  0.0639 -0.5378
   25BDTP    C816328   4.296   5.332  -0.327  0.1816 -0.0690 -0.4668
   25BDTP    S116329   4.355   5.189  -0.422  0.3366 -0.1888 -0.1903
   25BDTP    C916330   4.173   4.729  -0.194  0.0185  0.0937  0.1276
   25BDTP   C1016331   4.097   4.695  -0.088 -0.1422  0.2267  0.0563
   25BDTP    S216332   4.037   4.838   0.007 -0.2974  0.3464 -0.2200
   26FTM     S116333   3.915   5.251  -0.032 -0.4731  0.2887 -0.1378
   26FTM     C116334   3.900   5.285   0.145 -0.0886 -0.5272  0.0599
   26FTM     C216335   4.002   5.225   0.212  0.2006 -0.6397 -0.4664
   26FTM     C316336   4.096   5.151   0.132  0.1422 -0.1111 -1.0415
   26FTM     C416337   4.065   5.154  -0.000 -0.2030  0.4235 -0.9527
   26FTM     F116338   4.017   5.233   0.350  0.5354 -1.2280 -0.4585
   26FTM     C516339   3.791   5.388   0.190  0.2524  0.6706 -0.1811
   26FTM     C616340   3.646   5.336   0.197 -0.8698  0.0729  0.5639
   26FTM     C716341   3.533   5.441   0.198  0.0330  1.2776  0.2466
   26FTM     C816342   3.526   5.545   0.304  0.4906 -0.6783 -1.2488
   26FTM     C916343   3.388   5.612   0.333 -1.2487  0.1739 -0.6211
   26FTM    C1016344   3.369   5.674   0.466 -1.4157  0.0306  1.1269
   26FTM    C1116345   3.628   5.176   0.220  0.8648  0.2832 -0.0792
   26FTM    C1216346   3.583   5.139   0.357 -0.8784  1.2141  0.3934
   27FTM     S116347   4.540   4.861  -0.318 -0.1703  0.6007 -0.0697
   27FTM     C116348   4.590   4.748  -0.449  0.0371 -0.0390  0.5492
   27FTM     C216349   4.482   4.712  -0.523  0.1161 -0.5811  0.6859
   27FTM     C316350   4.356   4.769  -0.484  0.0226 -0.5333  0.3266
   27FTM     C416351   4.369   4.851  -0.376 -0.1334  0.0650 -0.0998
   27FTM     F116352   4.490   4.626  -0.632  0.2781 -1.1530  1.1446
   27FTM     C516353   4.728   4.730  -0.486 -1.3194 -0.2791  0.6358
   27FTM     C616354   4.853   4.731  -0.400  0.5745  2.4968  0.5856
   27FTM     C716355   4.992   4.757  -0.452  1.5765 -0.8499 -0.0079
   27FTM     C816356   5.044   4.891  -0.514 -0.4150  0.7005 -0.9544
   27FTM     C916357   5.034   4.933  -0.664  0.0453  0.2347  0.2586
   27FTM    C1016358   4.908   4.961  -0.727  0.5019 -0.4848 -0.6426
   27FTM    C1116359   4.846   4.613  -0.297  1.4674  0.0841  0.1569
   27FTM    C1216360   4.822   4.463  -0.354 -0.2303 -0.3865  0.5030
   28TPM     C116361   4.063   4.555  -0.052  0.1430 -0.3012 -0.2475
   28TPM     C216362   4.156   4.456  -0.038  0.1281 -0.2977 -0.1249
   28TPM     C316363   4.105   4.335   0.022  0.1485 -0.1595  0.1771
   28TPM     C416364   3.972   4.342   0.053  0.1787 -0.0577  0.2854
   28TPM     S116365   3.902   4.502   0.009  0.1840 -0.1290  0.0117
   29BDD     C116366   3.874   4.022   0.261 -0.1624  0.3468  0.1214
   29BDD     C216367   3.759   4.062   0.200 -0.1969  0.1906  0.0825
   29BDD     C316368   3.775   4.181   0.118 -0.2736  0.0607 -0.1200
   29BDD     C416369   3.903   4.229   0.116 -0.2967  0.1196 -0.2327
   29BDD     S116370   4.012   4.129   0.219 -0.2236  0.3421 -0.0929
   29BDD     C516371   3.629   3.994   0.216 -0.1606  0.1549  0.2302
   29BDD     C616372   3.663   4.241   0.043 -0.3214 -0.1175 -0.1945
   29BDD     O116373   3.678   4.343  -0.029 -0.3877 -0.2296 -0.3692
   29BDD     O216374   3.615   3.892   0.287 -0.0944  0.2670  0.4048
   29BDD     C716375   3.533   4.173   0.058 -0.2851 -0.1532 -0.0469
   29BDD     C816376   3.517   4.055   0.141 -0.2084 -0.0231  0.1557
   29BDD     C916377   3.389   4.007   0.142 -0.1855 -0.0823  0.2683
   29BDD     S216378   3.280   4.106   0.040 -0.2584 -0.3048  0.1285
   29BDD    C1016379   3.418   4.213  -0.002 -0.3197 -0.3095 -0.0858
   29BDD    C1116380   3.378   4.336  -0.081 -0.7014 -0.0310  0.0690
   29BDD    C1216381   3.278   4.409   0.003 -0.7508 -1.6518 -0.2494
   29BDD    C1316382   3.328   4.508   0.113 -0.0074  0.7271 -1.4290
   29BDD    C1416383   3.250   4.514   0.249 -0.6249  1.7157 -1.4025
   29BDD    C1516384   3.292   4.394   0.343  0.1176  0.1838  0.2906
   29BDD    C1616385   3.293   4.420   0.493 -1.0497 -0.4156 -0.8749
   29BDD    C1716386   3.132   4.454  -0.043 -1.0153  0.6895  0.5949
   29BDD    C1816387   3.042   4.317  -0.083 -0.0333 -0.1252 -0.1739
   29BDD    C1916388   3.335   3.887   0.201 -0.3989  0.1061 -0.0591
   29BDD    C2016389   3.310   3.870   0.350 -0.5683  0.1222  1.6196
   29BDD    C2116390   3.265   3.721   0.379  0.3085  1.1056  0.0092
   29BDD    C2216391   3.130   3.663   0.327 -0.6795 -0.4541  0.2953
   29BDD    C2316392   3.119   3.519   0.361  0.9054  0.5164 -0.3959
   29BDD    C2416393   3.091   3.467   0.492 -0.1372  0.0335 -0.5525
   29BDD    C2516394   3.236   3.989   0.417 -0.3414  1.0206  0.9313
   29BDD    C2616395   3.101   4.047   0.356  0.1096 -0.8706 -1.5595
   30TPM     C116396   3.903   3.919   0.368  0.3545  0.8182  0.6418
   30TPM     C216397   4.024   3.858   0.361  0.6539  1.3756  0.8662
   30TPM     C316398   4.049   3.765   0.468  0.5879  0.9639  0.5272
   30TPM     C416399   3.946   3.755   0.557  0.2381  0.0926  0.0445
   30TPM     S116400   3.809   3.863   0.511 -0.0372 -0.2784 -0.0200
   31BDTP    C116401   3.813   3.435   1.072 -0.0098  0.2857  0.3818
   31BDTP    C216402   3.866   3.332   0.989 -0.1284  0.1747  0.4430
   31BDTP    C316403   3.915   3.357   0.862 -0.1497  0.0333  0.4072
   31BDTP    C416404   3.912   3.489   0.814 -0.0494 -0.0006  0.3063
   31BDTP    C516405   3.859   3.592   0.897  0.0692  0.1103  0.2451
   31BDTP    C616406   3.810   3.567   1.025  0.0905  0.2517  0.2809
   31BDTP    C716407   3.957   3.539   0.685 -0.0491 -0.1392  0.2526
   31BDTP    C816408   3.941   3.672   0.668  0.0627 -0.1379  0.1553
   31BDTP    S116409   3.867   3.754   0.813  0.1832  0.0392  0.1180
   31BDTP    C916410   3.768   3.386   1.201 -0.0102  0.4243  0.4354
   31BDTP   C1016411   3.784   3.252   1.218 -0.1220  0.4228  0.5328
   31BDTP    S216412   3.859   3.171   1.073 -0.2424  0.2458  0.5701
   32FTM     S116413   4.112   3.165   0.844  0.3218 -0.2078  0.4775
   32FTM     C116414   4.074   3.026   0.735  0.5212 -0.0645  0.2240
   32FTM     C216415   3.960   3.052   0.665  0.6089 -0.0037  0.1041
   32FTM     C316416   3.897   3.178   0.690  0.5282 -0.0634  0.1998
   32FTM     C416417   3.965   3.251   0.784  0.3739 -0.1736  0.3994
   32FTM     F116418   3.907   2.963   0.572  0.7672  0.1097 -0.0993
   32FTM     C516419   4.184   2.926   0.702  1.0255 -0.0186  0.3128
   32FTM     C616420   4.234   2.818   0.806  0.9227  0.1223  1.2343
   32FTM     C716421   4.117   2.722   0.849 -0.2748  1.0351 -0.6545
   32FTM     C816422   4.010   2.741   0.961  0.1969 -0.1761  0.7099
   32FTM     C916423   4.033   2.797   1.095 -0.2967  0.2113  0.3445
   32FTM    C1016424   4.098   2.695   1.191 -1.4054 -0.5847  1.2227
   32FTM    C1116425   4.357   2.758   0.737 -0.3280 -0.1220  0.4056
   32FTM    C1216426   4.457   2.664   0.811  0.5589 -0.1721  0.9582
   33FTM     S116427   3.772   3.704   1.275 -0.1838  0.0320 -0.2201
   33FTM     C116428   3.667   3.850   1.274 -0.3848 -0.1077  0.1158
   33FTM     C216429   3.616   3.870   1.149 -0.9178 -0.2496  0.3043
   33FTM     C316430   3.655   3.774   1.049 -1.1956 -0.2584  0.2016
   33FTM     C416431   3.739   3.679   1.099 -0.8645 -0.1184 -0.0746
   33FTM     F116432   3.531   3.975   1.118 -1.1858 -0.3802  0.5811
   33FTM     C516433   3.634   3.886   1.408  0.3596 -2.9800 -0.4333
   33FTM     C616434   3.567   3.804   1.510  0.6054 -0.2360  0.1013
   33FTM     C716435   3.670   3.717   1.584  0.5896  0.0958 -0.2382
   33FTM     C816436   3.676   3.754   1.743 -0.8060  0.5401  0.2485
   33FTM     C916437   3.559   3.737   1.844  1.6232 -0.1299 -0.3147
   33FTM    C1016438   3.432   3.817   1.832 -0.5461 -0.6226 -0.3017
   33FTM    C1116439   3.432   3.725   1.496  1.0245 -1.1759 -0.5687
   33FTM    C1216440   3.418   3.586   1.425 -0.5934  0.3564 -1.1297
   34TPM     C116441   3.757   3.153   1.325 -0.9476  0.1575  0.1286
   34TPM     C216442   3.637   3.128   1.384 -0.6424  0.5097  0.9314
   34TPM     C316443   3.643   3.028   1.488 -0.1481  0.9266  1.3154
   34TPM     C416444   3.768   2.977   1.507 -0.0765  0.8923  0.8055
   34TPM     S116445   3.888   3.052   1.396 -0.6321  0.3263 -0.2072
   35BDD     C116446   3.861   2.609   1.629  0.4474 -0.1505  0.3438
   35BDD     C216447   3.811   2.669   1.741  0.3502 -0.1549  0.3024
   35BDD     C316448   3.765   2.805   1.717  0.0356 -0.2784  0.1847
   35BDD     C416449   3.782   2.847   1.588 -0.1024 -0.3662  0.1381
   35BDD     S116450   3.856   2.719   1.487  0.1518 -0.3006  0.2384
   35BDD     C516451   3.802   2.604   1.873  0.5429 -0.0459  0.3694
   35BDD     C616452   3.707   2.889   1.824 -0.1165 -0.3046  0.1228
   35BDD     O116453   3.667   3.006   1.804 -0.3877 -0.4111  0.0213
   35BDD     O216454   3.841   2.487   1.893  0.8141  0.0606  0.4709
   35BDD     C716455   3.698   2.823   1.957  0.0762 -0.1956  0.1898
   35BDD     C816456   3.744   2.687   1.980  0.3907 -0.0722  0.3075
   35BDD     C916457   3.727   2.646   2.109  0.5288  0.0156  0.3541
   35BDD     S216458   3.653   2.774   2.211  0.2747 -0.0501  0.2539
   35BDD    C1016459   3.648   2.883   2.069 -0.0209 -0.2002  0.1484
   35BDD    C1116460   3.606   3.012   2.131  0.4909 -0.2499  0.9773
   35BDD    C1216461   3.710   3.108   2.096 -0.7342  0.4934  0.0215
   35BDD    C1316462   3.860   3.087   2.138  0.3491  0.0691  0.8506
   35BDD    C1416463   3.988   3.176   2.086 -0.7281 -0.0652  0.5634
   35BDD    C1516464   3.970   3.323   2.087 -1.1503 -1.0358  0.2986
   35BDD    C1616465   4.076   3.408   2.011  1.1762  0.6821 -0.1491
   35BDD    C1716466   3.657   3.253   2.077 -1.0381  0.9338 -0.8161
   35BDD    C1816467   3.567   3.283   1.961  0.4291 -1.3729 -0.6294
   35BDD    C1916468   3.772   2.514   2.181  0.1931  0.0934  0.8322
   35BDD    C2016469   3.899   2.529   2.279  0.3644  1.0122 -0.3874
   35BDD    C2116470   4.016   2.555   2.186 -0.9482  0.7356 -0.3541
   35BDD    C2216471   4.168   2.500   2.214 -0.4890 -0.6462  0.8553
   35BDD    C2316472   4.279   2.533   2.107  0.1097 -0.7723 -0.6321
   35BDD    C2416473   4.254   2.662   2.035  1.0133 -0.0506 -0.4788
   35BDD    C2516474   3.921   2.398   2.363  0.8422  0.0119 -1.0808
   35BDD    C2616475   3.980   2.277   2.302 -0.6098  0.4623 -1.0422
   36TPM     C116476   3.914   2.473   1.603 -0.2783 -0.5731 -0.1238
   36TPM     C216477   3.841   2.365   1.643 -0.2243 -0.8016 -0.6250
   36TPM     C316478   3.897   2.239   1.601  0.3011 -0.6186 -0.4966
   36TPM     C416479   4.012   2.251   1.530  0.6478 -0.2507  0.1025
   36TPM     S116480   4.060   2.423   1.509  0.3350 -0.1056  0.5544
   37BDTP    C116481   4.389   1.801   1.301  0.4737  0.3702  0.0948
   37BDTP    C216482   4.442   1.918   1.238  0.1704  0.3261 -0.2542
   37BDTP    C316483   4.388   2.045   1.258  0.1829  0.3214 -0.1892
   37BDTP    C416484   4.277   2.057   1.343  0.5097  0.3620  0.2399
   37BDTP    C516485   4.224   1.940   1.405  0.8129  0.4061  0.5890
   37BDTP    C616486   4.278   1.814   1.386  0.8005  0.4108  0.5240
   37BDTP    C716487   4.205   2.177   1.379  0.5873  0.3657  0.3871
   37BDTP    C816488   4.101   2.157   1.463  0.9298  0.4100  0.8242
   37BDTP    S116489   4.080   1.982   1.510  1.2022  0.4531  1.1109
   37BDTP    C916490   4.461   1.681   1.265  0.3961  0.3664 -0.0524
   37BDTP   C1016491   4.565   1.701   1.180  0.0536  0.3222 -0.4895
   37BDTP    S216492   4.586   1.876   1.134 -0.2189  0.2791 -0.7761
   38FTM     S116493   4.513   2.313   1.274  0.1738  0.0564  0.0235
   38FTM     C116494   4.580   2.372   1.117 -0.7314  1.0042 -0.0310
   38FTM     C216495   4.551   2.283   1.018 -0.7361  1.2736 -0.2733
   38FTM     C316496   4.477   2.167   1.057 -0.0521  0.7719 -0.4276
   38FTM     C416497   4.448   2.167   1.190  0.4938  0.0960 -0.2993
   38FTM     F116498   4.590   2.302   0.886 -1.3596  1.9908 -0.3698
   38FTM     C516499   4.635   2.512   1.126  2.2919 -1.5746  0.8220
   38FTM     C616500   4.737   2.594   1.052 -1.2154  2.8079 -0.3768
   38FTM     C716501   4.887   2.526   1.043  1.1009 -1.6251 -1.4742
   38FTM     C816502   4.885   2.386   0.986  0.6223 -1.4324  0.5994
   38FTM     C916503   5.004   2.364   0.912  0.3184  0.2816 -0.3365
   38FTM    C1016504   5.007   2.237   0.834  0.3056 -0.0531 -0.8285
   38FTM    C1116505   4.749   2.738   1.089 -0.7971 -0.8509 -0.8446
   38FTM    C1216506   4.826   2.841   1.004 -0.3484  0.0211 -1.7804
   39FTM     S116507   4.154   1.547   1.424 -0.0701  0.1307 -0.0441
   39FTM     C116508   4.167   1.490   1.594  0.7763 -0.4539 -0.2912
   39FTM     C216509   4.231   1.584   1.669  0.6057 -0.4388 -0.1640
   39FTM     C316510   4.272   1.703   1.600 -0.1748  0.0173  0.1264
   39FTM     C416511   4.239   1.700   1.468 -0.6163  0.3627  0.2247
   39FTM     F116512   4.256   1.568   1.805  1.1462 -0.8371 -0.3029
   39FTM     C516513   4.111   1.354   1.614 -0.4232  0.2686 -0.9495
   39FTM     C616514   4.208   1.238   1.648  1.2323  2.0765  1.3254
   39FTM     C716515   4.146   1.113   1.729  0.6313 -1.8325 -0.2820
   39FTM     C816516   4.014   1.044   1.721 -0.2602 -0.4269 -0.4548
   39FTM     C916517   4.034   0.953   1.598 -0.6081  0.2786  0.9769
   39FTM    C1016518   3.897   0.889   1.538 -0.4330  0.4487  0.2700
   39FTM    C1116519   4.312   1.206   1.533 -0.8254 -1.0099 -0.1355
   39FTM    C1216520   4.273   1.129   1.410  0.8131  0.3392 -1.1208
   40TPM     C116521   4.654   1.593   1.127  0.6868 -0.5305  0.7546
   40TPM     C216522   4.692   1.474   1.179  0.2704 -1.0145 -0.0084
   40TPM     C316523   4.762   1.389   1.086 -0.6478 -0.9780 -0.7614
   40TPM     C416524   4.777   1.445   0.962 -0.9314 -0.4661 -0.5726
   40TPM     S116525   4.703   1.609   0.954 -0.0542  0.0132  0.5798
   41BDD     C116526   4.981   1.405   0.642 -0.1963 -0.2225 -0.2389
   41BDD     C216527   4.940   1.278   0.672 -0.0556 -0.2571 -0.1878
   41BDD     C316528   4.865   1.270   0.796  0.0900 -0.3161 -0.1042
   41BDD     C416529   4.852   1.391   0.859  0.0584 -0.3257 -0.0927
   41BDD     S116530   4.931   1.523   0.767 -0.1560 -0.2615 -0.1859
   41BDD     C516531   4.967   1.160   0.588 -0.0498 -0.2372 -0.2140
   41BDD     C616532   4.811   1.143   0.848  0.2553 -0.3609 -0.0386
   41BDD     O116533   4.747   1.136   0.956  0.3809 -0.4118  0.0335
   41BDD     O216534   5.031   1.167   0.480 -0.1752 -0.1863 -0.2861
   41BDD     C716535   4.838   1.025   0.764  0.2612 -0.3410 -0.0648
   41BDD     C816536   4.912   1.033   0.639  0.1156 -0.2820 -0.1484
   41BDD     C916537   4.926   0.912   0.577  0.1473 -0.2724 -0.1599
   41BDD     S216538   4.847   0.780   0.669  0.3617 -0.3366 -0.0667
   41BDD    C1016539   4.796   0.898   0.794  0.4017 -0.3756 -0.0136
   41BDD    C1116540   4.714   0.813   0.900 -0.6146 -0.4230  0.1561
   41BDD    C1216541   4.570   0.770   0.859 -0.8265 -0.7449 -0.3095
   41BDD    C1316542   4.484   0.860   0.763 -0.2922 -0.3985 -0.4396
   41BDD    C1416543   4.461   1.007   0.779  0.4100  1.0958 -0.2532
   41BDD    C1516544   4.330   1.050   0.730 -0.3878  0.2239 -0.4385
   41BDD    C1616545   4.307   1.209   0.751  0.3983  1.3983 -0.0930
   41BDD    C1716546   4.478   0.735   0.975 -1.4123  0.4828 -0.6304
   41BDD    C1816547   4.507   0.599   1.047 -0.4948 -0.1682  0.3778
   41BDD    C1916548   4.973   0.870   0.441 -2.2507 -0.5749 -0.4555
   41BDD    C2016549   4.883   0.860   0.322  0.5160  1.1616  0.7637
   41BDD    C2116550   4.780   0.743   0.321  0.7513  0.3744  0.3269
   41BDD    C2216551   4.676   0.713   0.199 -1.3632 -0.6472  0.3621
   41BDD    C2316552   4.617   0.820   0.098 -0.1506  0.3953  0.3765
   41BDD    C2416553   4.477   0.867   0.156 -0.6487  0.4652 -1.0457
   41BDD    C2516554   4.946   0.881   0.184 -1.2438  0.0376  0.4822
   41BDD    C2616555   5.054   0.778   0.131  0.5380 -0.0825 -0.0668
   42TPM     C116556   5.042   1.469   0.533 -0.1160 -0.4677  0.0357
   42TPM     C216557   5.167   1.524   0.539 -0.6506  0.7460  0.6588
   42TPM     C316558   5.219   1.564   0.411 -0.5323  1.6032  0.9608
   42TPM     C416559   5.134   1.540   0.307  0.0928  1.0432  0.5681
   42TPM     S116560   4.981   1.463   0.363  0.5843 -0.6233 -0.2199
   43BDTP    C116561   5.112   1.568  -0.316  0.0038  0.1261  0.0520
   43BDTP    C216562   5.123   1.705  -0.278  0.5040  0.0948  0.0327
   43BDTP    C316563   5.140   1.745  -0.147  0.6790  0.0551  0.0241
   43BDTP    C416564   5.145   1.646  -0.047  0.3455  0.0458  0.0350
   43BDTP    C516565   5.134   1.509  -0.085 -0.1549  0.0772  0.0546
   43BDTP    C616566   5.118   1.469  -0.217 -0.3298  0.1168  0.0629
   43BDTP    C716567   5.161   1.663   0.096  0.4410  0.0070  0.0292
   43BDTP    C816568   5.162   1.548   0.166  0.0417  0.0077  0.0436
   43BDTP    S116569   5.144   1.400   0.061 -0.5113  0.0576  0.0660
   43BDTP    C916570   5.096   1.550  -0.459 -0.0917  0.1649  0.0579
   43BDTP   C1016571   5.095   1.666  -0.530  0.3073  0.1642  0.0436
   43BDTP    S216572   5.114   1.814  -0.425  0.8605  0.1143  0.0214
   44FTM     S116573   5.019   2.001  -0.185  0.3142  0.3022  0.2111
   44FTM     C116574   5.101   2.142  -0.109  0.9741 -0.4318  0.8930
   44FTM     C216575   5.207   2.100  -0.035  0.7411 -1.2868  0.7563
   44FTM     C316576   5.230   1.958  -0.033  0.0516 -1.4200  0.1280
   44FTM     C416577   5.139   1.890  -0.108 -0.2532 -0.6416 -0.2276
   44FTM     F116578   5.289   2.186   0.036  1.1383 -1.9997  1.1919
   44FTM     C516579   5.019   2.268  -0.095 -0.5309 -0.2521 -1.0014
   44FTM     C616580   4.880   2.306  -0.146 -0.5599 -0.3988 -0.6622
   44FTM     C716581   4.893   2.459  -0.135  0.2998  0.6634 -0.1700
   44FTM     C816582   4.787   2.559  -0.197 -0.8575  0.0138 -0.3272
   44FTM     C916583   4.729   2.544  -0.334  0.4271 -1.1652 -0.1750
   44FTM    C1016584   4.625   2.647  -0.355 -0.3478 -1.1879  1.0727
   44FTM    C1116585   4.768   2.210  -0.065 -1.0035 -0.1425 -0.4921
   44FTM    C1216586   4.619   2.231  -0.073 -0.7137  1.5541 -0.2645
   45FTM     S116587   4.926   1.292  -0.336 -0.0706  0.2878  0.0276
   45FTM     C116588   4.989   1.135  -0.399 -0.1564  0.2222  0.1042
   45FTM     C216589   5.119   1.119  -0.361 -0.0286  0.3751 -0.2587
   45FTM     C316590   5.175   1.225  -0.283  0.1400  0.5484 -0.6094
   45FTM     C416591   5.086   1.325  -0.260  0.1413  0.5276 -0.5121
   45FTM     F116592   5.194   1.008  -0.395 -0.0565  0.3671 -0.2949
   45FTM     C516593   4.893   1.060  -0.479 -0.7496 -2.4540 -0.2031
   45FTM     C616594   4.771   0.988  -0.426 -0.7112 -0.0585  0.7556
   45FTM     C716595   4.635   1.024  -0.488  0.1944 -0.4409 -1.1337
   45FTM     C816596   4.607   1.162  -0.444  0.6904 -0.6130 -0.7127
   45FTM     C916597   4.500   1.210  -0.538 -0.5246 -0.1692  0.5580
   45FTM    C1016598   4.441   1.343  -0.504  0.2724 -0.0535 -0.5443
   45FTM    C1116599   4.799   0.874  -0.350 -0.0575  0.5464 -1.0016
   45FTM    C1216600   4.874   0.749  -0.395  0.9094  1.0355 -0.3765
   46TPM     C116601   5.043   1.679  -0.662 -0.0474  0.8514  0.0827
   46TPM     C216602   4.944   1.757  -0.714 -0.1594  0.7453  0.1340
   46TPM     C316603   4.890   1.707  -0.838 -0.5500  0.3981  0.4423
   46TPM     C416604   4.947   1.590  -0.879 -0.7363  0.2395  0.6264
   46TPM     S116605   5.075   1.535  -0.765 -0.4298  0.5184  0.4222
   47BDD     C116606   5.071   1.592  -1.266  0.0613  0.1337 -0.3978
   47BDD     C216607   4.936   1.609  -1.270  0.0471  0.0568 -0.2589
   47BDD     C316608   4.874   1.613  -1.139  0.2011  0.1968 -0.1900
   47BDD     C416609   4.964   1.599  -1.036  0.3305  0.3783 -0.2779
   47BDD     S116610   5.131   1.580  -1.097  0.2685  0.3865 -0.4525
   47BDD     C516611   4.858   1.621  -1.395 -0.1086 -0.1480 -0.1836
   47BDD     C616612   4.729   1.630  -1.120  0.2142  0.1454 -0.0396
   47BDD     O116613   4.675   1.634  -1.006  0.3470  0.2661  0.0198
   47BDD     O216614   4.911   1.618  -1.508 -0.2414 -0.2688 -0.2429
   47BDD     C716615   4.651   1.643  -1.245  0.0585 -0.0595  0.0350
   47BDD     C816616   4.712   1.639  -1.376 -0.0954 -0.1995 -0.0336
   47BDD     C916617   4.623   1.652  -1.479 -0.2251 -0.3810  0.0541
   47BDD     S216618   4.455   1.672  -1.418 -0.1630 -0.3892  0.2290
   47BDD    C1016619   4.515   1.660  -1.249  0.0441 -0.1363  0.1743
   47BDD    C1116620   4.400   1.641  -1.154 -0.4281  1.5408 -0.0967
   47BDD    C1216621   4.383   1.488  -1.103  0.4754 -1.2969 -0.4331
   47BDD    C1316622   4.487   1.389  -1.119  0.7176 -0.8056  0.4278
   47BDD    C1416623   4.450   1.262  -1.190 -0.3366  0.3581  0.2644
   47BDD    C1516624   4.554   1.174  -1.256 -1.1852 -0.3750 -0.6063
   47BDD    C1616625   4.607   1.226  -1.382 -0.4939  0.4614  0.4207
   47BDD    C1716626   4.274   1.466  -1.000  1.2689 -0.0316 -0.6700
   47BDD    C1816627   4.138   1.542  -1.013  0.0591  0.0392 -0.6090
   47BDD    C1916628   4.633   1.670  -1.628 -0.5877 -0.3867 -0.5555
   47BDD    C2016629   4.518   1.732  -1.710  0.6766  0.1619 -0.9177
   47BDD    C2116630   4.537   1.719  -1.866  1.0878  0.2122  0.1826
   47BDD    C2216631   4.574   1.577  -1.935  0.0311  0.8103 -0.0907
   47BDD    C2316632   4.715   1.507  -1.930  0.0685 -0.8937  0.4936
   47BDD    C2416633   4.726   1.370  -1.997  0.8879  0.4795 -0.4891
   47BDD    C2516634   4.487   1.891  -1.668 -0.8352  0.5266 -0.8661
   47BDD    C2616635   4.595   1.991  -1.655 -1.2583 -1.4509  0.3488
   48TPM     C116636   5.178   1.609  -1.367  0.2252 -0.8663 -0.0532
   48TPM     C216637   5.286   1.685  -1.331  0.3134 -0.9824 -0.0713
   48TPM     C316638   5.364   1.730  -1.443  0.0283 -0.6063 -0.1235
   48TPM     C416639   5.316   1.689  -1.564 -0.2775 -0.2035 -0.1451
   48TPM     S116640   5.167   1.589  -1.545 -0.2285 -0.2684 -0.1010
   49BDTP    C116641   5.559   1.629  -2.144  0.3413 -0.2711 -0.0060
   49BDTP    C216642   5.615   1.753  -2.103  0.2905 -0.2284 -0.0646
   49BDTP    C316643   5.591   1.809  -1.978  0.1439 -0.1034 -0.1485
   49BDTP    C416644   5.507   1.740  -1.889  0.0429 -0.0163 -0.1762
   49BDTP    C516645   5.450   1.615  -1.930  0.0937 -0.0590 -0.1173
   49BDTP    C616646   5.474   1.559  -2.055  0.2401 -0.1841 -0.0335
   49BDTP    C716647   5.468   1.778  -1.755 -0.1139  0.1178 -0.2596
   49BDTP    C816648   5.385   1.690  -1.694 -0.1823  0.1770 -0.2668
   49BDTP    S116649   5.346   1.546  -1.798 -0.0579  0.0713 -0.1678
   49BDTP    C916650   5.598   1.590  -2.278  0.4981 -0.4051  0.0777
   49BDTP   C1016651   5.681   1.679  -2.339  0.5667 -0.4643  0.0844
   49BDTP    S216652   5.720   1.823  -2.235  0.4421 -0.3587 -0.0142
   50FTM     S116653   5.613   2.086  -2.045  0.5748 -0.2205  0.3702
   50FTM     C116654   5.710   2.186  -1.932  0.3261 -0.2786  0.6380
   50FTM     C216655   5.758   2.109  -1.831 -0.4358 -0.2075  1.0631
   50FTM     C316656   5.722   1.971  -1.835 -0.8621 -0.1058  1.2035
   50FTM     C416657   5.645   1.940  -1.943 -0.4121 -0.0988  0.8745
   50FTM     F116658   5.836   2.160  -1.728 -0.7923 -0.2303  1.3509
   50FTM     C516659   5.684   2.339  -1.915  0.3776  1.5973  0.4727
   50FTM     C616660   5.755   2.443  -1.993 -0.4920  0.3777  1.0707
   50FTM     C716661   5.665   2.546  -2.025 -0.2412 -0.5510  1.9095
   50FTM     C816662   5.613   2.633  -1.909  0.6834 -0.4049 -0.1649
   50FTM     C916663   5.495   2.732  -1.935  0.3655 -1.4447  1.0012
   50FTM    C1016664   5.369   2.686  -2.000  0.3038 -0.9290 -0.4658
   50FTM    C1116665   5.900   2.432  -2.058  0.2563  0.4238  0.2893
   50FTM    C1216666   5.995   2.522  -1.980  1.3720 -0.3499 -1.0926
   51FTM     S116667   5.237   1.407  -2.130  0.0137 -0.1069 -0.2556
   51FTM     C116668   5.264   1.229  -2.148  0.1133 -0.0926 -0.2522
   51FTM     C216669   5.396   1.200  -2.133  0.0945 -0.0500  0.0064
   51FTM     C316670   5.482   1.312  -2.107  0.0042 -0.0264  0.2124
   51FTM     C416671   5.414   1.430  -2.102 -0.0484 -0.0517  0.1083
   51FTM     F116672   5.446   1.071  -2.142  0.1585 -0.0298  0.0715
   51FTM     C516673   5.139   1.144  -2.204  0.0336 -0.5310 -0.8224
   51FTM     C616674   5.114   0.996  -2.175  0.8637 -0.2066 -0.1096
   51FTM     C716675   5.087   0.974  -2.022  0.5046  0.0185 -1.2612
   51FTM     C816676   4.984   1.069  -1.944  0.3955  0.8450 -0.2590
   51FTM     C916677   5.007   1.091  -1.787  1.0362 -0.1395  0.5185
   51FTM    C1016678   4.988   1.244  -1.764 -0.6780  0.9696  0.4167
   51FTM    C1116679   4.994   0.942  -2.270 -0.5620 -0.6143  0.8178
   51FTM    C1216680   4.955   0.792  -2.243 -0.9742 -0.9240  0.2725
   52TPM     C116681   5.765   1.653  -2.452 -0.2958  0.5155  0.1332
   52TPM     C216682   5.793   1.529  -2.499  0.0950  0.3806  0.7036
   52TPM     C316683   5.922   1.518  -2.562  0.1479  0.4794  0.7935
   52TPM     C416684   5.992   1.635  -2.564 -0.2024  0.6897  0.2913
   52TPM     S116685   5.900   1.768  -2.485 -0.6294  0.7799 -0.3387
   53BDD     C116686   6.292   1.798  -2.755 -0.3680  0.1254  0.3816
   53BDD     C216687   6.320   1.664  -2.760 -0.4028  0.1238  0.2179
   53BDD     C316688   6.219   1.582  -2.695 -0.5693  0.0488 -0.1328
   53BDD     C416689   6.116   1.654  -2.642 -0.6591 -0.0058 -0.2312
   53BDD     S116690   6.138   1.830  -2.669 -0.5410  0.0330  0.1080
   53BDD     C516691   6.440   1.607  -2.824 -0.2846  0.1913  0.3777
   53BDD     C616692   6.229   1.434  -2.689 -0.6336  0.0341 -0.3572
   53BDD     O116693   6.142   1.363  -2.633 -0.7772 -0.0306 -0.6595
   53BDD     O216694   6.527   1.678  -2.880 -0.1409  0.2560  0.6800
   53BDD     C716695   6.349   1.377  -2.753 -0.5151  0.1015 -0.1974
   53BDD     C816696   6.450   1.460  -2.818 -0.3486  0.1765  0.1531
   53BDD     C916697   6.553   1.387  -2.871 -0.2589  0.2311  0.2515
   53BDD     S216698   6.531   1.211  -2.844 -0.3771  0.1924 -0.0876
   53BDD    C1016699   6.377   1.244  -2.758 -0.5500  0.1000 -0.3612
   53BDD    C1116700   6.326   1.142  -2.662 -0.6280  1.0839 -0.0712
   53BDD    C1216701   6.427   1.078  -2.553  0.7663  0.5477 -0.7856
   53BDD    C1316702   6.505   1.175  -2.460  1.2522 -1.1569  0.2137
   53BDD    C1416703   6.413   1.285  -2.390  0.7135 -0.5116  0.1077
   53BDD    C1516704   6.483   1.383  -2.292 -0.8181 -0.5744  0.4897
   53BDD    C1616705   6.431   1.515  -2.259 -0.8466  0.0619 -0.2352
   53BDD    C1716706   6.351   0.978  -2.468 -0.1903 -1.4823  0.3278
   53BDD    C1816707   6.270   0.876  -2.559 -0.2403  0.9967 -1.0070
   53BDD    C1916708   6.677   1.413  -2.939  0.6497 -0.3102 -0.0137
   53BDD    C2016709   6.800   1.357  -2.866  1.2514 -0.9008  0.1485
   53BDD    C2116710   6.865   1.233  -2.896 -0.3034  1.5541 -0.0336
   53BDD    C2216711   6.923   1.232  -3.039 -0.3480  0.4144 -0.5948
   53BDD    C2316712   7.063   1.299  -3.070 -0.0812 -1.5147 -0.1694
   53BDD    C2416713   7.035   1.431  -3.128 -1.4741  0.4244  0.4745
   53BDD    C2516714   6.795   1.394  -2.708  0.0648  0.1098  0.9021
   53BDD    C2616715   6.859   1.518  -2.675 -1.1469 -0.5205  1.2784
   54TPM     C116716   6.343   1.926  -2.817 -0.1533  0.2435 -0.0310
   54TPM     C216717   6.460   1.935  -2.887 -0.7356  0.1484 -1.0424
   54TPM     C316718   6.491   2.068  -2.931 -1.0163  0.1165 -1.3511
   54TPM     C416719   6.399   2.161  -2.894 -0.6477  0.1873 -0.5757
   54TPM     S116720   6.264   2.087  -2.800  0.0875  0.3006  0.6144
   55BDTP    C116721   6.489   2.767  -3.020 -0.1417 -0.1699  0.1285
   55BDTP    C216722   6.353   2.747  -3.056 -0.1873 -0.2980  0.3679
   55BDTP    C316723   6.289   2.625  -3.042 -0.0874 -0.3228  0.6104
   55BDTP    C416724   6.362   2.517  -2.989  0.0648 -0.2162  0.6175
   55BDTP    C516725   6.498   2.537  -2.953  0.1106 -0.0880  0.3781
   55BDTP    C616726   6.563   2.659  -2.968  0.0106 -0.0632  0.1357
   55BDTP    C716727   6.317   2.382  -2.965  0.1888 -0.2178  0.8449
   55BDTP    C816728   6.412   2.300  -2.913  0.3235 -0.0985  0.7882
   55BDTP    S116729   6.571   2.383  -2.888  0.3124  0.0327  0.4392
   55BDTP    C916730   6.535   2.903  -3.045 -0.2656 -0.1682 -0.0987
   55BDTP   C1016731   6.440   2.984  -3.096 -0.4004 -0.2877 -0.0422
   55BDTP    S216732   6.280   2.901  -3.122 -0.3892 -0.4187  0.3065
   56FTM     S116733   6.040   2.759  -2.985  0.3542 -0.1638  0.3306
   56FTM     C116734   5.895   2.667  -3.041  0.3234  0.2359 -0.2626
   56FTM     C216735   5.934   2.549  -3.096  0.2196  0.1115 -0.0675
   56FTM     C316736   6.074   2.522  -3.097  0.1590 -0.2924  0.5398
   56FTM     C416737   6.146   2.624  -3.042  0.2183 -0.4837  0.8194
   56FTM     F116738   5.843   2.457  -3.147  0.1732  0.3561 -0.4280
   56FTM     C516739   5.772   2.737  -3.043  0.4398 -0.6474  0.5062
   56FTM     C616740   5.701   2.821  -3.152  1.8861  0.5150  1.9232
   56FTM     C716741   5.543   2.822  -3.151  0.2246  1.3349 -1.3521
   56FTM     C816742   5.461   2.698  -3.149  0.5769  1.2233  1.5493
   56FTM     C916743   5.313   2.744  -3.178 -0.4002  0.4406  0.0370
   56FTM    C1016744   5.213   2.630  -3.148  0.3128  0.4589 -0.2249
   56FTM    C1116745   5.751   2.940  -3.236 -1.3131  0.0726  0.4752
   56FTM    C1216746   5.891   2.945  -3.308 -0.4582  0.3153  0.1835
   57FTM     S116747   6.832   2.672  -3.025 -0.0781 -0.3950 -0.2004
   57FTM     C116748   6.937   2.734  -2.892  0.2064  0.5315 -0.8400
   57FTM     C216749   6.864   2.753  -2.779  0.5645  0.7095 -0.6318
   57FTM     C316750   6.724   2.721  -2.789  0.6377  0.1498  0.0217
   57FTM     C416751   6.690   2.676  -2.913  0.3253 -0.4773  0.3243
   57FTM     F116752   6.918   2.800  -2.661  0.8473  1.3899 -1.0211
   57FTM     C516753   7.090   2.741  -2.911 -0.8912  0.8989 -0.3248
   57FTM     C616754   7.182   2.602  -2.919  0.0517 -0.0232 -0.2681
   57FTM     C716755   7.171   2.532  -3.052 -0.5009 -0.8745 -1.0566
   57FTM     C816756   7.080   2.416  -3.089 -0.0647 -0.6472 -1.1602
   57FTM     C916757   7.067   2.290  -3.015  0.5108  0.9199 -0.2479
   57FTM    C1016758   7.187   2.207  -3.011  0.2160  0.7740 -0.1162
   57FTM    C1116759   7.191   2.515  -2.790  0.7357 -0.0113  0.5276
   57FTM    C1216760   7.259   2.581  -2.661 -0.2583  0.7949  0.6661
   58TPM     C116761   6.466   3.129  -3.139  0.2352  0.5660 -0.3201
   58TPM     C216762   6.569   3.162  -3.222 -0.3062  0.6156 -0.9861
   58TPM     C316763   6.575   3.302  -3.254 -0.7002  0.5870 -1.2062
   58TPM     C416764   6.477   3.377  -3.195 -0.4589  0.5157 -0.7079
   58TPM     S116765   6.369   3.274  -3.093  0.2902  0.4788  0.0841
   59BDD     C116766   6.431   3.765  -3.151 -0.5029  0.4185  0.0522
   59BDD     C216767   6.463   3.746  -3.283 -0.4134  0.2913  0.0913
   59BDD     C316768   6.485   3.607  -3.318 -0.7104  0.2246  0.1674
   59BDD     C416769   6.469   3.521  -3.213 -1.0218  0.3019  0.1850
   59BDD     S116770   6.426   3.609  -3.062 -0.9651  0.4635  0.1080
   59BDD     C516771   6.475   3.856  -3.381 -0.0517  0.2266  0.0598
   59BDD     C616772   6.520   3.565  -3.455 -0.6740  0.0867  0.2191
   59BDD     O116773   6.539   3.445  -3.485 -0.9302  0.0291  0.2847
   59BDD     O216774   6.456   3.976  -3.350  0.2042  0.2841 -0.0057
   59BDD     C716775   6.532   3.674  -3.553 -0.3123  0.0218  0.1879
   59BDD     C816776   6.511   3.814  -3.518 -0.0155  0.0886  0.1121
   59BDD     C916777   6.527   3.899  -3.623  0.2960  0.0113  0.0942
   59BDD     S216778   6.570   3.812  -3.773  0.2392 -0.1503  0.1714
   59BDD    C1016779   6.564   3.656  -3.685 -0.2229 -0.1053  0.2270
   59BDD    C1116780   6.584   3.528  -3.768  0.0097  0.1467 -0.0972
   59BDD    C1216781   6.528   3.520  -3.907 -0.1475  0.3893 -0.0564
   59BDD    C1316782   6.581   3.401  -3.982 -0.1203 -0.3196 -0.0808
   59BDD    C1416783   6.554   3.353  -4.124  0.0239 -1.0510 -0.1416
   59BDD    C1516784   6.686   3.316  -4.192 -0.1340 -0.6333 -0.0768
   59BDD    C1616785   6.681   3.258  -4.335 -0.6725  0.2053  0.5486
   59BDD    C1716786   6.376   3.564  -3.929 -0.6800 -1.0861 -0.4726
   59BDD    C1816787   6.253   3.512  -3.834 -0.6912 -0.3927 -0.4520
   59BDD    C1916788   6.516   4.047  -3.639 -0.2066 -1.3672  0.2924
   59BDD    C2016789   6.648   4.128  -3.675 -0.2828 -0.2401  0.6697
   59BDD    C2116790   6.767   4.054  -3.626 -0.4358  1.6987 -0.1591
   59BDD    C2216791   6.901   4.111  -3.654 -0.0274  1.0579 -0.0775
   59BDD    C2316792   7.001   4.008  -3.606 -1.2971 -0.3755  0.6214
   59BDD    C2416793   7.142   4.080  -3.608 -1.0033  0.2126  0.4746
   59BDD    C2516794   6.632   4.279  -3.656 -0.1464 -0.0700  0.8996
   59BDD    C2616795   6.633   4.326  -3.510  0.0001 -0.1986  0.2332
   60TPM     C116796   6.380   3.873  -3.064 -0.4953 -0.4466 -0.3372
   60TPM     C216797   6.300   3.848  -2.957 -0.9385 -0.7561 -0.7327
   60TPM     C316798   6.237   3.965  -2.903 -0.9823 -0.8767 -0.5186
   60TPM     C416799   6.269   4.080  -2.969 -0.5723 -0.6591  0.0408
   60TPM     S116800   6.382   4.048  -3.106 -0.0956 -0.2822  0.3422
    1BDTP    C116801  10.377   6.998  10.767  0.0627 -0.5590 -0.1113
    1BDTP    C216802  10.346   7.086  10.659  0.0267 -0.2046  0.1833
    1BDTP    C316803  10.439   7.121  10.562  0.0200  0.1854  0.3176
    1BDTP    C416804  10.568   7.068  10.572  0.0501  0.2286  0.1540
    1BDTP    C516805  10.600   6.981  10.680  0.0861 -0.1258 -0.1409
    1BDTP    C616806  10.507   6.945  10.777  0.0929 -0.5158 -0.2753
    1BDTP    C716807  10.681   7.091  10.484  0.0499  0.6006  0.2456
    1BDTP    C816808  10.794   7.025  10.519  0.0837  0.5435  0.0370
    1BDTP    S116809  10.774   6.926  10.670  0.1206  0.0103 -0.3057
    1BDTP    C916810  10.265   6.975  10.856  0.0629 -0.9311 -0.2031
    1BDTP   C1016811  10.152   7.041  10.820  0.0291 -0.8740  0.0057
    1BDTP    S216812  10.172   7.141  10.669 -0.0075 -0.3407  0.3485
    2FTM     S116813  10.402   7.190  10.276  0.2559  0.1114  0.3109
    2FTM     C116814  10.338   7.356  10.245 -0.6444 -0.3672 -0.5059
    2FTM     C216815  10.319   7.421  10.363 -1.2758  0.0130 -0.8087
    2FTM     C316816  10.352   7.348  10.482 -1.1022  0.6835 -0.4332
    2FTM     C416817  10.397   7.223  10.454 -0.3120  0.8213  0.1771
    2FTM     F116818  10.270   7.551  10.370 -2.0487 -0.2234 -1.4439
    2FTM     C516819  10.324   7.406  10.099  0.3281 -1.6726 -0.7623
    2FTM     C616820  10.428   7.369  10.004 -0.6124 -0.7974 -0.0650
    2FTM     C716821  10.379   7.349   9.862 -0.1331 -0.9617  0.0377
    2FTM     C816822  10.341   7.464   9.765 -0.6013 -0.6031 -1.2877
    2FTM     C916823  10.294   7.425   9.631  0.3782  0.8119  0.9228
    2FTM    C1016824  10.388   7.352   9.530  1.1660 -0.6610  0.1205
    2FTM    C1116825  10.569   7.398  10.042 -0.1318 -1.7540  0.6344
    2FTM    C1216826  10.686   7.360   9.951  0.7502  0.5889 -0.5177
    3FTM     S116827  10.647   6.907  11.036  0.4686  0.2570 -0.0998
    3FTM     C116828  10.661   6.733  11.082 -0.0314  0.1894 -0.1989
    3FTM     C216829  10.598   6.656  10.989 -0.2737  0.4219 -0.2322
    3FTM     C316830  10.538   6.726  10.879 -0.0894  0.6613 -0.1838
    3FTM     C416831  10.554   6.861  10.888  0.3063  0.6100 -0.1109
    3FTM     F116832  10.592   6.518  10.998 -0.6757  0.4321 -0.3090
    3FTM     C516833  10.738   6.708  11.209 -0.7383  1.1042  0.9548
    3FTM     C616834  10.841   6.804  11.276 -0.7259 -1.5522 -0.4485
    3FTM     C716835  10.952   6.893  11.196 -1.2600 -0.2007 -0.2713
    3FTM     C816836  11.058   6.792  11.138  0.9336 -0.2876  1.4671
    3FTM     C916837  11.087   6.826  10.990 -1.1945 -0.5407  0.4331
    3FTM    C1016838  11.199   6.734  10.938 -0.0844 -0.5726  1.7959
    3FTM    C1116839  10.919   6.772  11.398  0.7279  0.0368  1.0412
    3FTM    C1216840  10.883   6.684  11.526  0.6775 -1.1971 -0.7884
    4TPM     C116841  10.030   7.017  10.884  0.2670  0.6313  0.3441
    4TPM     C216842   9.904   7.025  10.831  0.1545  0.7401  0.6239
    4TPM     C316843   9.800   6.989  10.924  0.3836  0.0401  0.6263
    4TPM     C416844   9.846   6.955  11.048  0.6708 -0.6023  0.3487
    4TPM     S116845  10.026   6.964  11.056  0.6737 -0.3710  0.0602
    5BDD     C116846   9.617   6.841  11.342  0.3993  0.0538 -0.2690
    5BDD     C216847   9.596   6.976  11.331  0.1903  0.0292 -0.1748
    5BDD     C316848   9.678   7.039  11.229  0.0458  0.2167 -0.1748
    5BDD     C416849   9.759   6.952  11.163  0.1469  0.3816 -0.2689
    5BDD     S116850   9.740   6.784  11.224  0.4299  0.3136 -0.3641
    5BDD     C516851   9.500   7.051  11.415  0.1156 -0.1678 -0.0815
    5BDD     C616852   9.671   7.184  11.200 -0.1872  0.2255 -0.0815
    5BDD     O116853   9.741   7.239  11.112 -0.3119  0.3873 -0.0815
    5BDD     O216854   9.430   6.997  11.503  0.2401 -0.3296 -0.0815
    5BDD     C716855   9.575   7.260  11.284 -0.2620  0.0285  0.0119
    5BDD     C816856   9.494   7.196  11.386 -0.1175 -0.1590  0.0119
    5BDD     C916857   9.412   7.284  11.452 -0.2189 -0.3240  0.1061
    5BDD     S216858   9.431   7.451  11.391 -0.5020 -0.2559  0.2012
    5BDD    C1016859   9.554   7.394  11.273 -0.4714  0.0039  0.1061
    5BDD    C1116860   9.637   7.492  11.191 -0.8535 -0.2269  0.1099
    5BDD    C1216861   9.591   7.528  11.048 -0.4057 -0.4961 -0.5067
    5BDD    C1316862   9.554   7.682  11.045 -0.7729 -1.4726  0.6917
    5BDD    C1416863   9.559   7.769  10.911  0.0916  0.0713 -1.4502
    5BDD    C1516864   9.668   7.748  10.812  0.7580 -0.7090 -0.4657
    5BDD    C1616865   9.670   7.875  10.712 -1.0303  2.1885 -1.2008
    5BDD    C1716866   9.506   7.449  10.948  0.3923  0.7086 -0.2563
    5BDD    C1816867   9.565   7.329  10.872 -0.1324 -0.5750  0.0489
    5BDD    C1916868   9.305   7.267  11.573 -0.7320  0.0197  0.8634
    5BDD    C2016869   9.161   7.289  11.546  0.1869  0.6926  0.3309
    5BDD    C2116870   9.080   7.254  11.671 -0.8189  0.5787  0.6980
    5BDD    C2216871   9.093   7.127  11.741  0.8863 -0.0152  1.2014
    5BDD    C2316872   9.010   7.018  11.667 -1.0810 -0.1635  0.9933
    5BDD    C2416873   9.044   6.899  11.748  0.9972  1.4085 -0.5037
    5BDD    C2516874   9.135   7.433  11.521 -0.6361  0.5970 -0.9102
    5BDD    C2616875   9.014   7.443  11.433  0.0169  0.1297  0.1272
    6TPM     C116876   9.564   6.736  11.428  0.5156 -0.3062  1.6253
    6TPM     C216877   9.637   6.638  11.488  0.0341 -0.3219  2.2003
    6TPM     C316878   9.557   6.543  11.561 -0.5381 -0.1378  1.8249
    6TPM     C416879   9.423   6.570  11.557 -0.4934  0.0183  0.9635
    6TPM     S116880   9.388   6.718  11.460  0.2815 -0.0557  0.5567
    7BDTP    C116881   8.996   6.192  11.825 -0.0825  0.1286 -0.0148
    7BDTP    C216882   9.117   6.149  11.886 -0.0551  0.2416  0.0106
    7BDTP    C316883   9.240   6.205  11.857 -0.0887  0.2933 -0.0322
    7BDTP    C416884   9.245   6.309  11.762 -0.1523  0.2309 -0.1034
    7BDTP    C516885   9.124   6.352  11.700 -0.1798  0.1180 -0.1288
    7BDTP    C616886   9.000   6.296  11.730 -0.1463  0.0662 -0.0861
    7BDTP    C716887   9.361   6.382  11.715 -0.1964  0.2666 -0.1576
    7BDTP    C816888   9.333   6.477  11.622 -0.2551  0.1869 -0.2217
    7BDTP    S116889   9.156   6.486  11.581 -0.2627  0.0556 -0.2224
    7BDTP    C916890   8.880   6.119  11.872 -0.0381  0.0930  0.0394
    7BDTP   C1016891   8.908   6.024  11.964  0.0205  0.1726  0.1034
    7BDTP    S216892   9.084   6.014  12.005  0.0281  0.3040  0.1041
    8FTM     S116893   9.522   6.149  11.839 -0.1384 -0.0077  0.0423
    8FTM     C116894   9.593   6.079  11.988  0.0954 -0.6414 -0.3613
    8FTM     C216895   9.499   6.071  12.086  0.3510 -0.6520 -0.1111
    8FTM     C316896   9.368   6.118  12.051  0.3798 -0.1791  0.3973
    8FTM     C416897   9.362   6.164  11.923  0.1386  0.2060  0.5413
    8FTM     F116898   9.525   6.020  12.212  0.5744 -1.0902 -0.3278
    8FTM     C516899   9.720   5.986  11.991  1.0165 -1.4184  0.7909
    8FTM     C616900   9.844   6.021  12.066 -0.9677 -0.1648  0.2259
    8FTM     C716901   9.894   6.161  12.009 -0.0983  0.6745 -0.9117
    8FTM     C816902   9.877   6.255  12.128  0.6167 -0.7789  0.0695
    8FTM     C916903   9.999   6.288  12.207  0.3350 -0.7055 -0.2515
    8FTM    C1016904  10.029   6.196  12.328 -0.1267  0.2544 -0.7780
    8FTM    C1116905   9.940   5.906  12.071 -0.5806  1.0644 -0.0754
    8FTM    C1216906   9.886   5.770  12.117 -1.0735 -0.9337  0.4817
    9FTM     S116907   8.800   6.459  11.854  0.3133  0.4932  0.2468
    9FTM     C116908   8.693   6.548  11.739 -0.0107 -0.2146 -0.0160
    9FTM     C216909   8.721   6.512  11.611 -0.2799 -0.9093  0.1158
    9FTM     C316910   8.825   6.414  11.595 -0.2520 -0.9329  0.4218
    9FTM     C416911   8.878   6.375  11.714  0.0492 -0.2333  0.5278
    9FTM     F116912   8.654   6.564  11.502 -0.5682 -1.5652 -0.0329
    9FTM     C516913   8.628   6.673  11.793 -0.0449 -0.4581 -1.1257
    9FTM     C616914   8.491   6.667  11.854  1.4949 -0.2402 -0.3005
    9FTM     C716915   8.418   6.796  11.821 -0.3578  0.5010  0.2477
    9FTM     C816916   8.295   6.873  11.868 -0.0581  0.4757 -0.0933
    9FTM     C916917   8.173   6.774  11.882  0.2216  0.9678 -0.4351
    9FTM    C1016918   8.048   6.859  11.920  0.6499  0.6251  0.9377
    9FTM    C1116919   8.457   6.606  11.994  0.3534 -0.3717  0.1951
    9FTM    C1216920   8.531   6.477  12.044 -0.7962 -0.1194 -0.3533
   10TPM     C116921   8.816   5.912  11.988 -0.3933 -1.2026 -0.2364
   10TPM     C216922   8.839   5.777  11.995 -0.7870 -1.2929 -0.6156
   10TPM     C316923   8.718   5.699  12.003 -1.0076 -0.9298 -0.3169
   10TPM     C416924   8.604   5.773  12.002 -0.7818 -0.5627  0.2899
   10TPM     S116925   8.640   5.950  11.991 -0.2697 -0.6476  0.5332
   11BDD     C116926   8.328   5.525  12.097  0.5648 -0.1964 -0.7485
   11BDD     C216927   8.262   5.631  12.042  0.4447 -0.1167 -0.4549
   11BDD     C316928   8.352   5.738  12.000  0.3209  0.1301 -0.1085
   11BDD     C416929   8.484   5.710  12.023  0.3490  0.2346 -0.1429
   11BDD     S116930   8.505   5.549  12.100  0.5317  0.0317 -0.6114
   11BDD     C516931   8.116   5.640  12.027  0.4392 -0.2643 -0.4821
   11BDD     C616932   8.303   5.863  11.938  0.1798  0.2530  0.2442
   11BDD     O116933   8.380   5.954  11.901  0.0732  0.4656  0.5429
   11BDD     O216934   8.039   5.548  12.064  0.5457 -0.4770 -0.7808
   11BDD     C716935   8.156   5.871  11.922  0.1738  0.1054  0.2170
   11BDD     C816936   8.067   5.765  11.965  0.2973 -0.1415 -0.1295
   11BDD     C916937   7.935   5.792  11.942  0.2694 -0.2460 -0.0950
   11BDD     S216938   7.914   5.953  11.865  0.0866 -0.0431  0.3735
   11BDD    C1016939   8.091   5.978  11.867  0.0532  0.1851  0.5105
   11BDD    C1116940   8.141   6.124  11.849 -0.4329  0.2629  0.7220
   11BDD    C1216941   8.202   6.141  11.702  0.5251 -0.7683  0.3491
   11BDD    C1316942   8.263   6.287  11.698 -0.6607 -0.1769 -0.2319
   11BDD    C1416943   8.423   6.302  11.723 -0.2480 -0.6474  0.1373
   11BDD    C1516944   8.489   6.207  11.633 -0.3055  1.1447 -1.4184
   11BDD    C1616945   8.501   6.252  11.485  0.7695  0.4345  0.3376
   11BDD    C1716946   8.124   6.137  11.568  0.2112  0.2802 -0.2515
   11BDD    C1816947   8.048   6.013  11.542 -0.2159 -0.4192 -1.2883
   11BDD    C1916948   7.806   5.714  11.965  0.5244 -0.2226  0.0412
   11BDD    C2016949   7.773   5.587  11.877 -0.3453  1.2059 -1.8309
   11BDD    C2116950   7.661   5.489  11.930 -1.3661  2.3428 -0.4252
   11BDD    C2216951   7.695   5.454  12.084  1.0853  0.8486  1.1240
   11BDD    C2316952   7.613   5.532  12.183 -0.6932 -1.3920 -1.2506
   11BDD    C2416953   7.668   5.521  12.324 -0.3711 -0.5600  0.1186
   11BDD    C2516954   7.795   5.613  11.722  0.3300  0.3137  0.0160
   11BDD    C2616955   7.798   5.475  11.643  0.6497 -1.0709  0.2736
   12TPM     C116956   8.291   5.393  12.139 -0.8219  0.4230  0.2612
   12TPM     C216957   8.176   5.356  12.202 -0.6611 -0.2282  0.1909
   12TPM     C316958   8.179   5.223  12.256  0.0949 -0.1844  0.2720
   12TPM     C416959   8.297   5.157  12.234  0.5105  0.5005  0.4042
   12TPM     S116960   8.413   5.260  12.142 -0.0249  1.1478  0.4367
   13BDTP    C116961   8.317   4.563  12.464 -0.2611  0.0050  0.1078
   13BDTP    C216962   8.455   4.591  12.442 -0.2642 -0.1255 -0.0832
   13BDTP    C316963   8.499   4.710  12.385 -0.2334 -0.1837 -0.1800
   13BDTP    C416964   8.403   4.805  12.347 -0.1974 -0.1097 -0.0841
   13BDTP    C516965   8.265   4.777  12.369 -0.1941  0.0207  0.1069
   13BDTP    C616966   8.220   4.659  12.426 -0.2252  0.0789  0.2037
   13BDTP    C716967   8.425   4.935  12.287 -0.1612 -0.1487 -0.1549
   13BDTP    C816968   8.311   5.005  12.262 -0.1316 -0.0552 -0.0279
   13BDTP    S116969   8.161   4.916  12.313 -0.1454  0.0956  0.1992
   13BDTP    C916970   8.295   4.434  12.525 -0.2975  0.0441  0.1786
   13BDTP   C1016971   8.408   4.364  12.549 -0.3269 -0.0494  0.0516
   13BDTP    S216972   8.559   4.453  12.499 -0.3131 -0.2002 -0.1755
   14FTM     S116973   8.747   4.756  12.520  0.6044 -0.8492  0.2839
   14FTM     C116974   8.890   4.743  12.411  0.3534 -0.5993 -0.0799
   14FTM     C216975   8.849   4.730  12.282  0.0579  0.2005 -0.0768
   14FTM     C316976   8.707   4.729  12.260  0.0098  0.6565  0.2019
   14FTM     C416977   8.637   4.742  12.377  0.2771  0.1908  0.4193
   14FTM     F116978   8.937   4.718  12.175 -0.1867  0.5671 -0.3262
   14FTM     C516979   9.020   4.756  12.481  0.3714 -0.4338 -0.5121
   14FTM     C616980   9.120   4.864  12.445  0.3344  0.0248  0.3698
   14FTM     C716981   9.229   4.837  12.542 -0.6426 -0.4298 -1.1226
   14FTM     C816982   9.355   4.760  12.512 -1.6951  0.0645 -0.1091
   14FTM     C916983   9.471   4.713  12.617  0.7208  1.2361  0.2695
   14FTM    C1016984   9.428   4.658  12.754 -1.2898 -0.4175  1.0496
   14FTM    C1116985   9.054   5.004  12.412  0.8199  0.4542 -0.4187
   14FTM    C1216986   9.141   5.112  12.359  0.3651  0.2474 -0.8666
   15FTM     S116987   7.958   4.638  12.563 -0.0117  0.3189 -0.0522
   15FTM     C116988   7.823   4.601  12.449 -0.1999  0.8374 -0.0037
   15FTM     C216989   7.872   4.586  12.323 -0.2626  0.4209  0.0161
   15FTM     C316990   8.013   4.603  12.307 -0.1698 -0.3091 -0.0048
   15FTM     C416991   8.075   4.631  12.425 -0.0315 -0.4565 -0.0417
   15FTM     F116992   7.790   4.557  12.214 -0.4073  0.6759  0.0543
   15FTM     C516993   7.670   4.603  12.489 -0.2527  0.5035 -1.1778
   15FTM     C616994   7.599   4.707  12.568 -1.4867 -0.4599 -0.8686
   15FTM     C716995   7.632   4.721  12.730  0.0891 -0.6073 -0.6171
   15FTM     C816996   7.509   4.720  12.825  0.3646  0.4667  0.4702
   15FTM     C916997   7.440   4.593  12.812  0.5462 -0.8609  0.4041
   15FTM    C1016998   7.500   4.509  12.932  0.6461 -0.6050 -0.5636
   15FTM    C1116999   7.577   4.845  12.499 -0.4971 -0.2267  0.4107
   15FTM    C1217000   7.438   4.898  12.506  0.5972 -0.3353 -0.7040
   16TPM     C117001   8.434   4.232  12.598  0.0456 -0.6671  0.2761
   16TPM     C217002   8.556   4.190  12.642  0.0083 -0.9204  0.1425
   16TPM     C317003   8.550   4.078  12.733 -0.1202 -0.9297  0.1224
   16TPM     C417004   8.423   4.035  12.759 -0.1808 -0.6838  0.2407
   16TPM     S117005   8.301   4.133  12.669 -0.0797 -0.4190  0.3878
   17BDD     C117006   8.343   3.666  12.843 -0.1355 -0.1335 -0.6188
   17BDD     C217007   8.327   3.731  12.962 -0.0212 -0.1972 -0.5680
   17BDD     C317008   8.357   3.873  12.955  0.2275 -0.2429 -0.4574
   17BDD     C417009   8.396   3.914  12.831  0.2997 -0.2135 -0.4254
   17BDD     S117010   8.397   3.778  12.714  0.0610 -0.1264 -0.5316
   17BDD     C517011   8.283   3.665  13.087 -0.1373 -0.2183 -0.6194
   17BDD     C617012   8.346   3.963  13.072  0.3846 -0.3142 -0.3873
   17BDD     O117013   8.372   4.085  13.066  0.5991 -0.3537 -0.2919
   17BDD     O217014   8.257   3.543  13.094 -0.3519 -0.1788 -0.7148
   17BDD     C717015   8.302   3.897  13.197  0.2689 -0.3353 -0.4387
   17BDD     C817016   8.272   3.755  13.204  0.0200 -0.2896 -0.5494
   17BDD     C917017   8.234   3.714  13.329 -0.0522 -0.3190 -0.5814
   17BDD     S217018   8.232   3.850  13.446  0.1864 -0.4061 -0.4752
   17BDD    C1017019   8.286   3.962  13.316  0.3829 -0.3991 -0.3879
   17BDD    C1117020   8.342   4.096  13.369  0.0818  1.2330 -0.1441
   17BDD    C1217021   8.486   4.123  13.396  0.0702 -0.9966  0.9706
   17BDD    C1317022   8.535   4.263  13.339  0.0613 -0.8174 -0.0244
   17BDD    C1417023   8.630   4.251  13.222 -0.0726 -0.0639  0.4121
   17BDD    C1517024   8.632   4.388  13.152 -0.6215 -0.0256 -0.8318
   17BDD    C1617025   8.605   4.382  13.001 -0.1836 -0.2572  0.3068
   17BDD    C1717026   8.565   4.066  13.501  0.1542 -0.2451 -0.7934
   17BDD    C1817027   8.604   3.922  13.510 -0.2284  0.5888 -0.3937
   17BDD    C1917028   8.188   3.576  13.378 -0.7366 -1.0153  1.1994
   17BDD    C2017029   8.285   3.464  13.390  0.0850  2.2345  0.5736
   17BDD    C2117030   8.441   3.494  13.401  0.2694 -0.9735  0.4786
   17BDD    C2217031   8.539   3.393  13.364 -0.4559 -0.1485 -0.4666
   17BDD    C2317032   8.577   3.371  13.217  0.9948 -0.2819  0.1443
   17BDD    C2417033   8.695   3.409  13.145  0.5245  0.0506  1.1024
   17BDD    C2517034   8.222   3.376  13.497  0.0292  1.0546 -0.6806
   17BDD    C2617035   8.212   3.412  13.664  0.5975  0.3887 -0.3960
   18TPM     C117036   8.326   3.524  12.791  0.4223 -0.3859 -0.2775
   18TPM     C217037   8.209   3.474  12.839  0.5205 -0.2578  0.1038
   18TPM     C317038   8.157   3.363  12.762  0.0336 -0.0537  0.1268
   18TPM     C417039   8.236   3.328  12.657 -0.4353 -0.0261 -0.2370
   18TPM     S117040   8.382   3.434  12.645 -0.2977 -0.2575 -0.6400
   19BDTP    C117041   8.024   3.106  12.109  0.2379  0.0189  0.2787
   19BDTP    C217042   8.051   2.985  12.178  0.2451 -0.0579  0.1427
   19BDTP    C317043   8.099   2.982  12.309  0.3607 -0.2002  0.0982
   19BDTP    C417044   8.121   3.105  12.374  0.4749 -0.2702  0.1920
   19BDTP    C517045   8.094   3.226  12.304  0.4680 -0.1933  0.3279
   19BDTP    C617046   8.047   3.229  12.174  0.3519 -0.0511  0.3724
   19BDTP    C717047   8.170   3.127  12.508  0.6059 -0.4167  0.1694
   19BDTP    C817048   8.181   3.258  12.543  0.6959 -0.4532  0.2804
   19BDTP    S117049   8.131   3.371  12.409  0.6280 -0.3070  0.4292
   19BDTP    C917050   7.976   3.084  11.974  0.1072  0.1655  0.3013
   19BDTP   C1017051   7.965   2.953  11.940  0.0169  0.2020  0.1903
   19BDTP    S217052   8.014   2.840  12.073  0.0849  0.0557  0.0415
   20FTM     S117053   8.124   2.833  12.545 -0.0939  0.1074 -0.2211
   20FTM     C117054   8.206   2.673  12.537  0.8488  0.5889 -0.4175
   20FTM     C217055   8.248   2.649  12.410  1.0452  1.0097 -0.4368
   20FTM     C317056   8.219   2.751  12.313  0.4876  0.9839 -0.3032
   20FTM     C417057   8.153   2.856  12.368 -0.1561  0.5286 -0.1776
   20FTM     F117058   8.315   2.533  12.373  1.7409  1.4431 -0.5765
   20FTM     C517059   8.191   2.578  12.651 -0.4598 -0.3910  1.6626
   20FTM     C617060   8.301   2.467  12.694 -0.6722 -0.0340  1.2193
   20FTM     C717061   8.317   2.357  12.606 -0.0182 -0.3715  0.2883
   20FTM     C817062   8.187   2.265  12.591 -0.1318 -0.2074  0.0855
   20FTM     C917063   8.169   2.194  12.463  0.3299  0.6382  0.6172
   20FTM    C1017064   8.247   2.064  12.461 -0.3060 -0.1777 -0.6314
   20FTM    C1117065   8.435   2.530  12.739 -1.3047  0.6809  0.3463
   20FTM    C1217066   8.444   2.622  12.865 -0.3181 -0.5030  0.6601
   21FTM     S117067   8.101   3.477  12.020 -0.5515 -0.1158 -0.4453
   21FTM     C117068   7.965   3.595  12.019 -0.5982 -0.1695 -0.4694
   21FTM     C217069   7.859   3.544  12.087 -0.3536  0.0640  0.0997
   21FTM     C317070   7.877   3.413  12.143 -0.1203  0.2933  0.5776
   21FTM     C417071   8.000   3.362  12.117 -0.1888  0.2336  0.3677
   21FTM     F117072   7.740   3.613  12.103 -0.3260  0.0839  0.2216
   21FTM     C517073   7.974   3.709  11.928 -0.8323  1.9781 -1.0094
   21FTM     C617074   8.045   3.711  11.798  0.1834  0.5549 -0.2914
   21FTM     C717075   7.984   3.603  11.696 -0.4723 -0.4584 -0.7841
   21FTM     C817076   8.070   3.558  11.575 -0.8504  2.1503 -0.5490
   21FTM     C917077   8.041   3.400  11.528 -0.0203 -1.2744  0.0777
   21FTM    C1017078   8.121   3.305  11.632  1.4257 -1.0060  0.7188
   21FTM    C1117079   8.031   3.837  11.725  0.2021 -0.5246  1.1239
   21FTM    C1217080   8.016   3.965  11.799 -0.8984 -1.0641 -0.3534
   22TPM     C117081   7.928   2.876  11.833 -0.4830 -0.1304  0.2311
   22TPM     C217082   7.826   2.901  11.745 -0.3524  0.0368  0.1269
   22TPM     C317083   7.793   2.790  11.661 -0.1739  0.2223 -0.1939
   22TPM     C417084   7.869   2.679  11.684 -0.1682  0.1969 -0.3343
   22TPM     S117085   7.990   2.707  11.815 -0.3898 -0.0657 -0.0702
   23BDD     C117086   7.755   2.333  11.559 -0.3523  0.1485 -0.2879
   23BDD     C217087   7.880   2.352  11.506 -0.3055  0.0957 -0.1986
   23BDD     C317088   7.939   2.480  11.543 -0.0372 -0.1725  0.3112
   23BDD     C417089   7.859   2.555  11.624  0.1166 -0.3205  0.6033
   23BDD     S117090   7.704   2.472  11.660 -0.0637 -0.1342  0.2601
   23BDD     C517091   7.949   2.255  11.418 -0.5057  0.2901 -0.5787
   23BDD     C617092   8.073   2.522  11.496  0.0567 -0.2723  0.4901
   23BDD     O117093   8.124   2.631  11.529  0.2882 -0.5037  0.9297
   23BDD     O217094   7.898   2.145  11.386 -0.7371  0.5215 -1.0183
   23BDD     C717095   8.142   2.424  11.409 -0.1433 -0.0779  0.1100
   23BDD     C817096   8.083   2.297  11.372 -0.4117  0.1904 -0.3998
   23BDD     C917097   8.163   2.222  11.291 -0.5655  0.3383 -0.6919
   23BDD     S217098   8.318   2.305  11.255 -0.3852  0.1520 -0.3488
   23BDD    C1017099   8.266   2.444  11.356 -0.0966 -0.1307  0.1993
   23BDD    C1117100   8.377   2.530  11.365 -1.2862 -1.6451 -0.1540
   23BDD    C1217101   8.401   2.658  11.282  1.2054 -0.6252 -0.1532
   23BDD    C1317102   8.500   2.759  11.344 -0.3267 -0.0689 -0.7484
   23BDD    C1417103   8.650   2.716  11.356  0.0597  1.2851  0.0104
   23BDD    C1517104   8.750   2.840  11.384  0.2402 -0.7152  1.0379
   23BDD    C1617105   8.902   2.802  11.409  0.3005  1.2356  0.3036
   23BDD    C1717106   8.277   2.735  11.219 -0.0826 -0.1001 -1.6688
   23BDD    C1817107   8.281   2.835  11.112 -0.0939  0.0144 -0.0513
   23BDD    C1917108   8.173   2.069  11.262 -0.3779  0.4550 -0.3017
   23BDD    C2017109   8.281   1.981  11.330 -0.5610  0.5477 -0.1144
   23BDD    C2117110   8.283   1.980  11.494  0.7699 -1.5228 -0.1596
   23BDD    C2217111   8.158   1.947  11.580 -0.3241  0.4776 -0.2438
   23BDD    C2317112   8.145   1.797  11.579 -1.0672  1.1083  0.6137
   23BDD    C2417113   8.012   1.737  11.597 -0.2905 -1.4104 -0.1798
   23BDD    C2517114   8.419   2.015  11.268 -1.0008 -0.6291 -0.2913
   23BDD    C2617115   8.545   1.937  11.277  0.1335  1.2487  0.2455
   24TPM     C117116   7.652   2.221  11.560 -0.7849  0.4032 -0.5095
   24TPM     C217117   7.622   2.158  11.444 -0.6596 -0.2720 -0.1858
   24TPM     C317118   7.500   2.081  11.450 -0.2126 -0.9577  0.3776
   24TPM     C417119   7.438   2.085  11.571  0.0031 -0.8053  0.4835
   24TPM     S117120   7.529   2.188  11.688 -0.3446  0.2239 -0.1249
   25BDTP    C117121   6.860   1.872  11.712 -0.3374  0.4360  0.0773
   25BDTP    C217122   6.898   1.937  11.833 -0.3604  0.1951  0.2151
   25BDTP    C317123   7.021   2.000  11.848 -0.3507  0.1398  0.3760
   25BDTP    C417124   7.109   2.000  11.738 -0.3166  0.3307  0.4026
   25BDTP    C517125   7.070   1.936  11.618 -0.2937  0.5717  0.2649
   25BDTP    C617126   6.948   1.872  11.603 -0.3034  0.6270  0.1039
   25BDTP    C717127   7.241   2.060  11.730 -0.3010  0.3178  0.5580
   25BDTP    C817128   7.303   2.043  11.611 -0.2675  0.5345  0.5436
   25BDTP    S117129   7.202   1.949  11.491 -0.2513  0.7856  0.3314
   25BDTP    C917130   6.728   1.813  11.720 -0.3530  0.4491 -0.0780
   25BDTP   C1017131   6.666   1.830  11.840 -0.3865  0.2323 -0.0637
   25BDTP    S217132   6.767   1.923  11.959 -0.4027 -0.0187  0.1485
   26FTM     S117133   7.121   2.221  11.977 -0.0724  0.0221 -0.0789
   26FTM     C117134   7.217   2.193  12.126 -0.1157  0.1482 -0.0278
   26FTM     C217135   7.204   2.064  12.167 -0.3165  0.2413  0.2101
   26FTM     C317136   7.120   1.981  12.086 -0.4458  0.2208  0.3634
   26FTM     C417137   7.068   2.048  11.980 -0.3404  0.1082  0.2388
   26FTM     F117138   7.267   2.014  12.280 -0.3951  0.3507  0.3032
   26FTM     C517139   7.250   2.314  12.196  0.7555  0.8778 -0.1895
   26FTM     C617140   7.161   2.382  12.295  0.7527  0.2337 -1.0672
   26FTM     C717141   7.165   2.353  12.444 -0.5325  0.1520 -0.1447
   26FTM     C817142   7.309   2.372  12.514 -0.2784 -0.1096  0.7110
   26FTM     C917143   7.331   2.365  12.660 -1.1001  0.0448  0.0916
   26FTM    C1017144   7.289   2.238  12.739  0.3273 -0.0738  0.8257
   26FTM    C1117145   7.034   2.441  12.255 -0.8936  0.0634  0.4061
   26FTM    C1217146   6.918   2.361  12.224  0.6375  1.2263  0.0468
   27FTM     S117147   7.025   1.614  11.474 -0.1773 -0.0503  0.1290
   27FTM     C117148   6.906   1.555  11.352  0.4364  0.2517 -0.6380
   27FTM     C217149   6.808   1.647  11.336  0.3996  0.1940 -0.7384
   27FTM     C317150   6.818   1.766  11.414 -0.0962 -0.0817 -0.2367
   27FTM     C417151   6.929   1.766  11.494 -0.4506 -0.2405  0.2638
   27FTM     F117152   6.702   1.628  11.248  0.8129  0.3876 -1.2903
   27FTM     C517153   6.893   1.436  11.266  0.2630  0.1867 -0.2128
   27FTM     C617154   7.022   1.383  11.221  0.7660  1.7720  0.3025
   27FTM     C717155   7.102   1.291  11.306  1.7156  0.8190  0.0538
   27FTM     C817156   7.052   1.153  11.353 -0.0097 -0.1706 -0.3249
   27FTM     C917157   7.075   1.046  11.246 -1.0767 -0.9253  0.2951
   27FTM    C1017158   7.045   0.904  11.292  0.1996  1.4974  0.3554
   27FTM    C1117159   7.087   1.440  11.100 -0.9247  0.2311 -1.1402
   27FTM    C1217160   7.181   1.570  11.121  0.6064  0.4499  0.1709
   28TPM     C117161   6.539   1.779  11.894 -0.2148  1.2243  0.8407
   28TPM     C217162   6.535   1.755  12.028 -0.6133  0.9616  0.7847
   28TPM     C317163   6.410   1.699  12.073 -0.3991 -0.0759  0.1464
   28TPM     C417164   6.319   1.680  11.974  0.1626 -0.6042 -0.2842
   28TPM     S117165   6.384   1.733  11.814  0.4671  0.1735  0.0858
   29BDD     C117166   5.952   1.565  12.081 -0.1898 -0.1509  0.6127
   29BDD     C217167   5.987   1.483  11.978 -0.1180 -0.0767  0.5780
   29BDD     C317168   6.119   1.511  11.924 -0.0359 -0.1075  0.7611
   29BDD     C417169   6.182   1.615  11.987 -0.0463 -0.2047  0.9328
   29BDD     S117170   6.081   1.684  12.118 -0.1593 -0.2643  0.8771
   29BDD     C517171   5.901   1.375  11.925 -0.1223  0.0250  0.3752
   29BDD     C617172   6.178   1.434  11.812  0.0497 -0.0395  0.7591
   29BDD     O117173   6.291   1.459  11.766  0.1204 -0.0660  0.9170
   29BDD     O217174   5.788   1.350  11.971 -0.1930  0.0516  0.2173
   29BDD     C717175   6.092   1.326  11.759  0.0454  0.0623  0.5563
   29BDD     C817176   5.960   1.298  11.813 -0.0367  0.0931  0.3732
   29BDD     C917177   5.897   1.194  11.750 -0.0263  0.1903  0.2014
   29BDD     S217178   5.998   1.125  11.619  0.0867  0.2499  0.2572
   29BDD    C1017179   6.127   1.244  11.656  0.1171  0.1365  0.5215
   29BDD    C1117180   6.223   1.219  11.555  0.3000 -0.5927  0.3073
   29BDD    C1217181   6.295   1.087  11.563 -0.1987 -0.1722  0.8355
   29BDD    C1317182   6.443   1.119  11.589 -0.9581  0.8703  0.0875
   29BDD    C1417183   6.549   1.018  11.624 -1.0256  0.1730  0.0803
   29BDD    C1517184   6.602   0.939  11.507 -1.2719 -0.3855  0.3919
   29BDD    C1617185   6.698   1.029  11.433  0.7264 -0.4228  0.7350
   29BDD    C1717186   6.244   0.964  11.474 -0.4072 -0.8925 -0.6506
   29BDD    C1817187   6.280   0.989  11.328  0.9539  1.0747  1.5268
   29BDD    C1917188   5.756   1.137  11.762  0.3359 -0.4429  0.2410
   29BDD    C2017189   5.644   1.208  11.671 -0.8599  0.3139 -1.2542
   29BDD    C2117190   5.686   1.266  11.528  0.1815  0.7521 -0.2582
   29BDD    C2217191   5.642   1.412  11.514 -0.0007  0.9055  0.4166
   29BDD    C2317192   5.666   1.499  11.386 -1.2226 -0.5064  0.9092
   29BDD    C2417193   5.802   1.574  11.393 -0.4026  1.2132  1.0183
   29BDD    C2517194   5.513   1.134  11.699  0.3149 -0.6829  0.3296
   29BDD    C2617195   5.423   1.183  11.825 -0.7697  0.8184  0.6723
   30TPM     C117196   5.835   1.582  12.164 -0.1683  0.3774  1.0447
   30TPM     C217197   5.749   1.688  12.156 -0.1086  0.4362  1.1734
   30TPM     C317198   5.629   1.670  12.233 -0.4455  0.0968  0.5845
   30TPM     C417199   5.623   1.551  12.299 -0.7621 -0.2207  0.0067
   30TPM     S117200   5.770   1.451  12.270 -0.6585 -0.1150  0.1628
   31BDTP    C117201   5.121   1.341  12.616  0.3710  0.2657  0.1075
   31BDTP    C217202   5.161   1.227  12.539  0.3356  0.1790  0.2161
   31BDTP    C317203   5.268   1.230  12.451  0.2450  0.1048  0.1023
   31BDTP    C417204   5.340   1.351  12.438  0.1863  0.1166 -0.1293
   31BDTP    C517205   5.301   1.464  12.515  0.2217  0.2033 -0.2378
   31BDTP    C617206   5.193   1.461  12.603  0.3123  0.2775 -0.1241
   31BDTP    C717207   5.455   1.378  12.354  0.0901  0.0498 -0.2820
   31BDTP    C817208   5.503   1.504  12.364  0.0521  0.0819 -0.4971
   31BDTP    S117209   5.409   1.606  12.481  0.1327  0.2011 -0.5366
   31BDTP    C917210   5.007   1.314  12.701  0.4673  0.3325  0.2603
   31BDTP   C1017211   4.959   1.187  12.691  0.5054  0.3004  0.4754
   31BDTP    S217212   5.052   1.085  12.573  0.4246  0.1811  0.5148
   32FTM     S117213   5.395   1.084  12.233  0.3737  0.1470  0.4186
   32FTM     C117214   5.422   0.910  12.273  0.0324  0.2200  0.9824
   32FTM     C217215   5.360   0.880  12.390 -0.8007  0.4976  0.6296
   32FTM     C317216   5.290   0.987  12.454 -1.2146  0.6664 -0.0833
   32FTM     C417217   5.298   1.103  12.384 -0.6807  0.5131 -0.2830
   32FTM     F117218   5.363   0.753  12.446 -1.2382  0.6154  0.9313
   32FTM     C517219   5.523   0.823  12.196  0.1788 -1.5501 -0.0450
   32FTM     C617220   5.479   0.677  12.164 -0.8884 -1.3284  0.5063
   32FTM     C717221   5.379   0.685  12.037  1.7953  0.3351  0.6620
   32FTM     C817222   5.409   0.765  11.913  0.2894 -0.1450  0.1663
   32FTM     C917223   5.353   0.698  11.793 -0.3739  0.5122  0.2487
   32FTM    C1017224   5.399   0.736  11.651 -0.4158 -0.5396  0.9181
   32FTM    C1117225   5.597   0.573  12.159  0.3586 -0.3764  0.8673
   32FTM    C1217226   5.657   0.520  12.286 -0.9502  0.8680 -0.0505
   33FTM     S117227   5.066   1.707  12.637  0.4555 -0.5473  0.4453
   33FTM     C117228   5.110   1.809  12.779  0.3515 -0.0956  0.1613
   33FTM     C217229   5.201   1.743  12.856  0.2456  0.1173  0.4728
   33FTM     C317230   5.241   1.613  12.810  0.2390 -0.0538  0.9400
   33FTM     C417231   5.178   1.578  12.694  0.3431 -0.4093  0.9879
   33FTM     F117232   5.254   1.796  12.973  0.1484  0.4797  0.3532
   33FTM     C517233   5.043   1.944  12.793  0.2926  0.3606 -0.6302
   33FTM     C617234   5.095   2.062  12.886  0.1668 -0.2362 -0.6156
   33FTM     C717235   5.214   2.126  12.818 -0.9050  1.3339 -0.1207
   33FTM     C817236   5.361   2.091  12.865  0.1251  0.7862 -0.0606
   33FTM     C917237   5.430   2.085  13.009  1.7110 -1.0694  0.5842
   33FTM    C1017238   5.340   2.125  13.135 -0.7024 -0.1707  0.9822
   33FTM    C1117239   4.979   2.164  12.934  0.3665  0.4964 -0.2640
   33FTM    C1217240   4.891   2.227  12.825 -0.5275 -0.9976 -0.6114
   34TPM     C117241   4.860   1.110  12.770 -0.2442  0.2600  0.2890
   34TPM     C217242   4.816   1.133  12.897 -0.5292  0.5368  0.1428
   34TPM     C317243   4.713   1.042  12.940 -0.6057  0.6126  0.1206
   34TPM     C417244   4.679   0.950  12.845 -0.3790  0.3935  0.2500
   34TPM     S117245   4.775   0.971  12.694 -0.0489  0.0721  0.4111
   35BDD     C117246   4.409   0.681  12.968 -0.1508 -0.2617  0.2325
   35BDD     C217247   4.527   0.643  13.026 -0.1023 -0.0770  0.2546
   35BDD     C317248   4.640   0.724  12.984 -0.2316  0.1413  0.3259
   35BDD     C417249   4.606   0.822  12.895 -0.3768  0.1198  0.3569
   35BDD     S117250   4.431   0.820  12.857 -0.3617 -0.1751  0.2992
   35BDD     C517251   4.541   0.531  13.121  0.0647 -0.0944  0.2112
   35BDD     C617252   4.777   0.701  13.033 -0.2064  0.3632  0.3605
   35BDD     O117253   4.875   0.771  12.997 -0.3179  0.5514  0.4219
   35BDD     O217254   4.443   0.461  13.157  0.1763 -0.2826  0.1498
   35BDD     C717255   4.791   0.589  13.129 -0.0395  0.3458  0.3171
   35BDD     C817256   4.678   0.508  13.171  0.0899  0.1275  0.2459
   35BDD     C917257   4.712   0.410  13.259  0.2352  0.1490  0.2148
   35BDD     S217258   4.887   0.412  13.297  0.2202  0.4439  0.2726
   35BDD    C1017259   4.909   0.552  13.186  0.0092  0.5305  0.3392
   35BDD    C1117260   5.050   0.581  13.172 -1.0366 -1.4712  1.0356
   35BDD    C1217261   5.094   0.698  13.283  0.2262  0.6036 -0.0931
   35BDD    C1317262   5.067   0.662  13.433 -0.1325  0.3141 -0.8805
   35BDD    C1417263   5.105   0.771  13.543  1.6671  0.0693 -1.5143
   35BDD    C1517264   5.003   0.881  13.567  0.6490  0.0956 -0.6874
   35BDD    C1617265   4.867   0.825  13.620 -0.2148 -0.1918  0.0448
   35BDD    C1717266   5.248   0.732  13.269  0.6980 -0.0523  0.2846
   35BDD    C1817267   5.262   0.840  13.166 -0.0581  0.1021  1.4200
   35BDD    C1917268   4.640   0.282  13.317 -0.6199  0.4392  0.7753
   35BDD    C2017269   4.550   0.310  13.432  0.6416  0.3983 -0.1773
   35BDD    C2117270   4.449   0.192  13.474 -1.0584  0.1933 -0.3521
   35BDD    C2217271   4.514   0.076  13.557  1.1769 -0.5004  0.5546
   35BDD    C2317272   4.441   0.058  13.691 -0.8708  1.1742 -0.5328
   35BDD    C2417273   4.543  -0.016  13.778 -0.3864  0.1537 -0.2962
   35BDD    C2517274   4.581   0.406  13.542  0.1914  0.2022  0.5358
   35BDD    C2617275   4.710   0.363  13.613 -0.1475  0.4878 -0.6238
   36TPM     C117276   4.279   0.635  12.985  0.5546 -0.4269  0.3850
   36TPM     C217277   4.200   0.571  12.894  0.9832 -1.2307  0.5655
   36TPM     C317278   4.077   0.520  12.949  0.8719 -1.0268  0.5074
   36TPM     C417279   4.062   0.545  13.082  0.3584 -0.0677  0.2825
   36TPM     S117280   4.202   0.636  13.149 -0.0275  0.6582  0.1256
   37BDTP    C117281   3.541   0.367  13.381 -0.3277  0.1962  0.1844
   37BDTP    C217282   3.586   0.479  13.456 -0.1153 -0.0033  0.3591
   37BDTP    C317283   3.705   0.546  13.429 -0.0395 -0.1213  0.3987
   37BDTP    C417284   3.783   0.499  13.322 -0.1795 -0.0390  0.2597
   37BDTP    C517285   3.739   0.387  13.246 -0.3919  0.1605  0.0849
   37BDTP    C617286   3.620   0.320  13.274 -0.4676  0.2785  0.0453
   37BDTP    C717287   3.910   0.552  13.274 -0.1372 -0.1324  0.2685
   37BDTP    C817288   3.961   0.485  13.168 -0.3053 -0.0141  0.1109
   37BDTP    S117289   3.857   0.347  13.113 -0.5409  0.2322 -0.0709
   37BDTP    C917290   3.415   0.314  13.428 -0.3700  0.2896  0.1755
   37BDTP   C1017291   3.363   0.381  13.534 -0.2019  0.1713  0.3331
   37BDTP    S217292   3.467   0.520  13.589  0.0338 -0.0750  0.5150
   38FTM     S117293   3.678   0.814  13.461 -0.2635  0.3112  0.4435
   38FTM     C117294   3.776   0.906  13.581  0.7321  0.7848 -0.7007
   38FTM     C217295   3.860   0.822  13.647  1.5675  1.1086 -1.3205
   38FTM     C317296   3.854   0.684  13.609  1.4862  1.0106 -0.9524
   38FTM     C417297   3.762   0.662  13.512  0.5584  0.5982 -0.0202
   38FTM     F117298   3.948   0.866  13.745  2.4554  1.5131 -2.2580
   38FTM     C517299   3.742   1.054  13.618 -0.3468  0.4587  0.8483
   38FTM     C617300   3.839   1.151  13.545 -0.0455 -1.6614 -0.2280
   38FTM     C717301   3.987   1.159  13.584  0.1640 -0.6138  0.1228
   38FTM     C817302   4.087   1.284  13.556  0.5716  0.6170 -0.3661
   38FTM     C917303   4.182   1.226  13.454 -0.0743  0.4723  1.5302
   38FTM    C1017304   4.292   1.329  13.440 -0.3370  0.1731 -0.8975
   38FTM    C1117305   3.770   1.283  13.506  0.8766 -0.5450  0.2373
   38FTM    C1217306   3.643   1.258  13.417 -0.1090 -0.9791  0.6119
   39FTM     S117307   3.420   0.223  13.101  0.2606  0.2290 -0.3248
   39FTM     C117308   3.452   0.065  13.020 -0.0475  0.1508 -0.2958
   39FTM     C217309   3.569   0.013  13.064 -0.2024 -0.1243 -0.2042
   39FTM     C317310   3.640   0.091  13.162 -0.0935 -0.2872 -0.1523
   39FTM     C417311   3.575   0.206  13.193  0.1528 -0.1316 -0.2058
   39FTM     F117312   3.620  -0.108  13.020 -0.4519 -0.2451 -0.1620
   39FTM     C517313   3.335   0.008  12.931  0.0390 -0.9716 -0.2435
   39FTM     C617314   3.219  -0.038  13.036  0.7415  0.0595 -0.3325
   39FTM     C717315   3.125   0.075  13.082 -0.3919  0.6592 -0.2021
   39FTM     C817316   3.078   0.172  12.968 -0.4816  0.1203 -0.0673
   39FTM     C917317   2.958   0.149  12.902  0.8514  0.1604 -0.3758
   39FTM    C1017318   2.969   0.079  12.761 -1.1354 -1.4446 -0.0405
   39FTM    C1117319   3.245  -0.149  13.122 -0.2454  0.0945 -0.6706
   39FTM    C1217320   3.127  -0.262  13.119 -0.9022 -0.7058  1.3363
   40TPM     C117321   3.238   0.368  13.600 -0.2193  0.2513  0.5802
   40TPM     C217322   3.113   0.365  13.546 -0.1493  0.2477  0.4163
   40TPM     C317323   3.008   0.354  13.644 -0.2470 -0.4080  0.2507
   40TPM     C417324   3.053   0.350  13.773 -0.3915 -0.9045  0.2884
   40TPM     S117325   3.233   0.358  13.780 -0.4155 -0.5797  0.5379
   41BDD     C117326   2.736   0.297  14.007  0.1674  0.0330 -0.1903
   41BDD     C217327   2.837   0.331  14.092  0.1091  0.0554 -0.1298
   41BDD     C317328   2.963   0.358  14.024  0.2047 -0.1468 -0.0360
   41BDD     C417329   2.955   0.345  13.889  0.3344 -0.3204 -0.0263
   41BDD     S117330   2.791   0.297  13.836  0.3458 -0.2427 -0.1339
   41BDD     C517331   2.822   0.340  14.239 -0.0365  0.2634 -0.1562
   41BDD     C617332   3.085   0.397  14.097  0.1638 -0.1604  0.0405
   41BDD     O117333   3.194   0.421  14.039  0.2462 -0.3347  0.1213
   41BDD     O217334   2.714   0.316  14.297 -0.1189  0.4377 -0.2369
   41BDD     C717335   3.070   0.406  14.244  0.0182  0.0476  0.0141
   41BDD     C817336   2.945   0.378  14.311 -0.0774  0.2497 -0.0796
   41BDD     C917337   2.952   0.392  14.447 -0.2072  0.4233 -0.0893
   41BDD     S217338   3.117   0.440  14.500 -0.2185  0.3456  0.0181
   41BDD    C1017339   3.172   0.440  14.329 -0.0402  0.0699  0.0746
   41BDD    C1117340   3.317   0.488  14.314  0.0968  0.3208  2.3201
   41BDD    C1217341   3.429   0.390  14.274 -0.1373 -0.8264 -0.3620
   41BDD    C1317342   3.546   0.464  14.208  0.4260  0.9856 -0.3151
   41BDD    C1417343   3.504   0.488  14.080  0.1428 -0.1999  0.1896
   41BDD    C1517344   3.596   0.599  14.014 -0.7861  1.0180  0.9363
   41BDD    C1617345   3.533   0.731  14.063 -0.6477  0.6616 -1.2201
   41BDD    C1717346   3.450   0.319  14.423  0.2726 -1.0484  0.0745
   41BDD    C1817347   3.573   0.344  14.497 -0.3352  0.7713 -0.2716
   41BDD    C1917348   2.855   0.370  14.560 -1.2715 -0.3505 -1.2137
   41BDD    C2017349   2.899   0.248  14.654  0.2971 -0.6166  0.4273
   41BDD    C2117350   2.774   0.160  14.684  0.1646 -0.2390 -0.2367
   41BDD    C2217351   2.644   0.209  14.752 -0.6294 -0.8652  0.0969
   41BDD    C2317352   2.534   0.272  14.660 -0.7186 -1.1834  0.4531
   41BDD    C2417353   2.473   0.206  14.541  0.4245 -0.4617 -1.5313
   41BDD    C2517354   2.981   0.303  14.779  0.3926 -0.1478 -0.4447
   41BDD    C2617355   3.082   0.191  14.830 -0.4207 -0.2412 -1.5248
   42TPM     C117356   2.590   0.267  14.017  0.4490 -0.2661 -0.0092
   42TPM     C217357   2.513   0.340  13.931  0.5344 -0.4526 -0.2486
   42TPM     C317358   2.374   0.345  13.969  0.4572 -0.5457 -0.5172
   42TPM     C417359   2.346   0.276  14.083  0.3129 -0.4302 -0.4827
   42TPM     S117360   2.493   0.199  14.152  0.2629 -0.1930 -0.1052
   43BDTP    C117361   1.743   0.326  14.274 -0.0926  0.0533  0.4624
   43BDTP    C217362   1.813   0.308  14.396 -0.0634  0.0439  0.4442
   43BDTP    C317363   1.950   0.284  14.401 -0.0834 -0.0811  0.4036
   43BDTP    C417364   2.021   0.278  14.280 -0.1347 -0.2027  0.3799
   43BDTP    C517365   1.950   0.296  14.157 -0.1639 -0.1932  0.3981
   43BDTP    C617366   1.813   0.320  14.153 -0.1439 -0.0682  0.4387
   43BDTP    C717367   2.162   0.254  14.260 -0.1638 -0.3437  0.3373
   43BDTP    C817368   2.201   0.254  14.130 -0.2128 -0.4393  0.3229
   43BDTP    S117369   2.063   0.283  14.015 -0.2289 -0.3642  0.3611
   43BDTP    C917370   1.601   0.350  14.294 -0.0635  0.1943  0.5050
   43BDTP   C1017371   1.563   0.350  14.424 -0.0145  0.2900  0.5195
   43BDTP    S217372   1.700   0.321  14.539  0.0016  0.2149  0.4812
   44FTM     S117373   1.945   0.096  14.616  0.0511 -0.3024  0.2497
   44FTM     C117374   2.027   0.152  14.766  0.2006 -0.1080  0.0960
   44FTM     C217375   2.083   0.275  14.746  0.1651 -0.1265 -0.1121
   44FTM     C317376   2.066   0.331  14.615  0.0228 -0.2890 -0.1635
   44FTM     C417377   1.994   0.248  14.533 -0.0531 -0.3985  0.0110
   44FTM     F117378   2.153   0.343  14.844  0.2593  0.0026 -0.2685
   44FTM     C517379   2.017   0.077  14.899  0.5867  0.2869  1.3247
   44FTM     C617380   1.919  -0.005  14.956  0.0292  0.9315  0.7294
   44FTM     C717381   1.800  -0.065  14.870  0.1958 -0.4653 -0.3525
   44FTM     C817382   1.674   0.017  14.827 -1.6452  0.7271  0.5297
   44FTM     C917383   1.600  -0.088  14.749 -1.5052 -0.5286 -0.5686
   44FTM    C1017384   1.519  -0.061  14.639 -0.1730  1.4924  1.1281
   44FTM    C1117385   1.979  -0.079  15.082  0.9905  1.0793 -1.5502
   44FTM    C1217386   2.029  -0.230  15.039  0.1344 -0.2480 -0.8991
   45FTM     S117387   1.714   0.512  13.973 -0.6862 -0.2341  0.2455
   45FTM     C117388   1.665   0.456  13.809  0.3585 -0.3084 -0.0576
   45FTM     C217389   1.679   0.321  13.800  1.2576 -0.2170 -0.2164
   45FTM     C317390   1.728   0.254  13.918  1.1906 -0.0867 -0.1144
   45FTM     C417391   1.752   0.342  14.020  0.2081 -0.0781  0.1302
   45FTM     F117392   1.648   0.249  13.685  2.1947 -0.2458 -0.4632
   45FTM     C517393   1.585   0.565  13.718 -0.2183  1.0510 -0.6982
   45FTM     C617394   1.537   0.523  13.570 -0.0667  0.9485 -0.4247
   45FTM     C717395   1.662   0.529  13.477 -0.5522 -0.0051  0.9006
   45FTM     C817396   1.669   0.440  13.350 -0.1635  0.0751 -0.4214
   45FTM     C917397   1.777   0.464  13.253 -0.9428 -1.0733 -0.3944
   45FTM    C1017398   1.776   0.436  13.106  0.9196 -0.2582  0.4279
   45FTM    C1117399   1.427   0.615  13.534  0.0218 -0.7836  0.0359
   45FTM    C1217400   1.300   0.609  13.624 -0.7815  0.0136  0.3791
   46TPM     C117401   1.419   0.375  14.455  0.5394  0.1797  0.6846
   46TPM     C217402   1.368   0.435  14.566  0.5457 -0.7154  1.1855
   46TPM     C317403   1.224   0.430  14.573  0.5826 -1.4672  1.5693
   46TPM     C417404   1.166   0.366  14.468  0.6044 -1.1453  1.3611
   46TPM     S117405   1.289   0.307  14.350  0.5798  0.1423  0.6586
   47BDD     C117406   0.869   0.115  14.527 -0.1746 -0.2000  0.1552
   47BDD     C217407   0.830   0.232  14.585 -0.2087 -0.1620  0.0570
   47BDD     C317408   0.925   0.341  14.567 -0.0669 -0.2473  0.2733
   47BDD     C417409   1.035   0.305  14.494  0.0733 -0.3491  0.5333
   47BDD     S117410   1.027   0.133  14.444  0.0374 -0.3452  0.5251
   47BDD     C517411   0.704   0.249  14.661 -0.3730 -0.0459 -0.2391
   47BDD     C617412   0.902   0.476  14.622 -0.0756 -0.2247  0.2144
   47BDD     O117413   0.984   0.570  14.606  0.0467 -0.2983  0.4008
   47BDD     O217414   0.622   0.155  14.677 -0.4953  0.0277 -0.4256
   47BDD     C717415   0.776   0.493  14.697 -0.2398 -0.1086 -0.0818
   47BDD     C817416   0.682   0.384  14.716 -0.3817 -0.0233 -0.2981
   47BDD     C917417   0.572   0.420  14.789 -0.5219  0.0786 -0.5578
   47BDD     S217418   0.579   0.592  14.839 -0.4859  0.0746 -0.5497
   47BDD    C1017419   0.737   0.610  14.756 -0.2739 -0.0706 -0.1798
   47BDD    C1117420   0.822   0.727  14.780  0.5488 -0.2814 -0.1519
   47BDD    C1217421   0.844   0.788  14.919  1.7769  1.1582  0.0521
   47BDD    C1317422   0.903   0.729  15.046  1.6464 -0.4723 -0.4660
   47BDD    C1417423   1.046   0.696  15.055  0.8001  0.5073 -0.2061
   47BDD    C1517424   1.111   0.581  14.962 -0.8550  0.1584 -0.6296
   47BDD    C1617425   1.062   0.445  14.957  0.4684 -0.6822 -0.0500
   47BDD    C1717426   0.867   0.931  14.921  0.0842 -0.5972  0.1100
   47BDD    C1817427   0.820   1.035  14.808  0.3565  0.6475 -1.0529
   47BDD    C1917428   0.457   0.347  14.856  0.9183 -0.0471  0.9496
   47BDD    C2017429   0.445   0.382  15.019 -0.2392  2.4092 -0.6098
   47BDD    C2117430   0.433   0.256  15.133  0.1055 -0.0543  0.6159
   47BDD    C2217431   0.556   0.164  15.178 -0.9835 -1.1113  0.4524
   47BDD    C2317432   0.671   0.144  15.079  0.7522 -0.7816  1.0390
   47BDD    C2417433   0.779   0.079  15.159  0.0391  0.5712 -0.3833
   47BDD    C2517434   0.377   0.507  15.051  0.7218 -1.0826  0.7480
   47BDD    C2617435   0.225   0.528  15.031 -0.5219 -0.5459  1.1280
   48TPM     C117436   0.825  -0.027  14.536 -0.0161  0.4743  0.4986
   48TPM     C217437   0.866  -0.111  14.437  0.2024  0.8187  0.2946
   48TPM     C317438   0.799  -0.238  14.436  0.6021  0.6027  0.0537
   48TPM     C417439   0.705  -0.251  14.535  0.6884  0.0934  0.0743
   48TPM     S117440   0.696  -0.102  14.637  0.2683 -0.1546  0.4019
   49BDTP    C117441   0.279  -0.705  14.641  0.5363 -0.3498  0.2363
   49BDTP    C217442   0.242  -0.598  14.728  0.2918 -0.2048 -0.0397
   49BDTP    C317443   0.311  -0.478  14.733  0.0971 -0.0827 -0.2559
   49BDTP    C417444   0.422  -0.462  14.647  0.1453 -0.1042 -0.1978
   49BDTP    C517445   0.459  -0.568  14.560  0.3897 -0.2496  0.0781
   49BDTP    C617446   0.389  -0.689  14.555  0.5845 -0.3712  0.2944
   49BDTP    C717447   0.509  -0.347  14.634 -0.0265  0.0051 -0.3876
   49BDTP    C817448   0.607  -0.361  14.543  0.0760 -0.0503 -0.2689
   49BDTP    S117449   0.604  -0.523  14.460  0.4043 -0.2487  0.0998
   49BDTP    C917450   0.192  -0.820  14.653  0.7080 -0.4592  0.4260
   49BDTP   C1017451   0.093  -0.806  14.745  0.6056 -0.4036  0.3074
   49BDTP    S217452   0.096  -0.644  14.828  0.2772 -0.2055 -0.0613
   50FTM     S117453   0.261  -0.328  14.975 -0.0351 -0.6574  0.3432
   50FTM     C117454   0.168  -0.175  14.954 -0.3966 -0.7502  1.1776
   50FTM     C217455   0.135  -0.159  14.823 -0.2139  0.0110  1.2153
   50FTM     C317456   0.179  -0.262  14.733  0.2080  0.6959  0.6122
   50FTM     C417457   0.248  -0.360  14.798  0.3532  0.4517  0.0960
   50FTM     F117458   0.063  -0.050  14.776 -0.4179  0.1321  1.7982
   50FTM     C517459   0.148  -0.074  15.060 -0.4144  0.0548 -0.3371
   50FTM     C617460   0.040   0.040  15.069  0.5594  1.1113  0.7184
   50FTM     C717461  -0.107  -0.008  15.035 -0.1407  1.0167 -0.1535
   50FTM     C817462  -0.189   0.071  14.926  0.0629  1.1450  0.5378
   50FTM     C917463  -0.335   0.041  14.947 -0.0656 -0.0233 -0.0583
   50FTM    C1017464  -0.418  -0.036  14.838 -1.8973 -0.2197  0.0519
   50FTM    C1117465   0.070   0.111  15.189  0.7800  0.4286 -0.2198
   50FTM    C1217466  -0.001   0.251  15.212  0.7794  1.2946  0.7226
   51FTM     S117467   0.619  -0.838  14.427  0.1473 -0.2246  0.5353
   51FTM     C117468   0.560  -0.989  14.348 -0.3825  0.5409 -0.5933
   51FTM     C217469   0.426  -1.002  14.366 -0.4905  1.0500 -1.0055
   51FTM     C317470   0.362  -0.897  14.440 -0.1755  0.8802 -0.4815
   51FTM     C417471   0.450  -0.801  14.480  0.1855  0.2193  0.3593
   51FTM     F117472   0.353  -1.109  14.316 -0.8811  1.7004 -1.8817
   51FTM     C517473   0.669  -1.068  14.270  0.0666 -0.8342  0.4414
   51FTM     C617474   0.748  -1.064  14.146  0.2402 -0.2514  0.2472
   51FTM     C717475   0.637  -1.001  14.038 -0.2772 -0.4294 -0.3815
   51FTM     C817476   0.682  -1.020  13.894 -0.0881  1.1456 -0.3414
   51FTM     C917477   0.748  -1.160  13.855  0.3819 -1.6583  0.0167
   51FTM    C1017478   0.815  -1.149  13.720 -0.1580  0.6526 -1.6086
   51FTM    C1117479   0.848  -0.955  14.206  0.9677 -0.7410  0.3441
   51FTM    C1217480   0.911  -0.844  14.114  0.3826  0.1823 -0.2382
   52TPM     C117481  -0.027  -0.901  14.788  0.6671 -0.1967  0.6057
   52TPM     C217482  -0.131  -0.871  14.872  0.8957 -0.5457  1.0179
   52TPM     C317483  -0.219  -0.983  14.897  0.8047 -0.5808  0.5610
   52TPM     C417484  -0.182  -1.097  14.832  0.5068 -0.2582 -0.1995
   52TPM     S117485  -0.033  -1.073  14.734  0.3165  0.1176 -0.3992
   53BDD     C117486  -0.503  -1.330  14.816  0.1185 -0.0934 -0.0154
   53BDD     C217487  -0.398  -1.412  14.781  0.1223 -0.0935 -0.0039
   53BDD     C317488  -0.270  -1.344  14.779  0.0856 -0.0267 -0.2536
   53BDD     C417489  -0.278  -1.211  14.813  0.0543  0.0232 -0.4517
   53BDD     S117490  -0.447  -1.163  14.850  0.0687 -0.0098 -0.3394
   53BDD     C517491  -0.413  -1.555  14.747  0.1600 -0.1545  0.2369
   53BDD     C617492  -0.144  -1.412  14.744  0.0827 -0.0150 -0.2865
   53BDD     O117493  -0.033  -1.354  14.743  0.0510  0.0424 -0.5018
   53BDD     O217494  -0.524  -1.613  14.748  0.1917 -0.2117  0.4521
   53BDD     C717495  -0.159  -1.556  14.711  0.1202 -0.0763 -0.0458
   53BDD     C817496  -0.287  -1.623  14.712  0.1571 -0.1428  0.2038
   53BDD     C917497  -0.279  -1.756  14.678  0.1886 -0.1926  0.4020
   53BDD     S217498  -0.110  -1.804  14.642  0.1740 -0.1597  0.2896
   53BDD    C1017499  -0.055  -1.637  14.676  0.1242 -0.0763 -0.0343
   53BDD    C1117500   0.099  -1.606  14.669  0.3451  0.3243 -0.3211
   53BDD    C1217501   0.165  -1.592  14.523  0.0533 -1.2976  0.7869
   53BDD    C1317502   0.305  -1.535  14.535  1.5529  0.1000 -0.6618
   53BDD    C1417503   0.370  -1.459  14.428  0.0363  1.3490  1.4701
   53BDD    C1517504   0.438  -1.346  14.491 -0.1899  0.0553  0.0384
   53BDD    C1617505   0.597  -1.351  14.512 -0.1469  0.4439  1.2677
   53BDD    C1717506   0.148  -1.720  14.436 -0.7436 -0.3057  0.6045
   53BDD    C1817507   0.147  -1.701  14.283  0.6547 -0.9235 -0.2500
   53BDD    C1917508  -0.380  -1.873  14.653 -1.4712  0.1641 -0.0578
   53BDD    C2017509  -0.404  -1.916  14.508  0.3034 -0.7112 -0.4288
   53BDD    C2117510  -0.425  -1.772  14.418  0.8310  1.8472  0.5603
   53BDD    C2217511  -0.575  -1.725  14.402 -0.8020 -0.4653  0.6452
   53BDD    C2317512  -0.682  -1.814  14.343 -0.3044 -0.9468 -0.5001
   53BDD    C2417513  -0.687  -1.851  14.200  0.0674  0.3476  0.7824
   53BDD    C2517514  -0.295  -2.016  14.452  0.6824 -0.5964 -1.9864
   53BDD    C2617515  -0.384  -2.104  14.356 -0.3654  0.2904  0.3233
   54TPM     C117516  -0.644  -1.351  14.835 -0.1752  0.1173  0.4614
   54TPM     C217517  -0.724  -1.363  14.726  0.0734  0.3278  0.2550
   54TPM     C317518  -0.859  -1.402  14.756 -0.0367  0.4120 -0.1144
   54TPM     C417519  -0.882  -1.420  14.889 -0.3690  0.2656 -0.1900
   54TPM     S117520  -0.734  -1.388  14.987 -0.5702  0.0079  0.2029
   55BDTP    C117521  -1.442  -1.475  15.160 -0.0920 -0.0432  0.1057
   55BDTP    C217522  -1.445  -1.585  15.070 -0.0625 -0.0029  0.0551
   55BDTP    C317523  -1.338  -1.618  14.988 -0.0384  0.0386  0.0702
   55BDTP    C417524  -1.222  -1.539  14.995 -0.0434  0.0401  0.1382
   55BDTP    C517525  -1.219  -1.428  15.085 -0.0732 -0.0002  0.1887
   55BDTP    C617526  -1.326  -1.395  15.167 -0.0972 -0.0413  0.1737
   55BDTP    C717527  -1.099  -1.553  14.920 -0.0220  0.0786  0.1659
   55BDTP    C817528  -1.005  -1.460  14.949 -0.0339  0.0694  0.2339
   55BDTP    S117529  -1.059  -1.341  15.075 -0.0741  0.0107  0.2724
   55BDTP    C917530  -1.565  -1.460  15.235 -0.1137 -0.0815  0.0780
   55BDTP   C1017531  -1.659  -1.553  15.206 -0.1016 -0.0725  0.0100
   55BDTP    S217532  -1.605  -1.672  15.079 -0.0616 -0.0137 -0.0286
   56FTM     S117533  -1.336  -1.710  14.721 -0.5220 -0.1733 -0.1731
   56FTM     C117534  -1.353  -1.889  14.700 -0.4907 -0.2650  0.5278
   56FTM     C217535  -1.367  -1.948  14.821 -0.1349  0.1721  0.7914
   56FTM     C317536  -1.366  -1.862  14.935  0.1283  0.5949  0.4720
   56FTM     C417537  -1.350  -1.731  14.900 -0.0309  0.4775 -0.0532
   56FTM     F117538  -1.382  -2.086  14.836 -0.0265  0.2153  1.3374
   56FTM     C517539  -1.363  -1.931  14.565  0.0676 -0.4267  0.3509
   56FTM     C617540  -1.303  -1.829  14.455 -0.1808 -0.9408 -0.4242
   56FTM     C717541  -1.433  -1.803  14.381 -0.1485 -0.6618  1.0450
   56FTM     C817542  -1.426  -1.671  14.300 -0.4240  0.9243 -1.1237
   56FTM     C917543  -1.479  -1.543  14.348  0.8980 -0.5782  0.4357
   56FTM    C1017544  -1.498  -1.456  14.233 -0.1475  0.0583 -0.1573
   56FTM    C1117545  -1.152  -1.836  14.407  0.0761  0.1914 -0.2044
   56FTM    C1217546  -1.034  -1.798  14.509 -0.0163 -1.3826 -0.6249
   57FTM     S117547  -1.285  -1.116  15.224  0.3892 -0.5221  0.3458
   57FTM     C117548  -1.315  -1.066  15.394  0.2349  0.0889  0.1472
   57FTM     C217549  -1.349  -1.175  15.469 -0.4408  0.4492  0.3769
   57FTM     C317550  -1.355  -1.300  15.399 -0.8690  0.2763  0.7134
   57FTM     C417551  -1.323  -1.287  15.267 -0.5098 -0.2332  0.7421
   57FTM     F117552  -1.378  -1.167  15.604 -0.7114  0.9568  0.2964
   57FTM     C517553  -1.297  -0.927  15.440 -0.1483 -0.0050 -0.5096
   57FTM     C617554  -1.154  -0.873  15.484  0.6893 -0.5560  0.3535
   57FTM     C717555  -1.130  -0.722  15.551  0.0123  1.5915  0.9031
   57FTM     C817556  -1.201  -0.613  15.472 -0.3638  0.3808 -0.1744
   57FTM     C917557  -1.114  -0.478  15.457  0.1298  0.7196 -0.5181
   57FTM    C1017558  -1.014  -0.493  15.344  0.6921  0.4580  0.9453
   57FTM    C1117559  -1.043  -0.920  15.393 -0.1571  0.1480 -0.5595
   57FTM    C1217560  -0.896  -0.932  15.445  1.3053  0.9524 -0.7514
   58TPM     C117561  -1.801  -1.556  15.239 -0.4898  0.3403 -0.4809
   58TPM     C217562  -1.903  -1.622  15.177 -0.6943  1.0941 -0.9726
   58TPM     C317563  -2.031  -1.602  15.239 -0.6824  1.2536 -0.9986
   58TPM     C417564  -2.027  -1.521  15.349 -0.4692  0.6217 -0.5266
   58TPM     S117565  -1.859  -1.463  15.382 -0.2650 -0.2314 -0.0088
   59BDD     C117566  -2.225  -1.580  15.679  0.2136  0.3828  0.1801
   59BDD     C217567  -2.315  -1.531  15.588  0.1411  0.2394  0.1734
   59BDD     C317568  -2.255  -1.500  15.459  0.0460  0.0727  0.0886
   59BDD     C417569  -2.121  -1.525  15.453  0.0473  0.0907  0.0314
   59BDD     S117570  -2.060  -1.591  15.609  0.1674  0.3183  0.0802
   59BDD     C517571  -2.458  -1.511  15.616  0.1574  0.2511  0.2452
   59BDD     C617572  -2.334  -1.446  15.346 -0.0422 -0.0989  0.0669
   59BDD     O117573  -2.283  -1.419  15.235 -0.1245 -0.2429 -0.0063
   59BDD     O217574  -2.510  -1.538  15.727  0.2394  0.3951  0.3185
   59BDD     C717575  -2.478  -1.426  15.375 -0.0265 -0.0875  0.1387
   59BDD     C817576  -2.537  -1.457  15.504  0.0687  0.0794  0.2236
   59BDD     C917577  -2.671  -1.431  15.509  0.0677  0.0613  0.2807
   59BDD     S217578  -2.733  -1.366  15.354 -0.0526 -0.1662  0.2320
   59BDD    C1017579  -2.568  -1.377  15.284 -0.0987 -0.2306  0.1322
   59BDD    C1117580  -2.567  -1.351  15.126 -0.9907 -0.2911  0.0113
   59BDD    C1217581  -2.656  -1.456  15.053  1.6911 -1.3621  0.0652
   59BDD    C1317582  -2.643  -1.613  15.086  0.2762 -0.2778 -0.0727
   59BDD    C1417583  -2.690  -1.712  14.994  0.5936  1.0173 -1.3232
   59BDD    C1517584  -2.705  -1.868  15.040  0.3352 -0.0858 -0.0157
   59BDD    C1617585  -2.784  -1.885  15.174 -0.2130  0.0762  0.3860
   59BDD    C1717586  -2.795  -1.390  15.021 -0.5927  0.3970  0.1266
   59BDD    C1817587  -2.865  -1.418  14.888  0.3698  0.4718  0.6572
   59BDD    C1917588  -2.759  -1.413  15.636 -1.7089 -0.6696 -0.0265
   59BDD    C2017589  -2.801  -1.520  15.715 -0.2720  0.6816 -0.0070
   59BDD    C2117590  -2.874  -1.472  15.842 -0.1167 -1.1386 -1.3124
   59BDD    C2217591  -2.783  -1.401  15.957  1.0431  0.3968  0.3897
   59BDD    C2317592  -2.848  -1.347  16.076 -0.2865  1.4826 -0.5552
   59BDD    C2417593  -2.746  -1.363  16.195  0.3052 -0.8513  0.3867
   59BDD    C2517594  -2.889  -1.610  15.639  0.3555 -0.3280 -0.2236
   59BDD    C2617595  -2.893  -1.753  15.682  0.1570 -1.0975 -1.2808
   60TPM     C117596  -2.236  -1.643  15.810  0.2941  0.1137  0.5835
   60TPM     C217597  -2.290  -1.574  15.914  0.4926  0.0951  0.7002
   60TPM     C317598  -2.265  -1.634  16.043  0.0100 -0.3996  0.5708
   60TPM     C417599  -2.192  -1.749  16.037 -0.5567 -0.7576  0.3555
   60TPM     S117600  -2.148  -1.791  15.867 -0.5244 -0.4964  0.2986
    1BDTP    C117601   8.368  10.576   2.104 -0.1061  0.2456 -0.0263
    1BDTP    C217602   8.502  10.527   2.105 -0.1767  0.0505 -0.0470
    1BDTP    C317603   8.611  10.608   2.082 -0.0584 -0.1009 -0.0226
    1BDTP    C417604   8.589  10.744   2.056  0.1385 -0.0579  0.0245
    1BDTP    C517605   8.455  10.793   2.055  0.2089  0.1369  0.0452
    1BDTP    C617606   8.345  10.712   2.078  0.0908  0.2882  0.0208
    1BDTP    C717607   8.686  10.848   2.029  0.2885 -0.1904  0.0568
    1BDTP    C817608   8.633  10.971   2.008  0.4659 -0.1054  0.1001
    1BDTP    S117609   8.452  10.972   2.019  0.4680  0.1543  0.1062
    1BDTP    C917610   8.270  10.472   2.130 -0.2561  0.3779 -0.0585
    1BDTP   C1017611   8.323  10.349   2.152 -0.4337  0.2930 -0.1019
    1BDTP    S217612   8.505  10.348   2.140 -0.4355  0.0333 -0.1080
    2FTM     S117613   8.844  10.598   2.243 -0.0670 -0.0848  0.1510
    2FTM     C117614   8.980  10.494   2.190 -0.0688 -0.3301  0.6164
    2FTM     C217615   8.946  10.427   2.077 -0.0293 -0.7498  0.8491
    2FTM     C317616   8.814  10.452   2.026  0.0038 -0.9029  0.6838
    2FTM     C417617   8.746  10.541   2.102 -0.0102 -0.5903  0.3122
    2FTM     F117618   9.031  10.338   2.012 -0.0212 -1.0204  1.2257
    2FTM     C517619   9.106  10.523   2.269  0.4273  0.9314 -0.1411
    2FTM     C617620   9.249  10.536   2.222 -0.0819 -1.3785 -1.0995
    2FTM     C717621   9.260  10.649   2.127 -0.6770 -0.6159  1.5153
    2FTM     C817622   9.319  10.790   2.165  0.1134  0.6756 -0.1506
    2FTM     C917623   9.332  10.899   2.045  0.2099  0.7390  0.1270
    2FTM    C1017624   9.226  10.927   1.944  0.8889  0.2464  1.0936
    2FTM    C1117625   9.366  10.465   2.290 -1.0236  1.2409  0.1023
    2FTM    C1217626   9.401  10.313   2.261  0.8872 -1.7475 -1.0865
    3FTM     S117627   8.156  10.891   1.956 -0.1547  0.0281  0.0949
    3FTM     C117628   8.012  10.925   2.060 -0.2860 -0.5512  0.1080
    3FTM     C217629   8.011  10.840   2.166 -0.3409 -1.0517 -0.2884
    3FTM     C317630   8.118  10.745   2.172 -0.2861 -1.0159 -0.6183
    3FTM     C417631   8.205  10.759   2.069 -0.1857 -0.4701 -0.4698
    3FTM     F117632   7.911  10.842   2.262 -0.4443 -1.5724 -0.3759
    3FTM     C517633   7.902  11.005   1.992  0.0804  0.1719  0.5309
    3FTM     C617634   7.766  11.041   2.039 -1.3642  0.0826  0.6140
    3FTM     C717635   7.789  11.167   2.138 -0.5095  0.7614 -0.6640
    3FTM     C817636   7.682  11.264   2.145  0.1990 -0.5782 -0.4208
    3FTM     C917637   7.643  11.363   2.034 -0.4133  1.0236 -0.7698
    3FTM    C1017638   7.611  11.503   2.065 -0.4455 -0.2484 -0.9172
    3FTM    C1117639   7.674  10.924   2.072 -0.1958 -0.1604  0.6634
    3FTM    C1217640   7.536  10.942   2.112 -0.1155  0.4825  0.4096
    4TPM     C117641   8.263  10.225   2.181 -0.4557 -0.5744 -1.2837
    4TPM     C217642   8.130  10.219   2.210 -0.4969 -0.3800 -1.4314
    4TPM     C317643   8.091  10.102   2.284 -0.5927  0.1111 -0.6718
    4TPM     C417644   8.195  10.017   2.311 -0.6244  0.2918  0.0552
    4TPM     S117645   8.351  10.081   2.245 -0.5350 -0.1480 -0.1649
    5BDD     C117646   8.059   9.688   2.483 -0.3082  0.1008  0.2642
    5BDD     C217647   8.165   9.646   2.407 -0.3130  0.0694  0.2748
    5BDD     C317648   8.223   9.750   2.325 -0.3288  0.0317  0.2159
    5BDD     C417649   8.161   9.871   2.339 -0.3347  0.0355  0.1613
    5BDD     S117650   8.025   9.862   2.457 -0.3223  0.0856  0.1798
    5BDD     C517651   8.216   9.507   2.407 -0.3040  0.0727  0.3395
    5BDD     C617652   8.338   9.727   2.235 -0.3364 -0.0060  0.2161
    5BDD     O117653   8.388   9.817   2.165 -0.3498 -0.0379  0.1654
    5BDD     O217654   8.166   9.417   2.478 -0.2906  0.1049  0.3904
    5BDD     C717655   8.390   9.588   2.236 -0.3271 -0.0026  0.2808
    5BDD     C817656   8.331   9.484   2.317 -0.3116  0.0348  0.3396
    5BDD     C917657   8.394   9.363   2.303 -0.3054  0.0312  0.3943
    5BDD     S217658   8.529   9.372   2.186 -0.3180 -0.0188  0.3760
    5BDD    C1017659   8.495   9.546   2.160 -0.3324 -0.0343  0.2915
    5BDD    C1117660   8.589   9.588   2.052 -0.1080 -0.6225 -0.6608
    5BDD    C1217661   8.688   9.722   2.075  0.5949  0.0831  0.3563
    5BDD    C1317662   8.804   9.686   2.174 -0.3822  0.7339 -0.9288
    5BDD    C1417663   8.959   9.710   2.149  0.0642  1.0564 -0.2788
    5BDD    C1517664   9.060   9.662   2.255 -0.7560 -0.9002 -0.2676
    5BDD    C1617665   9.057   9.742   2.389  0.5113  0.4637 -1.4502
    5BDD    C1717666   8.739   9.747   1.932  0.5297 -0.7826 -0.3716
    5BDD    C1817667   8.637   9.799   1.823 -0.0459  0.2201 -1.1927
    5BDD    C1917668   8.369   9.214   2.361 -1.1267 -0.4704  0.2520
    5BDD    C2017669   8.281   9.122   2.273  1.1141  0.4235 -0.9795
    5BDD    C2117670   8.128   9.138   2.287  0.4475  0.0654 -1.0536
    5BDD    C2217671   8.047   9.089   2.158 -0.0315  0.3288 -0.6225
    5BDD    C2317672   8.102   9.162   2.032 -0.1627 -0.1057 -0.5219
    5BDD    C2417673   8.022   9.148   1.913  0.9377  0.8833  0.3836
    5BDD    C2517674   8.289   8.985   2.341 -0.1121 -0.4087  0.2704
    5BDD    C2617675   8.410   8.898   2.341 -0.2052 -0.3660  0.1536
    6TPM     C117676   7.967   9.627   2.583 -0.6649 -0.4085 -0.0380
    6TPM     C217677   7.890   9.715   2.653 -1.2506 -0.6902 -0.3183
    6TPM     C317678   7.816   9.654   2.762 -0.9485 -0.8593 -0.2063
    6TPM     C417679   7.838   9.520   2.774 -0.1327 -0.7067  0.1595
    6TPM     S117680   7.953   9.460   2.649  0.3210 -0.3346  0.3927
    7BDTP    C117681   7.279   9.304   2.957 -0.1158 -0.1764  0.4161
    7BDTP    C217682   7.341   9.347   3.078 -0.0377 -0.0894  0.3463
    7BDTP    C317683   7.469   9.400   3.083 -0.0278 -0.1020  0.2283
    7BDTP    C417684   7.540   9.411   2.963 -0.0981 -0.2058  0.1765
    7BDTP    C517685   7.479   9.368   2.841 -0.1762 -0.2928  0.2462
    7BDTP    C617686   7.351   9.315   2.836 -0.1860 -0.2799  0.3643
    7BDTP    C717687   7.674   9.463   2.943 -0.1030 -0.2387  0.0561
    7BDTP    C817688   7.716   9.461   2.814 -0.1801 -0.3452  0.0324
    7BDTP    S117689   7.592   9.393   2.700 -0.2573 -0.4184  0.1593
    7BDTP    C917690   7.145   9.252   2.977 -0.1109 -0.1435  0.5366
    7BDTP   C1017691   7.104   9.254   3.106 -0.0336 -0.0372  0.5602
    7BDTP    S217692   7.228   9.322   3.220  0.0434  0.0363  0.4333
    8FTM     S117693   7.535   9.623   3.237 -0.1961  0.0846 -0.8908
    8FTM     C117694   7.651   9.592   3.372 -0.1984  0.2979 -0.8386
    8FTM     C217695   7.672   9.458   3.384 -0.7557  0.2589 -0.1599
    8FTM     C317696   7.602   9.374   3.292 -1.2039  0.0653  0.3486
    8FTM     C417697   7.524   9.446   3.206 -0.9827 -0.0475  0.0496
    8FTM     F117698   7.757   9.405   3.480 -0.8928  0.3967  0.0409
    8FTM     C517699   7.726   9.713   3.453 -0.3512  0.0255 -0.6172
    8FTM     C617700   7.786   9.845   3.375  1.4739  0.3400 -0.3586
    8FTM     C717701   7.714   9.984   3.427 -0.7661  1.0265  0.1284
    8FTM     C817702   7.707   9.998   3.583  0.4035  0.2456 -1.5361
    8FTM     C917703   7.614  10.101   3.642 -0.3659 -1.3595  0.2827
    8FTM    C1017704   7.506  10.167   3.560  0.4971  0.3314  0.2455
    8FTM    C1117705   7.922   9.843   3.301 -0.7091  0.0596  0.0633
    8FTM    C1217706   7.912   9.923   3.172 -0.5151 -0.4168 -0.0642
    9FTM     S117707   7.240   9.391   2.590 -0.0838  0.4641 -0.2323
    9FTM     C117708   7.177   9.261   2.482 -0.0585  0.5857 -0.3933
    9FTM     C217709   7.200   9.139   2.537  0.1447  0.5112 -0.6391
    9FTM     C317710   7.267   9.139   2.664  0.2894  0.3583 -0.7154
    9FTM     C417711   7.296   9.265   2.707  0.1942  0.3146 -0.5217
    9FTM     F117712   7.162   9.021   2.477  0.2115  0.5760 -0.8096
    9FTM     C517713   7.109   9.299   2.362 -0.5265 -0.3495  1.0258
    9FTM     C617714   6.966   9.346   2.353  0.7544 -0.7639  0.0312
    9FTM     C717715   6.912   9.460   2.274  0.4456 -0.5747  0.8822
    9FTM     C817716   6.983   9.519   2.148  0.4716 -1.1925 -0.3452
    9FTM     C917717   6.892   9.578   2.043  1.8762 -0.3173 -1.3070
    9FTM    C1017718   6.961   9.571   1.919  0.5853 -1.2377  0.3332
    9FTM    C1117719   6.856   9.268   2.445 -0.9262 -0.2459  0.5208
    9FTM    C1217720   6.787   9.130   2.415  0.3577 -0.3849 -0.0854
   10TPM     C117721   6.991   9.190   3.156  0.5724 -0.7416 -0.5844
   10TPM     C217722   6.970   9.159   3.287  1.3468 -0.6950 -0.4416
   10TPM     C317723   6.854   9.078   3.310  1.5994 -0.8740  0.2578
   10TPM     C417724   6.785   9.047   3.196  1.0180 -1.0579  0.6485
   10TPM     S117725   6.864   9.118   3.050  0.0988 -1.0180  0.1593
   11BDD     C117726   6.562   8.728   3.185  0.0649 -0.1687 -0.4254
   11BDD     C217727   6.476   8.834   3.175  0.0263 -0.1867 -0.2958
   11BDD     C317728   6.543   8.963   3.181 -0.0197 -0.1690 -0.1439
   11BDD     C417729   6.678   8.953   3.196 -0.0157 -0.1386 -0.1599
   11BDD     S117730   6.732   8.782   3.203  0.0461 -0.1287 -0.3663
   11BDD     C517731   6.330   8.821   3.159  0.0306 -0.2203 -0.3069
   11BDD     C617732   6.469   9.091   3.171 -0.0659 -0.1841  0.0116
   11BDD     O117733   6.527   9.202   3.176 -0.1057 -0.1690  0.1426
   11BDD     O217734   6.272   8.710   3.154  0.0705 -0.2351 -0.4379
   11BDD     C717735   6.323   9.078   3.155 -0.0618 -0.2174  0.0005
   11BDD     C817736   6.256   8.949   3.149 -0.0157 -0.2348 -0.1514
   11BDD     C917737   6.121   8.958   3.134 -0.0196 -0.2654 -0.1354
   11BDD     S217738   6.067   9.129   3.127 -0.0813 -0.2752  0.0710
   11BDD    C1017739   6.237   9.184   3.145 -0.1001 -0.2351  0.1302
   11BDD    C1117740   6.245   9.337   3.171  0.7676 -0.9584  0.6243
   11BDD    C1217741   6.213   9.428   3.050  0.1045  0.0475  0.2026
   11BDD    C1317742   6.320   9.446   2.931 -0.5648 -0.5047 -0.4242
   11BDD    C1417743   6.459   9.487   2.960 -0.9291 -0.2915  0.2913
   11BDD    C1517744   6.477   9.572   3.090  0.2807  0.1114  0.4294
   11BDD    C1617745   6.522   9.719   3.058 -0.5440  0.0663 -0.2913
   11BDD    C1717746   6.059   9.432   3.015  0.5617  0.5123 -0.6338
   11BDD    C1817747   6.000   9.510   2.901 -0.4913 -0.7907  0.6815
   11BDD    C1917748   6.012   8.857   3.131  0.1346  0.8998 -0.9717
   11BDD    C2017749   5.980   8.792   2.995  1.8329 -1.0055  0.4413
   11BDD    C2117750   5.932   8.906   2.897 -0.6367  0.4269  0.5428
   11BDD    C2217751   6.038   8.965   2.807  1.8229  0.4765 -0.3871
   11BDD    C2317752   6.104   8.879   2.720  0.4237 -0.7368  0.3955
   11BDD    C2417753   6.225   8.899   2.634 -1.1009 -0.6620 -0.3699
   11BDD    C2517754   5.837   8.726   3.009 -0.8603  0.4919  0.6366
   11BDD    C2617755   5.794   8.598   3.078 -0.9116  0.3592 -0.0224
   12TPM     C117756   6.547   8.579   3.196  0.3853 -0.4100 -0.1994
   12TPM     C217757   6.616   8.508   3.291 -0.1961 -0.6499  0.0529
   12TPM     C317758   6.568   8.374   3.309 -1.0549 -0.3307  0.2466
   12TPM     C417759   6.463   8.342   3.228 -1.1283  0.1530  0.1419
   12TPM     S117760   6.416   8.480   3.122 -0.1107  0.2429 -0.2121
   13BDTP    C117761   6.112   7.819   3.262 -0.1053 -0.0929 -0.2035
   13BDTP    C217762   6.033   7.907   3.181 -0.0855 -0.0194 -0.1433
   13BDTP    C317763   6.074   8.035   3.149  0.0031 -0.0520 -0.1622
   13BDTP    C417764   6.198   8.080   3.198  0.0756 -0.1619 -0.2443
   13BDTP    C517765   6.277   7.992   3.279  0.0558 -0.2354 -0.3045
   13BDTP    C617766   6.236   7.864   3.311 -0.0327 -0.2028 -0.2855
   13BDTP    C717767   6.261   8.209   3.178  0.1726 -0.2144 -0.2784
   13BDTP    C817768   6.381   8.222   3.239  0.2259 -0.3221 -0.3603
   13BDTP    S117769   6.432   8.073   3.330  0.1608 -0.3722 -0.4057
   13BDTP    C917770   6.049   7.690   3.282 -0.2023 -0.0404 -0.1693
   13BDTP   C1017771   5.928   7.677   3.222 -0.2558  0.0675 -0.0874
   13BDTP    S217772   5.878   7.826   3.130 -0.1905  0.1176 -0.0420
   14FTM     S117773   5.814   8.159   3.104  0.2697 -0.5945  0.0422
   14FTM     C117774   5.775   8.210   2.936  0.5165  0.8346  0.3837
   14FTM     C217775   5.881   8.185   2.854  0.4878  1.1384  0.2499
   14FTM     C317776   5.996   8.126   2.916  0.2770  0.2992 -0.1172
   14FTM     C417777   5.977   8.106   3.050  0.1401 -0.6798 -0.2698
   14FTM     F117778   5.880   8.213   2.718  0.6506  2.1951  0.4523
   14FTM     C517779   5.633   8.218   2.887  1.4878 -1.3914  0.5472
   14FTM     C617780   5.503   8.155   2.956  0.5375 -0.3059  0.2884
   14FTM     C717781   5.518   8.008   3.015  0.0537 -0.4876  0.6362
   14FTM     C817782   5.576   7.906   2.926  0.5910 -0.1529 -0.6220
   14FTM     C917783   5.519   7.773   2.933  0.1154 -0.5334  1.5087
   14FTM    C1017784   5.582   7.643   2.890  0.8133  0.3850  0.8961
   14FTM    C1117785   5.450   8.230   3.070 -0.2753 -0.5774 -0.7335
   14FTM    C1217786   5.343   8.315   3.027  0.8091  0.7396  0.2541
   15FTM     S117787   6.371   7.613   3.365  0.6052 -0.0657  0.2943
   15FTM     C117788   6.464   7.609   3.520 -0.1953  0.3929  0.8031
   15FTM     C217789   6.457   7.730   3.581 -1.0513  0.3874  0.7343
   15FTM     C317790   6.380   7.831   3.514 -1.1346  0.0349  0.2924
   15FTM     C417791   6.327   7.785   3.397 -0.3160 -0.2385  0.0138
   15FTM     F117792   6.519   7.757   3.702 -1.8100  0.7013  1.0673
   15FTM     C517793   6.525   7.479   3.568 -0.9047 -1.1378 -0.8225
   15FTM     C617794   6.625   7.385   3.502  1.2571 -0.5472  1.6701
   15FTM     C717795   6.530   7.323   3.395 -1.4159 -0.0591  1.9639
   15FTM     C817796   6.559   7.271   3.239 -0.5410 -0.2592  0.0073
   15FTM     C917797   6.649   7.374   3.184 -0.4718  1.5647  2.4908
   15FTM    C1017798   6.673   7.366   3.023  0.0433  0.1814  0.1773
   15FTM    C1117799   6.703   7.307   3.612  0.7498  0.2086  1.3745
   15FTM    C1217800   6.804   7.192   3.559 -0.2171  0.3533 -0.4316
   16TPM     C117801   5.829   7.567   3.258  0.1261 -0.2394  0.2830
   16TPM     C217802   5.693   7.569   3.249  0.1093  0.0428  0.5704
   16TPM     C317803   5.629   7.452   3.303 -0.0387  0.2940  0.9511
   16TPM     C417804   5.717   7.360   3.353 -0.1346  0.2034  0.9539
   16TPM     S117805   5.888   7.415   3.336 -0.0450 -0.2093  0.4723
   17BDD     C117806   5.730   6.967   3.420 -0.2690 -0.5608 -0.0198
   17BDD     C217807   5.608   7.005   3.469 -0.2483 -0.3811 -0.1048
   17BDD     C317808   5.577   7.145   3.446 -0.0378 -0.3419 -0.1494
   17BDD     C417809   5.677   7.212   3.381  0.0986 -0.4923 -0.0977
   17BDD     S117810   5.815   7.105   3.342 -0.0265 -0.6930  0.0103
   17BDD     C517811   5.515   6.914   3.538 -0.4212 -0.2393 -0.1482
   17BDD     C617812   5.451   7.207   3.491  0.0200 -0.1570 -0.2414
   17BDD     O117813   5.425   7.328   3.471  0.2015 -0.1233 -0.2798
   17BDD     O217814   5.541   6.793   3.557 -0.6027 -0.2730 -0.1098
   17BDD     C717815   5.358   7.116   3.560 -0.1527 -0.0150 -0.2849
   17BDD     C817816   5.388   6.976   3.582 -0.3631 -0.0541 -0.2404
   17BDD     C917817   5.289   6.909   3.648 -0.4997  0.0960 -0.2921
   17BDD     S217818   5.150   7.016   3.686 -0.3745  0.2968 -0.3999
   17BDD    C1017819   5.236   7.154   3.609 -0.1318  0.1646 -0.3698
   17BDD    C1117820   5.147   7.275   3.591 -1.0665  0.7722  0.1881
   17BDD    C1217821   5.090   7.337   3.727 -0.6366  1.3315 -0.6082
   17BDD    C1317822   4.996   7.456   3.710 -0.8649 -0.4811 -0.6439
   17BDD    C1417823   4.837   7.435   3.732 -1.4943  0.5333  0.2225
   17BDD    C1517824   4.761   7.570   3.746  0.1418  1.6765 -0.7404
   17BDD    C1617825   4.655   7.557   3.857 -0.0383  0.5742  1.0877
   17BDD    C1717826   5.196   7.352   3.831  0.5104 -0.4566  0.5323
   17BDD    C1817827   5.178   7.282   3.955  0.1562 -0.2944 -0.3774
   17BDD    C1917828   5.275   6.766   3.693  1.4414  0.0626  0.2809
   17BDD    C2017829   5.144   6.695   3.627 -0.2334  0.5041 -0.0545
   17BDD    C2117830   5.180   6.671   3.468  0.8731  0.4370 -1.2696
   17BDD    C2217831   5.037   6.657   3.399 -0.2525 -0.1459  0.1563
   17BDD    C2317832   5.045   6.539   3.299 -0.0672  0.2969 -0.5520
   17BDD    C2417833   5.011   6.567   3.151 -0.4244 -0.0069  0.1516
   17BDD    C2517834   5.124   6.566   3.711  0.4544 -0.5892 -0.9612
   17BDD    C2617835   5.010   6.461   3.685  0.0549 -0.5876  0.8531
   18TPM     C117836   5.805   6.853   3.418  0.2618  0.4594 -0.4852
   18TPM     C217837   5.918   6.845   3.495  0.6982  0.9097 -1.0573
   18TPM     C317838   5.998   6.728   3.467  0.7346  0.9394 -1.0782
   18TPM     C417839   5.946   6.648   3.370  0.3260  0.5117 -0.5220
   18TPM     S117840   5.791   6.714   3.305 -0.1401  0.0347  0.0759
   19BDTP    C117841   6.143   6.054   3.341 -0.0713 -0.3697 -0.1790
   19BDTP    C217842   6.025   6.050   3.261 -0.0472 -0.2112 -0.2232
   19BDTP    C317843   5.947   6.162   3.238  0.1613 -0.0858 -0.3279
   19BDTP    C417844   5.986   6.284   3.296  0.3554 -0.1177 -0.3924
   19BDTP    C517845   6.104   6.288   3.376  0.3314 -0.2760 -0.3481
   19BDTP    C617846   6.183   6.175   3.399  0.1229 -0.4015 -0.2433
   19BDTP    C717847   5.921   6.413   3.286  0.5888 -0.0071 -0.5030
   19BDTP    C817848   5.984   6.512   3.353  0.7392 -0.0740 -0.5434
   19BDTP    S117849   6.134   6.456   3.439  0.6067 -0.2863 -0.4471
   19BDTP    C917850   6.208   5.925   3.351 -0.3045 -0.4802 -0.0684
   19BDTP   C1017851   6.146   5.825   3.283 -0.4550 -0.4133 -0.0280
   19BDTP    S217852   5.995   5.881   3.198 -0.3224 -0.2010 -0.1242
   20FTM     S117853   5.666   6.202   3.201  0.1090 -0.0071 -0.2173
   20FTM     C117854   5.596   6.147   3.044  0.4683 -0.1121 -0.3409
   20FTM     C217855   5.695   6.097   2.965  0.6311 -0.2967 -0.0266
   20FTM     C317856   5.827   6.099   3.020  0.4896 -0.3661  0.3210
   20FTM     C417857   5.830   6.152   3.146  0.2094 -0.2301  0.2713
   20FTM     F117858   5.672   6.047   2.838  0.9178 -0.4139 -0.0351
   20FTM     C517859   5.455   6.206   3.025  0.1775  1.1993 -0.5244
   20FTM     C617860   5.359   6.147   2.914 -0.4010  0.0087 -0.3449
   20FTM     C717861   5.397   6.166   2.767 -0.1941 -1.5109 -1.5724
   20FTM     C817862   5.343   6.080   2.652 -0.9890  0.1615 -0.0159
   20FTM     C917863   5.391   6.102   2.508  0.4316  1.4359 -0.3435
   20FTM    C1017864   5.421   5.976   2.416  0.4720  0.9584  0.9545
   20FTM    C1117865   5.219   6.150   2.955 -0.8648 -2.0897  0.3607
   20FTM    C1217866   5.138   6.294   2.950 -0.6880 -1.0142 -0.0629
   21FTM     S117867   6.410   6.078   3.584 -0.1445 -0.0255  0.3450
   21FTM     C117868   6.554   6.186   3.585  0.2950 -0.6018  0.7453
   21FTM     C217869   6.530   6.296   3.508  1.0092 -0.5766  0.5446
   21FTM     C317870   6.402   6.302   3.445  1.2525 -0.1191  0.0785
   21FTM     C417871   6.325   6.194   3.475  0.7066  0.2173 -0.0830
   21FTM     F117872   6.623   6.397   3.490  1.4853 -0.9668  0.7711
   21FTM     C517873   6.669   6.148   3.676  0.2087 -1.5967  0.0657
   21FTM     C617874   6.743   6.238   3.779 -0.2894  0.4976  0.0109
   21FTM     C717875   6.664   6.284   3.911 -0.8653  0.2758  1.2610
   21FTM     C817876   6.650   6.169   4.002  0.5107  0.2503 -0.9464
   21FTM     C917877   6.766   6.164   4.109  0.2834  0.3286  0.8391
   21FTM    C1017878   6.739   6.215   4.250  1.3018  0.7148 -0.1336
   21FTM    C1117879   6.851   6.325   3.718 -1.0302 -1.3639  0.6840
   21FTM    C1217880   6.940   6.401   3.820  0.0686  0.0144  0.3644
   22TPM     C117881   6.188   5.677   3.266  0.4816  0.6583 -0.0860
   22TPM     C217882   6.126   5.572   3.205  0.3818  0.3394  0.5480
   22TPM     C317883   6.201   5.449   3.210  0.3272  0.3259  1.1744
   22TPM     C417884   6.320   5.460   3.275  0.3854  0.6345  1.0179
   22TPM     S117885   6.347   5.628   3.335  0.5146  0.9688  0.0599
   23BDD     C117886   6.618   5.223   3.196 -0.2695 -0.0053 -0.4495
   23BDD     C217887   6.518   5.137   3.231 -0.2161 -0.0155 -0.3183
   23BDD     C317888   6.396   5.205   3.272 -0.2351 -0.0284 -0.3536
   23BDD     C417889   6.405   5.341   3.268 -0.3027 -0.0281 -0.5111
   23BDD     S117890   6.567   5.395   3.212 -0.3475 -0.0114 -0.6261
   23BDD     C517891   6.530   4.990   3.227 -0.1454 -0.0136 -0.1558
   23BDD     C617892   6.275   5.132   3.313 -0.1853 -0.0408 -0.2297
   23BDD     O117893   6.170   5.190   3.349 -0.2017 -0.0519 -0.2599
   23BDD     O217894   6.635   4.932   3.192 -0.1290 -0.0024 -0.1255
   23BDD     C717895   6.287   4.984   3.310 -0.1147 -0.0389 -0.0671
   23BDD     C817896   6.409   4.917   3.269 -0.0957 -0.0259 -0.0319
   23BDD     C917897   6.399   4.781   3.273 -0.0280 -0.0266  0.1256
   23BDD     S217898   6.237   4.727   3.329  0.0168 -0.0432  0.2406
   23BDD    C1017899   6.186   4.899   3.345 -0.0613 -0.0491  0.0641
   23BDD    C1117900   6.031   4.936   3.354 -1.0915  0.1314  0.9541
   23BDD    C1217901   5.948   4.823   3.291  0.9514  0.2500 -0.9693
   23BDD    C1317902   5.912   4.821   3.140 -0.3995  1.0304 -0.4531
   23BDD    C1417903   5.919   4.708   3.047 -0.4900 -0.0213  1.3359
   23BDD    C1517904   5.809   4.603   3.021  0.0491  0.1858  0.1938
   23BDD    C1617905   5.863   4.484   2.952 -0.2037  0.7191 -0.3983
   23BDD    C1717906   5.942   4.705   3.386  0.8325  0.4154  0.1306
   23BDD    C1817907   5.811   4.657   3.449  0.7015  0.5300  0.4265
   23BDD    C1917908   6.482   4.681   3.212 -0.6890 -1.1671 -0.8779
   23BDD    C2017909   6.556   4.569   3.293  1.3527  0.2240 -0.8713
   23BDD    C2117910   6.466   4.468   3.370 -0.0802  1.5389  0.8813
   23BDD    C2217911   6.351   4.370   3.316 -0.5457 -0.4268 -0.1071
   23BDD    C2317912   6.408   4.241   3.256  0.6924  1.2580  0.5507
   23BDD    C2417913   6.276   4.165   3.213  0.1235 -0.7291 -1.0882
   23BDD    C2517914   6.684   4.493   3.234  0.9153  0.2711 -0.9188
   23BDD    C2617915   6.809   4.582   3.229  0.1059  1.0980  0.3389
   24TPM     C117916   6.763   5.205   3.143 -0.1467 -0.7058 -0.6584
   24TPM     C217917   6.775   5.301   3.047 -0.1343 -1.1016 -1.0589
   24TPM     C317918   6.867   5.266   2.941  0.1500 -1.3957 -0.7206
   24TPM     C417919   6.924   5.144   2.957  0.3545 -1.2241 -0.0621
   24TPM     S117920   6.867   5.062   3.107  0.2026 -0.6733  0.1837
   25BDTP    C117921   7.282   4.729   2.679  0.2905 -0.1869 -0.3970
   25BDTP    C217922   7.359   4.847   2.657 -0.0004  0.0303 -0.2584
   25BDTP    C317923   7.316   4.973   2.698 -0.3334 -0.1147 -0.1526
   25BDTP    C417924   7.192   4.983   2.763 -0.3828 -0.4913 -0.1846
   25BDTP    C517925   7.115   4.865   2.785 -0.0919 -0.7086 -0.3232
   25BDTP    C617926   7.158   4.739   2.744  0.2412 -0.5635 -0.4291
   25BDTP    C717927   7.127   5.102   2.814 -0.7030 -0.7026 -0.0925
   25BDTP    C817928   7.007   5.079   2.872 -0.6673 -1.0629 -0.1543
   25BDTP    S117929   6.959   4.904   2.871 -0.2227 -1.1859 -0.3380
   25BDTP    C917930   7.347   4.610   2.628  0.6108  0.0242 -0.4892
   25BDTP   C1017931   7.467   4.633   2.570  0.5749  0.3847 -0.4273
   25BDTP    S217932   7.515   4.808   2.571  0.1305  0.5077 -0.2436
   26FTM     S117933   7.518   5.173   2.746 -0.4917  0.2453 -0.0286
   26FTM     C117934   7.505   5.327   2.653  0.1512  0.0600 -0.4381
   26FTM     C217935   7.401   5.320   2.566  0.8006 -0.1462 -1.2344
   26FTM     C317936   7.326   5.198   2.567  0.8370 -0.1717 -1.5669
   26FTM     C417937   7.375   5.108   2.657  0.1944  0.0209 -1.0068
   26FTM     F117938   7.366   5.425   2.482  1.4006 -0.3240 -1.7096
   26FTM     C517939   7.593   5.450   2.691 -0.3123 -0.6571 -0.4751
   26FTM     C617940   7.538   5.587   2.734 -0.7512  1.0009 -0.3134
   26FTM     C717941   7.438   5.593   2.848 -0.7379  1.4532  0.2487
   26FTM     C817942   7.338   5.687   2.810  0.9664  0.3680  0.6208
   26FTM     C917943   7.198   5.666   2.876  0.6079 -0.3619  0.1570
   26FTM    C1017944   7.101   5.603   2.775 -0.4545 -1.2924 -0.7173
   26FTM    C1117945   7.628   5.708   2.710  0.5374  0.8730 -1.5944
   26FTM    C1217946   7.596   5.852   2.724  0.2239  0.4217  0.6268
   27FTM     S117947   6.900   4.689   2.631 -0.2718 -0.1115 -0.3017
   27FTM     C117948   6.817   4.542   2.696 -0.0874  0.1522  0.5586
   27FTM     C217949   6.902   4.474   2.778  0.0798  0.6095  0.7734
   27FTM     C317950   7.032   4.531   2.795  0.0749  0.7784  0.2937
   27FTM     C417951   7.049   4.646   2.724 -0.1021  0.4395 -0.3080
   27FTM     F117952   6.865   4.357   2.842  0.2472  0.9021  1.4173
   27FTM     C517953   6.673   4.523   2.684 -1.1580  1.0072  0.3482
   27FTM     C617954   6.548   4.623   2.694 -0.6843 -0.1799 -1.5227
   27FTM     C717955   6.423   4.557   2.701  0.7097  0.7913  0.3445
   27FTM     C817956   6.393   4.451   2.824  0.3681  0.2588 -0.2700
   27FTM     C917957   6.244   4.444   2.824 -0.3184 -0.3785  1.1888
   27FTM    C1017958   6.175   4.324   2.894  0.9725  0.1935 -0.4238
   27FTM    C1117959   6.553   4.765   2.617 -0.3056  0.3284 -1.5082
   27FTM    C1217960   6.455   4.856   2.680 -0.7838  0.2123  1.1060
   28TPM     C117961   7.532   4.539   2.495 -0.8044 -0.1480  0.0042
   28TPM     C217962   7.531   4.404   2.513 -0.4486 -0.1200  0.2450
   28TPM     C317963   7.594   4.331   2.406  0.1613 -0.1233  0.5981
   28TPM     C417964   7.643   4.411   2.306  0.2705 -0.1540  0.6266
   28TPM     S117965   7.612   4.585   2.340 -0.3936 -0.1813  0.2063
   29BDD     C117966   7.801   4.168   2.044  0.0518  0.4102  0.3292
   29BDD     C217967   7.860   4.289   2.021  0.1459  0.3617  0.3155
   29BDD     C317968   7.814   4.394   2.111  0.1872  0.4208  0.2682
   29BDD     C417969   7.720   4.351   2.200  0.1239  0.5133  0.2464
   29BDD     S117970   7.683   4.177   2.179  0.0083  0.5330  0.2837
   29BDD     C517971   7.962   4.313   1.917  0.2013  0.2593  0.3453
   29BDD     C617972   7.864   4.533   2.104  0.2878  0.3834  0.2461
   29BDD     O117973   7.824   4.623   2.181  0.3234  0.4343  0.2053
   29BDD     O217974   8.002   4.223   1.839  0.1657  0.2084  0.3861
   29BDD     C717975   7.966   4.557   1.999  0.3433  0.2810  0.2761
   29BDD     C817976   8.012   4.452   1.910  0.3021  0.2217  0.3234
   29BDD     C917977   8.106   4.495   1.820  0.3653  0.1291  0.3451
   29BDD     S217978   8.143   4.669   1.842  0.4813  0.1094  0.3077
   29BDD    C1017979   8.025   4.678   1.977  0.4375  0.2325  0.2623
   29BDD    C1117980   8.004   4.813   2.040 -0.0411  0.0454  1.0383
   29BDD    C1217981   8.049   4.947   1.981 -0.0842 -0.7710  0.3644
   29BDD    C1317982   8.014   4.997   1.837 -0.9447 -0.3312  0.6933
   29BDD    C1417983   7.862   4.984   1.803 -0.6810 -0.9906 -0.1894
   29BDD    C1517984   7.758   5.032   1.898 -0.2061  0.2261  0.7369
   29BDD    C1617985   7.625   5.001   1.817 -0.5756 -0.0607  0.4900
   29BDD    C1717986   8.199   4.972   1.998 -0.5697 -1.3690 -0.9995
   29BDD    C1817987   8.267   4.957   2.135 -0.7193 -1.1106 -0.2411
   29BDD    C1917988   8.176   4.443   1.702 -0.9310  0.7275 -0.0296
   29BDD    C2017989   8.154   4.526   1.565  0.6669 -0.0033 -0.2462
   29BDD    C2117990   8.271   4.622   1.521 -0.0223  0.7142  0.0172
   29BDD    C2217991   8.378   4.688   1.611 -0.1671 -0.9277 -0.6666
   29BDD    C2317992   8.478   4.779   1.533  1.8057 -0.4463 -0.9704
   29BDD    C2417993   8.388   4.871   1.457  0.4894 -1.0325 -0.0582
   29BDD    C2517994   8.081   4.469   1.454  0.0177 -0.9238  0.3324
   29BDD    C2617995   7.967   4.362   1.479 -0.4783 -0.9930  0.4869
   30TPM     C117996   7.810   4.039   1.984  0.0471 -0.7228  0.4845
   30TPM     C217997   7.844   3.936   2.066  0.0043 -1.0292  0.1214
   30TPM     C317998   7.849   3.808   2.000 -0.1585 -0.8163 -0.3067
   30TPM     C417999   7.820   3.814   1.867 -0.2400 -0.3476 -0.2699
   30TPM     S118000   7.783   3.983   1.815 -0.1166 -0.1370  0.3127
   31BDTP    C118001   7.753   3.277   1.552 -0.5505 -0.0539 -0.2234
   31BDTP    C218002   7.745   3.373   1.446 -0.4131 -0.0337 -0.2161
   31BDTP    C318003   7.759   3.509   1.468 -0.3099 -0.0485 -0.1915
   31BDTP    C418004   7.783   3.554   1.599 -0.3440 -0.0845 -0.1732
   31BDTP    C518005   7.791   3.458   1.704 -0.4815 -0.1047 -0.1805
   31BDTP    C618006   7.776   3.322   1.683 -0.5847 -0.0901 -0.2051
   31BDTP    C718007   7.801   3.690   1.645 -0.2547 -0.1054 -0.1466
   31BDTP    C818008   7.822   3.701   1.779 -0.3181 -0.1398 -0.1336
   31BDTP    S118009   7.822   3.540   1.864 -0.4992 -0.1506 -0.1534
   31BDTP    C918010   7.735   3.141   1.505 -0.6398 -0.0330 -0.2501
   31BDTP   C1018011   7.714   3.130   1.372 -0.5766  0.0014 -0.2630
   31BDTP    S218012   7.714   3.291   1.286 -0.3953  0.0121 -0.2432
   32FTM     S118013   7.887   3.594   1.222  0.1537  0.4161  0.2742
   32FTM     C118014   7.796   3.713   1.122  0.0592  0.1433  0.0328
   32FTM     C218015   7.684   3.754   1.189 -0.3343 -0.3210 -0.3348
   32FTM     C318016   7.663   3.696   1.318 -0.5800 -0.4888 -0.4483
   32FTM     C418017   7.762   3.608   1.352 -0.3679 -0.1418 -0.1583
   32FTM     F118018   7.594   3.845   1.136 -0.4951 -0.6214 -0.5902
   32FTM     C518019   7.851   3.758   0.988 -0.3216 -0.4743  0.4979
   32FTM     C618020   7.971   3.860   0.965  0.5211 -1.1893 -0.7492
   32FTM     C718021   8.097   3.835   1.040  0.9147  0.2606 -0.4471
   32FTM     C818022   8.212   3.786   0.964  0.3523 -0.3093  0.4345
   32FTM     C918023   8.288   3.880   0.871 -0.0962  0.5520  0.8332
   32FTM    C1018024   8.433   3.914   0.891 -0.8812 -0.2224  0.2553
   32FTM    C1118025   7.926   4.014   1.007  0.4880 -0.5943 -0.7591
   32FTM    C1218026   7.908   4.045   1.159 -0.5179 -0.6538  0.7612
   33FTM     S118027   7.646   3.131   1.836  0.1993  0.4207  0.9831
   33FTM     C118028   7.747   2.995   1.897  0.0007 -0.0879  0.2080
   33FTM     C218029   7.878   3.021   1.874  0.0118 -0.3510 -0.0299
   33FTM     C318030   7.908   3.145   1.809  0.1718 -0.1773  0.3664
   33FTM     C418031   7.795   3.217   1.781  0.2866  0.2322  0.9261
   33FTM     F118032   7.980   2.933   1.911 -0.1220 -0.7647 -0.6208
   33FTM     C518033   7.696   2.859   1.928 -1.3798  0.1448  0.7535
   33FTM     C618034   7.629   2.776   1.817 -0.7020  0.0735 -0.2428
   33FTM     C718035   7.702   2.695   1.707  1.0235 -0.1921 -1.3959
   33FTM     C818036   7.824   2.742   1.658 -0.5470 -0.1647 -0.6179
   33FTM     C918037   7.904   2.681   1.541  0.8056 -1.4915 -0.0766
   33FTM    C1018038   8.017   2.777   1.520 -0.4371  0.0682 -0.0569
   33FTM    C1118039   7.494   2.732   1.864 -1.8857  1.3891  1.0479
   33FTM    C1218040   7.394   2.839   1.851 -0.0669  0.3714  1.1614
   34TPM     C118041   7.718   3.014   1.285  0.6086  0.8362 -0.1049
   34TPM     C218042   7.697   2.883   1.318 -0.2439  1.1054  0.4892
   34TPM     C318043   7.707   2.793   1.207 -0.4092  0.4869  0.9645
   34TPM     C418044   7.735   2.855   1.088  0.3171 -0.2540  0.7328
   34TPM     S118045   7.751   3.033   1.109  1.2738 -0.2277 -0.1101
   35BDD     C118046   7.712   2.583   0.803  0.2239 -0.1994  0.6258
   35BDD     C218047   7.632   2.685   0.761  0.2030 -0.2648  0.5054
   35BDD     C318048   7.629   2.798   0.853  0.0587 -0.2218  0.4495
   35BDD     C418049   7.708   2.780   0.963 -0.0281 -0.1243  0.5281
   35BDD     S118050   7.791   2.620   0.959  0.0648 -0.0796  0.6775
   35BDD     C518051   7.554   2.683   0.635  0.3142 -0.3691  0.4374
   35BDD     C618052   7.549   2.919   0.828  0.0120 -0.2788  0.3202
   35BDD     O118053   7.547   3.016   0.907 -0.1123 -0.2417  0.2720
   35BDD     O218054   7.556   2.586   0.556  0.4386 -0.4062  0.4856
   35BDD     C718055   7.471   2.917   0.702  0.1235 -0.3832  0.2522
   35BDD     C818056   7.473   2.804   0.610  0.2677 -0.4263  0.3081
   35BDD     C918057   7.394   2.822   0.500  0.3544 -0.5238  0.2295
   35BDD     S218058   7.312   2.982   0.504  0.2616 -0.5683  0.0801
   35BDD    C1018059   7.390   3.019   0.660  0.1024 -0.4485  0.1318
   35BDD    C1118060   7.344   3.152   0.712  1.5259  0.2918  0.6290
   35BDD    C1218061   7.445   3.265   0.715 -0.0349 -0.4089  1.7871
   35BDD    C1318062   7.412   3.397   0.771 -0.1903  0.8784 -0.6498
   35BDD    C1418063   7.360   3.392   0.918  0.7404  0.1934  0.3174
   35BDD    C1518064   7.371   3.523   1.012  0.2942 -0.7234 -0.9506
   35BDD    C1618065   7.456   3.632   0.959 -0.8063  0.7923 -0.5343
   35BDD    C1718066   7.504   3.290   0.574  0.6381  0.3524  0.7994
   35BDD    C1818067   7.647   3.243   0.567 -0.0720 -1.0348  0.3142
   35BDD    C1918068   7.376   2.737   0.365 -0.0998 -2.0113 -0.5909
   35BDD    C2018069   7.299   2.814   0.255 -0.1200  1.1237  0.2931
   35BDD    C2118070   7.385   2.867   0.147  1.2422 -0.4294 -0.3427
   35BDD    C2218071   7.450   3.005   0.154  0.1693 -0.8441 -1.2013
   35BDD    C2318072   7.515   3.045   0.022  0.2043  0.5784 -0.2864
   35BDD    C2418073   7.616   3.155   0.038 -0.4923  0.0551  0.5941
   35BDD    C2518074   7.152   2.780   0.217 -1.1469 -0.9070  0.1841
   35BDD    C2618075   7.111   2.648   0.168  0.6696  1.0702  0.0535
   36TPM     C118076   7.766   2.468   0.733  0.2599  0.1282  0.6047
   36TPM     C218077   7.697   2.365   0.677  0.1252 -0.0617  1.1085
   36TPM     C318078   7.782   2.259   0.627  0.0311 -0.0169  0.8541
   36TPM     C418079   7.915   2.282   0.644  0.0941  0.2069  0.1563
   36TPM     S118080   7.945   2.440   0.727  0.2786  0.3800 -0.2367
   37BDTP    C118081   8.320   1.804   0.613 -0.0603 -0.0894 -0.0396
   37BDTP    C218082   8.384   1.907   0.538 -0.1452  0.0277  0.0474
   37BDTP    C318083   8.326   2.031   0.517 -0.2048  0.0325  0.2364
   37BDTP    C418084   8.199   2.056   0.573 -0.1798 -0.0836  0.3451
   37BDTP    C518085   8.135   1.953   0.648 -0.0949 -0.2006  0.2580
   37BDTP    C618086   8.193   1.829   0.669 -0.0354 -0.2054  0.0690
   37BDTP    C718087   8.120   2.177   0.565 -0.2303 -0.1025  0.5431
   37BDTP    C818088   8.001   2.170   0.629 -0.1881 -0.2266  0.6081
   37BDTP    S118089   7.973   2.009   0.710 -0.0784 -0.3368  0.4276
   37BDTP    C918090   8.399   1.683   0.621 -0.0098 -0.0704 -0.2377
   37BDTP   C1018091   8.518   1.690   0.557 -0.0517  0.0536 -0.3027
   37BDTP    S218092   8.546   1.850   0.476 -0.1618  0.1639 -0.1222
   38FTM     S118093   8.469   2.284   0.541 -0.9700  0.0257  0.4674
   38FTM     C118094   8.569   2.335   0.401 -0.0697  0.1848  1.1492
   38FTM     C218095   8.558   2.244   0.300  0.5796  0.2872  0.9748
   38FTM     C318096   8.473   2.131   0.326  0.4206  0.2490  0.3163
   38FTM     C418097   8.417   2.136   0.450 -0.3767  0.1129 -0.0247
   38FTM     F118098   8.624   2.256   0.179  1.3566  0.4216  1.4011
   38FTM     C518099   8.642   2.450   0.391  0.6360  0.0143  0.3322
   38FTM     C618100   8.672   2.530   0.515  0.6126  0.2883 -0.8711
   38FTM     C718101   8.565   2.629   0.558  0.4921  0.7547 -1.1570
   38FTM     C818102   8.504   2.718   0.441 -0.2259  0.1667 -0.5519
   38FTM     C918103   8.469   2.854   0.479  1.1773  0.2343  0.6038
   38FTM    C1018104   8.582   2.958   0.521 -0.4643  0.6363  0.3857
   38FTM    C1118105   8.812   2.586   0.541  1.0865  1.1042 -0.3508
   38FTM    C1218106   8.918   2.474   0.511  0.3723 -0.0700 -0.3719
   39FTM     S118107   8.176   1.563   0.803  0.2883  0.0471  0.0701
   39FTM     C118108   8.107   1.566   0.970 -0.4631 -0.3980 -0.2212
   39FTM     C218109   8.077   1.694   1.006 -1.2956 -0.5659 -0.2740
   39FTM     C318110   8.105   1.795   0.908 -1.3971 -0.3637 -0.0955
   39FTM     C418111   8.158   1.743   0.794 -0.6172 -0.0300  0.1004
   39FTM     F118112   8.023   1.727   1.129 -2.0142 -0.9127 -0.4870
   39FTM     C518113   8.114   1.451   1.084  0.5593 -1.3603  0.3752
   39FTM     C618114   8.047   1.316   1.074  0.3423  1.2955 -0.2514
   39FTM     C718115   7.995   1.265   0.938  1.2450  1.0148 -1.8699
   39FTM     C818116   7.869   1.325   0.887  1.3326 -0.0381  1.2555
   39FTM     C918117   7.749   1.291   0.974 -1.6162 -1.8023 -0.8909
   39FTM    C1018118   7.609   1.317   0.908 -0.2675 -0.3471 -0.1052
   39FTM    C1118119   8.097   1.206   1.165  0.3652 -1.3291  0.8916
   39FTM    C1218120   8.249   1.142   1.176  0.5197 -0.2042 -1.2886
   40TPM     C118121   8.611   1.576   0.563 -0.1853 -0.3936 -0.0303
   40TPM     C218122   8.654   1.502   0.457  0.2813  0.6981 -0.6398
   40TPM     C318123   8.774   1.428   0.484  1.0355  1.5943 -1.4150
   40TPM     C418124   8.823   1.446   0.610  1.1444  1.1860 -1.3965
   40TPM     S118125   8.720   1.558   0.706  0.2957 -0.3742 -0.3909
   41BDD     C118126   9.113   1.295   0.836  0.1467  0.2099 -0.1588
   41BDD     C218127   9.168   1.303   0.711  0.2091  0.0966 -0.1391
   41BDD     C318128   9.076   1.354   0.611  0.1726 -0.2519 -0.2865
   41BDD     C418129   8.952   1.384   0.661  0.0835 -0.3992 -0.4167
   41BDD     S118130   8.942   1.351   0.837  0.0384 -0.1118 -0.3635
   41BDD     C518131   9.307   1.264   0.679  0.3040  0.3045  0.0162
   41BDD     C618132   9.114   1.371   0.469  0.2279 -0.4260 -0.2931
   41BDD     O118133   9.035   1.415   0.382  0.1965 -0.7265 -0.4202
   41BDD     O218134   9.386   1.220   0.765  0.3355  0.6050  0.1434
   41BDD     C718135   9.253   1.332   0.437  0.3228 -0.2182 -0.1378
   41BDD     C818136   9.345   1.281   0.537  0.3593  0.1303  0.0097
   41BDD     C918137   9.468   1.251   0.487  0.4487  0.2777  0.1398
   41BDD     S218138   9.478   1.284   0.311  0.4934 -0.0097  0.0866
   41BDD    C1018139   9.308   1.340   0.312  0.3850 -0.3315 -0.1180
   41BDD    C1118140   9.241   1.384   0.190 -0.5458  0.1251  0.5170
   41BDD    C1218141   9.183   1.278   0.090 -0.9310 -0.8671  1.2651
   41BDD    C1318142   9.116   1.369  -0.018  0.0289  1.0432  0.6498
   41BDD    C1418143   9.200   1.447  -0.130 -0.1121  0.9599  0.1946
   41BDD    C1518144   9.109   1.505  -0.236  0.3456 -0.5559 -0.6422
   41BDD    C1618145   9.001   1.615  -0.213  0.0736  0.3990 -0.6440
   41BDD    C1718146   9.259   1.155   0.057  1.0769 -0.5459  1.4907
   41BDD    C1818147   9.187   1.031  -0.008  0.6177 -0.1524  0.3659
   41BDD    C1918148   9.593   1.174   0.547 -0.4462 -0.0695  0.0633
   41BDD    C2018149   9.622   1.027   0.523 -0.1296  0.6621  0.3036
   41BDD    C2118150   9.501   0.929   0.536 -0.9973  1.1348 -1.1740
   41BDD    C2218151   9.501   0.807   0.624 -0.4839  0.9562  2.2298
   41BDD    C2318152   9.442   0.679   0.541  0.3360  0.6359 -0.4615
   41BDD    C2418153   9.293   0.671   0.530  0.9595 -2.3163 -0.6692
   41BDD    C2518154   9.765   0.971   0.535  0.9858 -0.2787  0.0987
   41BDD    C2618155   9.901   1.063   0.524  0.7739 -0.3927  0.3024
   42TPM     C118156   9.152   1.256   0.975  0.1109 -0.0594  0.0747
   42TPM     C218157   9.268   1.310   1.024 -0.1171  0.5787 -0.0688
   42TPM     C318158   9.277   1.307   1.167  0.0246  0.7389 -0.0747
   42TPM     C418159   9.169   1.251   1.229  0.3612  0.2230  0.0644
   42TPM     S118160   9.046   1.197   1.109  0.5266 -0.5109  0.2146
   43BDTP    C118161   9.094   1.232   1.852 -0.3152  0.1151 -0.3380
   43BDTP    C218162   9.236   1.227   1.837 -0.2925  0.0382 -0.1174
   43BDTP    C318163   9.298   1.229   1.712 -0.0970  0.0250 -0.0208
   43BDTP    C418164   9.216   1.236   1.598  0.0858  0.0905 -0.1476
   43BDTP    C518165   9.075   1.241   1.613  0.0632  0.1673 -0.3683
   43BDTP    C618166   9.013   1.239   1.738 -0.1325  0.1805 -0.4648
   43BDTP    C718167   9.258   1.238   1.459  0.3045  0.0914 -0.0832
   43BDTP    C818168   9.155   1.245   1.371  0.4461  0.1642 -0.2429
   43BDTP    S118169   8.992   1.249   1.451  0.3216  0.2420 -0.4972
   43BDTP    C918170   9.053   1.229   1.991 -0.5343  0.1142 -0.4024
   43BDTP   C1018171   9.155   1.222   2.079 -0.6757  0.0413 -0.2428
   43BDTP    S218172   9.319   1.219   1.999 -0.5512 -0.0364  0.0115
   44FTM     S118173   9.514   1.390   1.604  0.1188  0.2148 -0.2745
   44FTM     C118174   9.680   1.349   1.661  0.0175  0.5566  0.2877
   44FTM     C218175   9.675   1.244   1.747 -0.0856  0.7312  0.4948
   44FTM     C318176   9.544   1.191   1.774 -0.0927  0.6127  0.2351
   44FTM     C418177   9.447   1.257   1.706  0.0090  0.3384 -0.1845
   44FTM     F118178   9.788   1.190   1.807 -0.1805  1.0087  0.9318
   44FTM     C518179   9.812   1.395   1.617 -0.5215 -0.2683  0.5329
   44FTM     C618180   9.886   1.358   1.476  0.5363  0.4407 -0.5524
   44FTM     C718181   9.789   1.335   1.354 -0.1569  0.8042  0.0389
   44FTM     C818182   9.690   1.440   1.330  1.3458 -1.6254  0.4764
   44FTM     C918183   9.727   1.586   1.272  1.2041  0.0671  0.8415
   44FTM    C1018184   9.622   1.691   1.247 -0.0331  0.5932 -0.9773
   44FTM    C1118185  10.025   1.408   1.446 -0.0061  0.1838 -0.9510
   44FTM    C1218186  10.132   1.314   1.373 -0.2309 -1.5897  0.2030
   45FTM     S118187   8.781   1.392   1.812  0.4701 -0.2584  0.6755
   45FTM     C118188   8.625   1.302   1.797  0.7238 -0.6081  0.0612
   45FTM     C218189   8.648   1.179   1.745  1.0686 -0.1640 -0.9005
   45FTM     C318190   8.784   1.147   1.715  1.1547  0.4603 -1.2109
   45FTM     C418191   8.869   1.249   1.745  0.8658  0.4952 -0.4624
   45FTM     F118192   8.546   1.087   1.722  1.3270 -0.2963 -1.5568
   45FTM     C518193   8.508   1.358   1.876  0.3755 -0.1118 -0.3101
   45FTM     C618194   8.428   1.466   1.819 -0.3892  0.1905 -0.0920
   45FTM     C718195   8.479   1.586   1.732  1.1929 -0.2446  1.3575
   45FTM     C818196   8.577   1.684   1.812  0.6454 -0.6502  1.9748
   45FTM     C918197   8.534   1.769   1.934  0.6022 -0.4327 -0.5745
   45FTM    C1018198   8.578   1.907   1.912  0.4934 -1.6599  0.2009
   45FTM    C1118199   8.282   1.450   1.782  0.4087  1.2223 -0.0553
   45FTM    C1218200   8.205   1.337   1.859  0.3260 -1.6758 -0.5861
   46TPM     C118201   9.164   1.200   2.223 -0.4427  0.2793  0.0233
   46TPM     C218202   9.262   1.167   2.312 -0.4165  0.1098 -0.0685
   46TPM     C318203   9.214   1.147   2.446 -0.3355  0.1220 -0.0377
   46TPM     C418204   9.080   1.165   2.460 -0.2996  0.3009  0.0776
   46TPM     S118205   9.003   1.209   2.303 -0.3665  0.4690  0.1569
   47BDD     C118206   8.886   1.332   2.755 -0.2756 -0.2544  0.1613
   47BDD     C218207   8.954   1.227   2.812 -0.1748 -0.1665  0.2030
   47BDD     C318208   9.035   1.152   2.718 -0.1357 -0.1525  0.2249
   47BDD     C418209   9.027   1.201   2.590 -0.2076 -0.2299  0.1996
   47BDD     S118210   8.919   1.343   2.579 -0.3293 -0.3257  0.1466
   47BDD     C518211   8.947   1.193   2.956 -0.1099 -0.0922  0.2242
   47BDD     C618212   9.116   1.036   2.757 -0.0284 -0.0629  0.2701
   47BDD     O118213   9.185   0.971   2.675  0.0052 -0.0508  0.2890
   47BDD     O218214   8.878   1.257   3.037 -0.1435 -0.1042  0.2053
   47BDD     C718215   9.109   1.001   2.901  0.0365  0.0115  0.2913
   47BDD     C818216   9.029   1.076   2.995 -0.0026 -0.0025  0.2695
   47BDD     C918217   9.036   1.028   3.123  0.0694  0.0750  0.2946
   47BDD     S218218   9.144   0.885   3.133  0.1908  0.1707  0.3476
   47BDD    C1018219   9.177   0.897   2.957  0.1376  0.0993  0.3330
   47BDD    C1118220   9.308   0.826   2.915  0.1535  0.8740 -0.6249
   47BDD    C1218221   9.315   0.665   2.914 -0.3767 -0.5127 -0.7880
   47BDD    C1318222   9.183   0.594   2.869 -0.0740 -1.3537 -0.2790
   47BDD    C1418223   9.113   0.658   2.746 -0.3348  0.0027  0.5076
   47BDD    C1518224   8.975   0.617   2.711  0.0237 -0.9917  1.4487
   47BDD    C1618225   8.900   0.733   2.623  0.6811  1.0100 -0.3619
   47BDD    C1718226   9.379   0.601   3.042  0.6462  1.2995 -0.6135
   47BDD    C1818227   9.517   0.624   3.073 -0.0605  0.8679  0.3422
   47BDD    C1918228   8.996   1.085   3.250  0.8199  0.4918 -1.7933
   47BDD    C2018229   9.004   1.004   3.375 -0.4186 -0.1936  0.0038
   47BDD    C2118230   9.002   1.099   3.489  1.1058  0.4289  0.3223
   47BDD    C2218231   9.034   1.066   3.644  0.6585 -0.3293 -0.3830
   47BDD    C2318232   9.170   1.030   3.669  0.0317 -0.9980  0.0354
   47BDD    C2418233   9.178   0.883   3.706 -0.3919  0.7066 -1.5623
   47BDD    C2518234   8.898   0.882   3.363 -0.0489  0.4789 -1.9401
   47BDD    C2618235   8.742   0.871   3.414 -0.5501 -0.7480  1.1221
   48TPM     C118236   8.831   1.452   2.811 -0.3770 -0.3433 -0.2212
   48TPM     C218237   8.890   1.573   2.792 -0.3450 -0.4435 -0.8044
   48TPM     C318238   8.816   1.683   2.850 -0.1478 -0.1814 -1.0411
   48TPM     C418239   8.702   1.644   2.914 -0.0298  0.1184 -0.6385
   48TPM     S118240   8.678   1.466   2.905 -0.1592  0.0930  0.0766
   49BDTP    C118241   8.414   2.115   3.203  0.2072  0.2580 -0.1215
   49BDTP    C218242   8.309   2.065   3.120  0.2353  0.3289 -0.2000
   49BDTP    C318243   8.322   1.951   3.042  0.1931  0.2794 -0.1352
   49BDTP    C418244   8.445   1.883   3.045  0.1192  0.1541  0.0141
   49BDTP    C518245   8.550   1.932   3.128  0.0906  0.0833  0.0926
   49BDTP    C618246   8.537   2.046   3.206  0.1329  0.1328  0.0278
   49BDTP    C718247   8.482   1.762   2.973  0.0649  0.0827  0.1046
   49BDTP    C818248   8.608   1.720   2.997 -0.0024 -0.0367  0.2456
   49BDTP    S118249   8.698   1.825   3.115 -0.0062 -0.0757  0.2834
   49BDTP    C918250   8.377   2.235   3.275  0.2611  0.3294 -0.2120
   49BDTP   C1018251   8.251   2.277   3.251  0.3283  0.4489 -0.3529
   49BDTP    S218252   8.161   2.172   3.133  0.3323  0.4879 -0.3908
   50FTM     S118253   8.042   1.875   3.025  0.3041 -0.5048 -0.2487
   50FTM     C118254   7.972   1.878   2.859  0.0944  0.0725 -0.1535
   50FTM     C218255   8.071   1.901   2.768 -0.0935  0.8797 -0.1655
   50FTM     C318256   8.203   1.918   2.821 -0.0858  1.0934 -0.2475
   50FTM     C418257   8.206   1.906   2.957  0.1145  0.4281 -0.2999
   50FTM     F118258   8.047   1.910   2.632 -0.2835  1.4731 -0.1028
   50FTM     C518259   7.826   1.860   2.832 -0.9313 -0.0907  0.4465
   50FTM     C618260   7.761   1.995   2.831  0.1359 -0.0797  0.7106
   50FTM     C718261   7.767   2.076   2.964 -0.3427  1.3736  0.6937
   50FTM     C818262   7.672   2.033   3.071  0.2104  0.3229 -0.0960
   50FTM     C918263   7.720   2.068   3.223  0.8155 -0.0232  0.9010
   50FTM    C1018264   7.794   2.198   3.249 -0.7935 -0.2893 -0.4892
   50FTM    C1118265   7.671   2.021   2.711  0.4169  0.2400 -0.2923
   50FTM    C1218266   7.586   2.138   2.717  0.8405  0.7412 -0.3935
   51FTM     S118267   8.691   2.265   3.308 -0.3070  0.1562  0.3048
   51FTM     C118268   8.816   2.225   3.432 -0.1448  0.4300  0.2324
   51FTM     C218269   8.812   2.092   3.461  0.5164  0.3172 -0.1502
   51FTM     C318270   8.714   2.016   3.390  0.9277  0.0183 -0.4042
   51FTM     C418271   8.640   2.092   3.304  0.5695 -0.1017 -0.2097
   51FTM     F118272   8.896   2.032   3.553  0.7892  0.4780 -0.2931
   51FTM     C518273   8.931   2.324   3.462  0.8141  0.5783  0.2190
   51FTM     C618274   9.069   2.304   3.390  0.3644 -0.9334 -0.2922
   51FTM     C718275   9.187   2.386   3.438 -0.2946 -0.4874 -0.7337
   51FTM     C818276   9.318   2.330   3.490 -0.7261 -0.6819 -1.5309
   51FTM     C918277   9.296   2.186   3.568  0.1108 -0.7258  0.1435
   51FTM    C1018278   9.428   2.127   3.597 -1.7509 -0.8484  0.1377
   51FTM    C1118279   9.055   2.273   3.235  0.4528 -0.1649  0.1154
   51FTM    C1218280   9.172   2.177   3.191  0.3219 -1.1959 -0.2056
   52TPM     C118281   8.216   2.408   3.321 -0.3893  0.0982 -0.4954
   52TPM     C218282   8.088   2.446   3.346 -0.4833 -0.1086 -0.6467
   52TPM     C318283   8.078   2.568   3.423 -0.7706 -0.1004 -0.6934
   52TPM     C418284   8.199   2.621   3.456 -0.8959  0.1125 -0.5775
   52TPM     S118285   8.335   2.522   3.393 -0.6590  0.3210 -0.3990
   53BDD     C118286   8.185   2.978   3.304  0.1742 -0.2158  0.1438
   53BDD     C218287   8.093   2.983   3.406  0.0365 -0.1348  0.0172
   53BDD     C318288   8.086   2.860   3.483 -0.3397 -0.2092 -0.1301
   53BDD     C418289   8.173   2.764   3.439 -0.4838 -0.3458 -0.1137
   53BDD     S118290   8.268   2.820   3.298 -0.1581 -0.3907  0.0873
   53BDD     C518291   8.009   3.101   3.436  0.2463  0.0139  0.0270
   53BDD     C618292   7.995   2.844   3.598 -0.5429 -0.1420 -0.2819
   53BDD     O118293   7.989   2.738   3.664 -0.8676 -0.2061 -0.4090
   53BDD     O218294   8.015   3.207   3.369  0.5710  0.0780  0.1541
   53BDD     C718295   7.910   2.961   3.627 -0.3333  0.0067 -0.2721
   53BDD     C818296   7.917   3.084   3.550  0.0432  0.0810 -0.1247
   53BDD     C918297   7.831   3.181   3.594  0.1873  0.2177 -0.1412
   53BDD     S218298   7.735   3.125   3.735 -0.1384  0.2626 -0.3423
   53BDD    C1018299   7.819   2.966   3.729 -0.4708  0.0878 -0.3988
   53BDD    C1118300   7.795   2.875   3.823  0.9686 -0.2099 -0.5229
   53BDD    C1218301   7.637   2.820   3.852  0.1003 -1.3395 -0.4931
   53BDD    C1318302   7.572   2.731   3.751 -0.1831  0.2239  0.2760
   53BDD    C1418303   7.660   2.682   3.626 -0.3679  0.2706 -0.2462
   53BDD    C1518304   7.574   2.564   3.567 -1.1021 -0.8851  0.1453
   53BDD    C1618305   7.633   2.440   3.482 -1.8771 -1.2236 -1.2685
   53BDD    C1718306   7.554   2.851   3.982 -1.3506 -0.7268 -1.4721
   53BDD    C1818307   7.418   2.909   3.982  0.1400  0.6130  1.1070
   53BDD    C1918308   7.772   3.322   3.558 -0.1164 -0.3221 -0.4507
   53BDD    C2018309   7.843   3.456   3.597 -0.5483  0.0719  0.1566
   53BDD    C2118310   7.754   3.578   3.573  0.0227 -0.4244  0.3221
   53BDD    C2218311   7.678   3.618   3.443  0.1089 -0.2664  0.1922
   53BDD    C2318312   7.776   3.693   3.351  0.2380  0.3922 -0.1933
   53BDD    C2418313   7.727   3.684   3.210  1.3069 -2.1397  0.5810
   53BDD    C2518314   7.991   3.486   3.557  0.1465 -0.3361  0.5523
   53BDD    C2618315   8.111   3.410   3.625 -0.2725  0.3132 -0.2298
   54TPM     C118316   8.216   3.063   3.187 -0.0756  0.3956  0.3468
   54TPM     C218317   8.209   3.199   3.183  1.0264  0.4909  0.9376
   54TPM     C318318   8.239   3.255   3.054  1.3254  0.7999  1.1378
   54TPM     C418319   8.269   3.161   2.959  0.4514  0.9402  0.6996
   54TPM     S118320   8.261   2.994   3.027 -0.8271  0.6910 -0.0053
   55BDTP    C118321   8.492   3.088   2.377  0.0749 -0.3187  0.1090
   55BDTP    C218322   8.354   3.054   2.367  0.1090 -0.4399  0.0581
   55BDTP    C318323   8.266   3.062   2.474  0.0703 -0.5551  0.0358
   55BDTP    C418324   8.316   3.107   2.597 -0.0055 -0.5504  0.0650
   55BDTP    C518325   8.454   3.141   2.608 -0.0396 -0.4292  0.1159
   55BDTP    C618326   8.542   3.133   2.501 -0.0009 -0.3141  0.1382
   55BDTP    C718327   8.245   3.124   2.722 -0.0568 -0.6568  0.0502
   55BDTP    C818328   8.321   3.169   2.824 -0.1266 -0.6216  0.0871
   55BDTP    S118329   8.495   3.196   2.777 -0.1376 -0.4489  0.1458
   55BDTP    C918330   8.564   3.071   2.252  0.1261 -0.2124  0.1238
   55BDTP   C1018331   8.487   3.026   2.150  0.1960 -0.2476  0.0870
   55BDTP    S218332   8.314   2.999   2.197  0.2070 -0.4203  0.0282
   56FTM     S118333   7.999   3.165   2.499  0.3177  0.0825  0.2054
   56FTM     C118334   7.873   3.072   2.411 -0.1755  0.5236  0.4301
   56FTM     C218335   7.928   2.960   2.356 -0.7445  0.1286  0.6455
   56FTM     C318336   8.068   2.940   2.379 -0.8295 -0.5252  0.6487
   56FTM     C418337   8.122   3.041   2.454 -0.3087 -0.6346  0.4287
   56FTM     F118338   7.855   2.869   2.282 -1.2221  0.3356  0.8525
   56FTM     C518339   7.723   3.117   2.393 -1.8808  0.6685  0.2195
   56FTM     C618340   7.602   3.032   2.424 -1.0465  0.3234  0.0002
   56FTM     C718341   7.599   2.917   2.530  0.4811  0.1945 -0.7341
   56FTM     C818342   7.641   2.977   2.671  0.5211 -0.6303  0.1032
   56FTM     C918343   7.665   2.885   2.781 -0.5036 -0.3890  0.5993
   56FTM    C1018344   7.754   2.959   2.876  0.4820 -0.0991 -1.2563
   56FTM    C1118345   7.463   3.095   2.393 -0.6836 -1.4885 -0.2222
   56FTM    C1218346   7.453   3.174   2.251  0.7616  0.9954  0.3566
   57FTM     S118347   8.814   3.117   2.450 -0.6287 -0.0436  0.2267
   57FTM     C118348   8.901   3.273   2.433 -0.0315 -0.3398  0.5004
   57FTM     C218349   8.820   3.376   2.471  0.3383 -0.0901  0.6287
   57FTM     C318350   8.688   3.340   2.514  0.1841  0.3364  0.5245
   57FTM     C418351   8.668   3.205   2.510 -0.3214  0.4159  0.3094
   57FTM     F118352   8.860   3.508   2.468  0.8390 -0.2329  0.8481
   57FTM     C518353   8.996   3.235   2.317  1.4758 -0.8142 -0.3572
   57FTM     C618354   9.109   3.329   2.270  1.1291 -0.5417  0.1660
   57FTM     C718355   9.220   3.255   2.204  0.0816 -1.9620  0.4676
   57FTM     C818356   9.360   3.210   2.236  1.1138  0.6641  0.2193
   57FTM     C918357   9.469   3.194   2.133 -0.6379  0.1601 -0.2740
   57FTM    C1018358   9.441   3.129   1.996  0.7209  0.0449  1.1688
   57FTM    C1118359   9.084   3.465   2.229  0.5157 -0.8435 -1.3139
   57FTM    C1218360   9.129   3.575   2.331 -0.4762 -0.6838  0.1661
   58TPM     C118361   8.527   2.967   2.016 -0.0587 -0.1891 -0.3078
   58TPM     C218362   8.443   2.920   1.920  0.0110  0.3642 -0.6458
   58TPM     C318363   8.503   2.912   1.789  0.1113  1.1002 -0.6541
   58TPM     C418364   8.633   2.952   1.786  0.1185  1.1080 -0.3224
   58TPM     S118365   8.690   3.004   1.949 -0.0017  0.1792  0.0288
   59BDD     C118366   8.748   2.955   1.412 -0.5410  0.0223  0.7441
   59BDD     C218367   8.817   2.855   1.474 -0.4084  0.0561  0.6518
   59BDD     C318368   8.793   2.849   1.617 -0.2525  0.0129  0.6761
   59BDD     C418369   8.706   2.944   1.662 -0.2688 -0.0531  0.7865
   59BDD     S118370   8.648   3.049   1.528 -0.4802 -0.0660  0.8677
   59BDD     C518371   8.907   2.761   1.404 -0.4199  0.1295  0.5379
   59BDD     C618372   8.858   2.748   1.704 -0.0932  0.0389  0.5889
   59BDD     O118373   8.837   2.743   1.827  0.0410  0.0017  0.6098
   59BDD     O218374   8.928   2.767   1.280 -0.5541  0.1667  0.5170
   59BDD     C718375   8.948   2.655   1.634 -0.1051  0.1122  0.4750
   59BDD     C818376   8.972   2.661   1.491 -0.2608  0.1553  0.4507
   59BDD     C918377   9.059   2.565   1.446 -0.2446  0.2215  0.3403
   59BDD     S218378   9.117   2.461   1.580 -0.0330  0.2343  0.2591
   59BDD    C1018379   9.017   2.555   1.696  0.0277  0.1460  0.3827
   59BDD    C1118380   9.030   2.494   1.832  0.2675 -0.7170  0.6400
   59BDD    C1218381   9.160   2.484   1.927  0.2568 -0.8056 -0.3732
   59BDD    C1318382   9.159   2.572   2.062 -0.8360  0.8298  0.4955
   59BDD    C1418383   9.046   2.602   2.143  0.0194 -0.8472  0.0779
   59BDD    C1518384   9.082   2.662   2.268 -0.4299 -0.8763  0.2647
   59BDD    C1618385   9.024   2.808   2.299 -1.2775  1.9915 -0.4273
   59BDD    C1718386   9.293   2.463   1.859 -0.2804 -0.0093 -0.4368
   59BDD    C1818387   9.360   2.328   1.840 -0.0465  1.5609 -0.3165
   59BDD    C1918388   9.114   2.520   1.313 -0.5627 -0.0537 -1.9607
   59BDD    C2018389   9.263   2.538   1.297 -1.1006  1.1852  0.8120
   59BDD    C2118390   9.314   2.677   1.332  0.1385 -1.0259 -0.1802
   59BDD    C2218391   9.268   2.811   1.253  0.3346  0.2704  0.8039
   59BDD    C2318392   9.286   2.949   1.310  0.4132  0.3639 -0.7417
   59BDD    C2418393   9.347   3.033   1.193  0.7288  0.6125 -0.3067
   59BDD    C2518394   9.332   2.464   1.177 -0.0841 -0.8936  0.8054
   59BDD    C2618395   9.317   2.306   1.168  0.0435 -0.2876 -0.7729
   60TPM     C118396   8.723   2.995   1.271  0.1069 -0.4267 -0.1138
   60TPM     C218397   8.722   2.912   1.163 -1.2252 -0.3821 -0.1686
   60TPM     C318398   8.675   2.975   1.042 -1.8477 -0.0635  0.2278
   60TPM     C418399   8.641   3.105   1.058 -0.9903  0.1347  0.5849
   60TPM     S118400   8.665   3.160   1.228  0.6828 -0.0671  0.4471
    1BDTP    C118401  10.118   3.373   7.085  0.0417  0.0247  0.0409
    1BDTP    C218402  10.194   3.253   7.104 -0.0508 -0.0359  0.0250
    1BDTP    C318403  10.144   3.143   7.173 -0.1879 -0.0575 -0.1062
    1BDTP    C418404  10.014   3.152   7.226 -0.2358 -0.0175 -0.2276
    1BDTP    C518405   9.939   3.272   7.208 -0.1433  0.0430 -0.2118
    1BDTP    C618406   9.989   3.381   7.139 -0.0067  0.0647 -0.0805
    1BDTP    C718407   9.942   3.051   7.302 -0.3728 -0.0296 -0.3745
    1BDTP    C818408   9.818   3.089   7.340 -0.3877  0.0184 -0.4683
    1BDTP    S118409   9.775   3.258   7.287 -0.2298  0.0855 -0.3841
    1BDTP    C918410  10.191   3.473   7.010  0.1786  0.0367  0.1876
    1BDTP   C1018411  10.315   3.435   6.971  0.1934 -0.0113  0.2816
    1BDTP    S218412  10.358   3.267   7.025  0.0354 -0.0785  0.1973
    2FTM     S118413  10.253   2.894   7.056  0.3217 -0.3938  0.0272
    2FTM     C118414  10.310   2.772   7.175  0.6479  0.0472  0.3286
    2FTM     C218415  10.299   2.822   7.301  0.4890  0.3189  0.2084
    2FTM     C318416  10.247   2.955   7.312  0.1132  0.2035 -0.1175
    2FTM     C418417  10.218   3.009   7.190 -0.0204 -0.1685 -0.2513
    2FTM     F118418  10.335   2.750   7.414  0.6747  0.6883  0.3864
    2FTM     C518419  10.374   2.654   7.132 -0.5304  0.7966  0.0260
    2FTM     C618420  10.346   2.570   7.010  0.0698 -0.2905 -0.0157
    2FTM     C718421  10.465   2.474   6.968  1.6238 -0.4980 -0.0189
    2FTM     C818422  10.561   2.558   6.879  0.5061 -0.3162 -0.0025
    2FTM     C918423  10.622   2.492   6.757 -0.1291  0.0694  0.6080
    2FTM    C1018424  10.522   2.474   6.639 -0.3749 -0.6800  0.0671
    2FTM    C1118425  10.200   2.505   6.991 -1.1850 -0.0564 -0.2248
    2FTM    C1218426  10.189   2.383   7.070 -0.1594 -0.7440 -0.7154
    3FTM     S118427   9.739   3.477   7.067 -0.1777 -0.5511  0.6071
    3FTM     C118428   9.722   3.654   7.042 -0.7494 -0.6373  0.3666
    3FTM     C218429   9.841   3.716   7.064 -0.8469 -0.2678 -0.1061
    3FTM     C318430   9.950   3.631   7.102 -0.4907  0.0961 -0.3053
    3FTM     C418431   9.914   3.500   7.108 -0.1086  0.0021  0.0257
    3FTM     F118432   9.858   3.853   7.052 -1.2641 -0.2370 -0.3865
    3FTM     C518433   9.589   3.739   7.038  0.4531  0.8930  0.9294
    3FTM     C618434   9.459   3.653   7.053  0.2002  0.6041 -0.3985
    3FTM     C718435   9.344   3.637   6.952 -0.0520  1.1075 -0.7878
    3FTM     C818436   9.367   3.579   6.802 -0.1452  0.4178  0.1434
    3FTM     C918437   9.265   3.494   6.710 -0.8906  0.1001 -0.4572
    3FTM    C1018438   9.128   3.546   6.670  0.5391  0.5528 -0.7258
    3FTM    C1118439   9.437   3.581   7.198  0.0212 -1.2096  0.7478
    3FTM    C1218440   9.341   3.481   7.228  0.3084 -0.6913  0.2483
    4TPM     C118441  10.371   3.498   6.851  0.4695 -0.2535  0.3895
    4TPM     C218442  10.484   3.454   6.789  0.7873  0.1310  0.6871
    4TPM     C318443  10.526   3.539   6.680  0.5729  0.0761  0.5600
    4TPM     C418444  10.445   3.646   6.659  0.0917 -0.3503  0.1656
    4TPM     S118445  10.308   3.650   6.777 -0.1294 -0.7183 -0.0779
    5BDD     C118446  10.503   3.876   6.347  0.2322  0.1303 -0.0606
    5BDD     C218447  10.555   3.944   6.454  0.1502  0.0924  0.0030
    5BDD     C318448  10.543   3.872   6.579 -0.3979  0.2586  0.0519
    5BDD     C418449  10.483   3.750   6.566 -0.7260  0.4208  0.0246
    5BDD     S118450  10.437   3.717   6.396 -0.3707  0.3766 -0.0640
    5BDD     C518451  10.616   4.078   6.445  0.5724 -0.0978  0.0215
    5BDD     C618452  10.591   3.927   6.708 -0.5767  0.2505  0.1239
    5BDD     O118453  10.581   3.865   6.816 -1.0490  0.3937  0.1658
    5BDD     O218454  10.627   4.140   6.337  1.0450 -0.2412 -0.0205
    5BDD     C718455  10.653   4.061   6.699 -0.1543  0.0602  0.1422
    5BDD     C818456  10.665   4.133   6.573  0.3939 -0.1061  0.0933
    5BDD     C918457  10.725   4.255   6.586  0.7219 -0.2682  0.1206
    5BDD     S218458  10.771   4.288   6.757  0.3667 -0.2243  0.2093
    5BDD    C1018459  10.704   4.129   6.805 -0.2360  0.0223  0.2060
    5BDD    C1118460  10.720   4.111   6.956  1.0505  0.6795  0.4369
    5BDD    C1218461  10.850   4.042   6.989 -1.2244 -0.4431  0.8593
    5BDD    C1318462  10.999   4.085   6.978  0.3357  0.5137  0.6033
    5BDD    C1418463  11.014   4.201   7.081 -0.7421  0.0642  0.6357
    5BDD    C1518464  11.154   4.245   7.070  0.5658 -0.2727 -1.6748
    5BDD    C1618465  11.186   4.359   7.183  0.3151  0.4757  0.2042
    5BDD    C1718466  10.850   3.894   7.035  0.6929 -0.7614  0.3868
    5BDD    C1818467  10.813   3.879   7.179  0.2353 -0.8394  0.5409
    5BDD    C1918468  10.754   4.359   6.473  0.1620 -0.9238 -0.4435
    5BDD    C2018469  10.674   4.494   6.474 -0.1567  0.1757  0.1103
    5BDD    C2118470  10.527   4.498   6.409 -0.5951 -0.5465 -0.0270
    5BDD    C2218471  10.422   4.624   6.422 -0.7970 -0.1732  0.0445
    5BDD    C2318472  10.269   4.571   6.397 -0.5270 -0.9854 -0.5605
    5BDD    C2418473  10.237   4.552   6.248 -0.7780 -0.5355 -0.7892
    5BDD    C2518474  10.756   4.602   6.402  1.3368  0.2324 -1.7522
    5BDD    C2618475  10.887   4.672   6.467 -0.5842  1.1776  1.0812
    6TPM     C118476  10.491   3.909   6.212 -0.5271 -0.9608 -0.2268
    6TPM     C218477  10.371   3.917   6.148 -0.2983 -1.0833 -0.6751
    6TPM     C318478  10.381   3.963   6.012  0.1285 -0.7379 -0.5305
    6TPM     C418479  10.509   3.990   5.973  0.2250 -0.3519  0.0283
    6TPM     S118480  10.627   3.960   6.105 -0.2188 -0.3953  0.4179
    7BDTP    C118481  10.571   4.086   5.350  0.3321 -0.4410  0.1763
    7BDTP    C218482  10.700   4.120   5.402  0.2165 -0.0788  0.2327
    7BDTP    C318483  10.730   4.114   5.537  0.1185  0.1974  0.2687
    7BDTP    C418484  10.629   4.072   5.626  0.1357  0.1130  0.2484
    7BDTP    C518485  10.500   4.038   5.574  0.2515 -0.2491  0.1923
    7BDTP    C618486  10.470   4.045   5.438  0.3492 -0.5255  0.1561
    7BDTP    C718487  10.636   4.058   5.770  0.0480  0.3537  0.2781
    7BDTP    C818488  10.521   4.015   5.828  0.0920  0.1913  0.2472
    7BDTP    S118489  10.387   3.988   5.708  0.2503 -0.2886  0.1762
    7BDTP    C918490  10.564   4.101   5.206  0.4196 -0.6813  0.1466
    7BDTP   C1018491  10.679   4.143   5.148  0.3760 -0.5192  0.1776
    7BDTP    S218492  10.813   4.171   5.268  0.2174 -0.0391  0.2485
    8FTM     S118493  11.007   4.024   5.515  0.2858  0.5657  0.0731
    8FTM     C118494  11.122   4.140   5.591  0.0557  0.6105  0.3542
    8FTM     C218495  11.054   4.234   5.661 -0.1266  0.1758  0.7738
    8FTM     C318496  10.911   4.223   5.659 -0.0989 -0.2095  0.8990
    8FTM     C418497  10.869   4.116   5.586  0.1115 -0.0650  0.5646
    8FTM     F118498  11.116   4.337   5.731 -0.3288  0.1007  1.0692
    8FTM     C518499  11.273   4.129   5.554 -0.6411  1.2032 -0.7344
    8FTM     C618500  11.363   4.032   5.637  0.1642 -0.5017 -2.2182
    8FTM     C718501  11.381   4.112   5.776 -0.2567  0.1158 -0.4127
    8FTM     C818502  11.458   4.232   5.778 -1.0172  0.9311  0.2377
    8FTM     C918503  11.591   4.200   5.837  0.4425 -0.6423 -0.8115
    8FTM    C1018504  11.701   4.310   5.874  0.7024  0.0528 -0.5977
    8FTM    C1118505  11.341   3.883   5.639  0.4451  0.1330 -0.0366
    8FTM    C1218506  11.339   3.795   5.505 -0.7757  0.0307  0.6914
    9FTM     S118507  10.252   4.028   5.235 -0.0872  0.0131 -0.1845
    9FTM     C118508  10.183   3.861   5.223 -0.3836  0.0976  0.2781
    9FTM     C218509  10.230   3.784   5.325 -0.3307  0.2302  0.3548
    9FTM     C318510  10.320   3.848   5.416 -0.0627  0.2732  0.0656
    9FTM     C418511  10.343   3.978   5.383  0.0941  0.1701 -0.2427
    9FTM     F118512  10.194   3.651   5.341 -0.5214  0.3206  0.6917
    9FTM     C518513  10.098   3.830   5.109 -0.3053 -0.4306  0.6487
    9FTM     C618514   9.954   3.889   5.146 -0.6970 -0.0418  0.8054
    9FTM     C718515   9.882   3.876   5.017  0.1761 -0.1308 -0.3991
    9FTM     C818516   9.925   3.971   4.899  0.4096  0.4017  0.4200
    9FTM     C918517   9.824   4.099   4.877 -1.1633 -0.1940  1.3915
    9FTM    C1018518   9.715   4.066   4.783 -0.5284 -0.3489  0.9678
    9FTM    C1118519   9.891   3.826   5.272 -0.6606 -1.7623  0.1960
    9FTM    C1218520   9.872   3.672   5.267  1.1587  0.3212 -1.1165
   10TPM     C118521  10.728   4.194   5.019  1.0058 -0.6325 -0.5265
   10TPM     C218522  10.679   4.140   4.903  1.8342 -1.3214 -0.5696
   10TPM     C318523  10.704   4.220   4.786  1.7545 -1.5063 -0.7145
   10TPM     C418524  10.771   4.336   4.813  0.8659 -0.9586 -0.7819
   10TPM     S118525  10.809   4.353   4.988  0.0544 -0.1605 -0.6665
   11BDD     C118526  10.873   4.668   4.629  0.3712  0.4122 -0.1156
   11BDD     C218527  10.910   4.566   4.545  0.1981  0.3273 -0.0911
   11BDD     C318528  10.873   4.435   4.594 -0.1650  0.4117 -0.1330
   11BDD     C418529  10.808   4.437   4.714 -0.2635  0.5594 -0.1891
   11BDD     S118530  10.789   4.605   4.775  0.0913  0.6033 -0.1930
   11BDD     C518531  10.981   4.587   4.417  0.3600  0.1657 -0.0283
   11BDD     C618532  10.904   4.311   4.519 -0.4010  0.3425 -0.1162
   11BDD     O118533  10.872   4.197   4.561 -0.7138  0.4153 -0.1525
   11BDD     O218534  11.013   4.701   4.375  0.6728  0.0930  0.0080
   11BDD     C718535  10.975   4.331   4.391 -0.2391  0.1808 -0.0534
   11BDD     C818536  11.012   4.463   4.342  0.1240  0.0964 -0.0114
   11BDD     C918537  11.077   4.460   4.222  0.2220 -0.0515  0.0445
   11BDD     S218538  11.096   4.293   4.161 -0.1327 -0.0954  0.0485
   11BDD    C1018539  11.012   4.230   4.307 -0.4125  0.0960 -0.0290
   11BDD    C1118540  10.992   4.077   4.322 -0.1041  0.0548  1.2990
   11BDD    C1218541  10.970   4.003   4.187  0.4635 -0.2342 -1.0608
   11BDD    C1318542  11.072   3.972   4.079  0.3451 -0.9332  0.7945
   11BDD    C1418543  11.201   3.899   4.102  1.3608 -0.1190 -0.9451
   11BDD    C1518544  11.289   3.936   4.220  0.0979  0.9403  0.0524
   11BDD    C1618545  11.366   4.057   4.233  1.3926 -0.3236 -0.2617
   11BDD    C1718546  10.856   3.908   4.218  0.3178 -0.7349 -0.7510
   11BDD    C1818547  10.895   3.758   4.247 -0.8894 -0.8562  0.5284
   11BDD    C1918548  11.104   4.561   4.103 -0.5169  0.6218 -0.4534
   11BDD    C2018549  11.034   4.686   4.095  0.3766 -1.3989 -0.1992
   11BDD    C2118550  10.878   4.683   4.058  0.8691 -0.2716 -0.4923
   11BDD    C2218551  10.850   4.730   3.904  0.5787  0.4757  0.3461
   11BDD    C2318552  10.794   4.612   3.812  0.6348 -0.3248 -0.6961
   11BDD    C2418553  10.882   4.532   3.715  0.1168  0.1436 -0.1878
   11BDD    C2518554  11.121   4.808   4.042  0.4223  0.4223 -0.6116
   11BDD    C2618555  11.226   4.827   4.155  0.4227 -0.9682  0.2249
   12TPM     C118556  10.864   4.807   4.615 -1.0176  0.0320 -0.6747
   12TPM     C218557  10.986   4.868   4.609 -0.9694 -0.1303 -1.8519
   12TPM     C318558  10.980   5.010   4.632 -0.5813 -0.0856 -2.0154
   12TPM     C418559  10.854   5.057   4.655 -0.3327  0.1110 -0.9630
   12TPM     S118560  10.732   4.924   4.650 -0.5723  0.2559  0.3264
   13BDTP    C118561  10.615   5.637   4.730  0.0439  0.0814  0.4520
   13BDTP    C218562  10.755   5.660   4.713 -0.0181  0.1950  0.0669
   13BDTP    C318563  10.846   5.557   4.693  0.0038  0.2732 -0.2397
   13BDTP    C418564  10.797   5.426   4.688  0.0908  0.2383 -0.1634
   13BDTP    C518565  10.658   5.403   4.705  0.1528  0.1247  0.2217
   13BDTP    C618566  10.567   5.505   4.725  0.1307  0.0465  0.5281
   13BDTP    C718567  10.872   5.303   4.668  0.1290  0.3042 -0.4336
   13BDTP    C818568  10.797   5.191   4.669  0.2151  0.2464 -0.2720
   13BDTP    S118569  10.620   5.224   4.695  0.2606  0.1004  0.2450
   13BDTP    C918570  10.541   5.760   4.750  0.0060  0.0156  0.7222
   13BDTP   C1018571  10.616   5.872   4.749 -0.0803  0.0734  0.5606
   13BDTP    S218572  10.793   5.838   4.723 -0.1260  0.2194  0.0436
   14FTM     S118573  11.083   5.502   4.565  0.2499  0.1545 -0.4974
   14FTM     C118574  11.235   5.530   4.658  0.0048 -0.5308  0.1297
   14FTM     C218575  11.207   5.594   4.775 -0.2313 -0.7778  0.2100
   14FTM     C318576  11.069   5.624   4.799 -0.2353 -0.4570 -0.2009
   14FTM     C418577  10.988   5.582   4.697  0.0053  0.0521 -0.6097
   14FTM     F118578  11.304   5.629   4.867 -0.4568 -1.3093  0.6608
   14FTM     C518579  11.375   5.496   4.599  0.0520  0.5296  0.3029
   14FTM     C618580  11.493   5.607   4.587 -0.1161 -0.2519  0.4880
   14FTM     C718581  11.632   5.575   4.556 -0.1780 -0.5548  0.4418
   14FTM     C818582  11.686   5.447   4.625  0.8645 -0.2865 -0.6213
   14FTM     C918583  11.818   5.383   4.573  0.8789  0.3173  1.3962
   14FTM    C1018584  11.931   5.464   4.580 -0.3496 -0.2550 -0.1746
   14FTM    C1118585  11.438   5.723   4.501 -0.1482 -0.7779 -0.6171
   14FTM    C1218586  11.475   5.864   4.482 -0.8605 -0.7065  0.0520
   15FTM     S118587  10.392   5.452   4.529 -0.0656 -0.2764  0.6772
   15FTM     C118588  10.217   5.422   4.564  0.0418 -1.0034  0.6278
   15FTM     C218589  10.192   5.442   4.696 -0.1349 -0.8091  0.5667
   15FTM     C318590  10.305   5.480   4.776 -0.3591 -0.1003  0.5550
   15FTM     C418591  10.419   5.490   4.703 -0.3537  0.2600  0.6089
   15FTM     F118592  10.067   5.426   4.752 -0.1042 -1.2616  0.5178
   15FTM     C518593  10.139   5.356   4.457  0.5795  0.2442  0.2876
   15FTM     C618594  10.047   5.248   4.496  0.9228 -1.5133  0.3978
   15FTM     C718595   9.923   5.235   4.410 -0.0468  0.8013 -0.4875
   15FTM     C818596   9.856   5.361   4.343  0.1548  1.1057 -0.0848
   15FTM     C918597   9.732   5.330   4.250 -0.6159 -0.4116 -0.3262
   15FTM    C1018598   9.756   5.259   4.106  0.8961 -0.1644 -0.8454
   15FTM    C1118599  10.072   5.119   4.575  0.5048 -0.0032 -0.4361
   15FTM    C1218600  10.096   4.984   4.520 -0.0946  0.1668 -0.0668
   16TPM     C118601  10.577   6.005   4.768 -0.1669  0.2778  0.1943
   16TPM     C218602  10.651   6.117   4.793 -0.1004  0.2631  0.0684
   16TPM     C318603  10.570   6.235   4.814 -0.0322  0.3294 -0.0389
   16TPM     C418604  10.436   6.212   4.805 -0.0463  0.3944  0.0055
   16TPM     S118605  10.400   6.039   4.769 -0.1479  0.3771  0.1872
   17BDD     C118606  10.101   6.388   4.879 -0.0489  0.2114  0.2391
   17BDD     C218607  10.184   6.488   4.836 -0.0572  0.1950  0.1847
   17BDD     C318608  10.318   6.443   4.804 -0.0951  0.1636  0.0691
   17BDD     C418609  10.335   6.308   4.823 -0.1151  0.1562  0.0371
   17BDD     S118610  10.185   6.230   4.882 -0.0880  0.1885  0.1494
   17BDD     C518611  10.142   6.629   4.823 -0.0308  0.2078  0.2371
   17BDD     C618612  10.423   6.534   4.756 -0.1101  0.1417 -0.0052
   17BDD     O118613  10.539   6.494   4.728 -0.1431  0.1144 -0.1050
   17BDD     O218614  10.027   6.669   4.850  0.0019  0.2352  0.3368
   17BDD     C718615  10.382   6.675   4.742 -0.0837  0.1546  0.0470
   17BDD     C818616  10.248   6.721   4.774 -0.0458  0.1862  0.1625
   17BDD     C918617  10.230   6.855   4.755 -0.0257  0.1936  0.1947
   17BDD     S218618  10.380   6.933   4.696 -0.0531  0.1611  0.0823
   17BDD    C1018619  10.465   6.775   4.699 -0.0920  0.1384 -0.0074
   17BDD    C1118620  10.585   6.773   4.601 -1.5546 -0.5229 -1.1233
   17BDD    C1218621  10.728   6.783   4.684  0.8969  0.7601  0.6206
   17BDD    C1318622  10.793   6.919   4.716 -0.0841  0.2345 -1.1211
   17BDD    C1418623  10.700   6.998   4.817 -0.1557 -0.8756 -1.0638
   17BDD    C1518624  10.702   6.979   4.973  0.3914 -0.4976 -0.6831
   17BDD    C1618625  10.578   7.043   5.062 -0.2842 -0.2040  0.6013
   17BDD    C1718626  10.815   6.682   4.608 -0.5161 -0.7513 -1.8332
   17BDD    C1818627  10.931   6.622   4.682 -0.1975 -0.2860 -1.1112
   17BDD    C1918628  10.126   6.951   4.760 -0.1091 -0.5868  0.1577
   17BDD    C2018629  10.109   7.051   4.873  0.1205 -1.1711  0.2839
   17BDD    C2118630  10.137   7.001   5.020 -0.7507 -0.9837 -0.9879
   17BDD    C2218631  10.057   6.896   5.090  1.3320 -1.5332  0.0156
   17BDD    C2318632  10.120   6.793   5.166  0.8889 -0.9788 -1.1889
   17BDD    C2418633  10.008   6.736   5.260  1.4540 -1.0882  0.3821
   17BDD    C2518634   9.974   7.124   4.847  1.7223  0.0046 -0.9197
   17BDD    C2618635   9.953   7.229   4.966  1.8553 -0.5892  0.7117
   18TPM     C118636   9.962   6.370   4.932  0.2450  0.1369  0.2534
   18TPM     C218637   9.915   6.252   4.982  0.1116  0.2284  0.3462
   18TPM     C318638   9.789   6.264   5.050 -0.0725  0.3563 -0.0116
   18TPM     C418639   9.739   6.391   5.053 -0.0802  0.3623 -0.3772
   18TPM     S118640   9.849   6.507   4.968  0.1469  0.2057 -0.2974
   19BDTP    C118641   9.117   6.485   5.014 -0.2692  0.4073 -0.2518
   19BDTP    C218642   9.172   6.607   4.965 -0.0615  0.3929 -0.0564
   19BDTP    C318643   9.309   6.629   4.955 -0.0207  0.2536  0.1683
   19BDTP    C418644   9.395   6.525   4.994 -0.1931  0.1215  0.2028
   19BDTP    C518645   9.340   6.403   5.043 -0.4003  0.1355  0.0073
   19BDTP    C618646   9.203   6.381   5.054 -0.4411  0.2751 -0.2175
   19BDTP    C718647   9.540   6.524   4.992 -0.1897 -0.0352  0.4192
   19BDTP    C818648   9.596   6.409   5.037 -0.3824 -0.1382  0.3959
   19BDTP    S118649   9.473   6.285   5.087 -0.5951 -0.0508  0.0967
   19BDTP    C918650   8.972   6.486   5.016 -0.2720  0.5641 -0.4684
   19BDTP   C1018651   8.916   6.601   4.972 -0.0794  0.6667 -0.4451
   19BDTP    S218652   9.039   6.725   4.921  0.1331  0.5798 -0.1460
   20FTM     S118653   9.434   6.849   5.058  0.2308 -0.2201  0.2844
   20FTM     C118654   9.460   6.986   4.944 -0.5698 -0.4020 -0.1280
   20FTM     C218655   9.416   6.951   4.820 -0.7999 -0.8606  0.0755
   20FTM     C318656   9.361   6.820   4.806 -0.3781 -1.0929  0.5530
   20FTM     C418657   9.363   6.751   4.924  0.1937 -0.8025  0.7207
   20FTM     F118658   9.423   7.037   4.711 -1.4064 -1.0973 -0.1585
   20FTM     C518659   9.553   7.103   4.981 -0.3052 -0.7644  0.9479
   20FTM     C618660   9.491   7.218   5.074 -0.9953  0.3293 -1.0599
   20FTM     C718661   9.366   7.281   5.030 -1.1172 -0.8146 -0.4538
   20FTM     C818662   9.236   7.236   4.948 -1.1204 -0.0328 -0.4133
   20FTM     C918663   9.154   7.115   4.995  0.1599 -0.1376 -0.5299
   20FTM    C1018664   9.106   7.121   5.143  0.9289 -0.2257  0.4957
   20FTM    C1118665   9.520   7.200   5.228  0.1226 -1.0012 -0.5644
   20FTM    C1218666   9.535   7.325   5.306 -0.0843 -0.1749 -0.9097
   21FTM     S118667   9.207   6.082   5.083  0.4786 -0.0641  0.0891
   21FTM     C118668   9.108   6.031   5.225 -0.0209 -0.4174 -0.3786
   21FTM     C218669   9.045   6.139   5.279 -0.6697 -0.6367 -0.6682
   21FTM     C318670   9.070   6.265   5.215 -0.8147 -0.5456 -0.5471
   21FTM     C418671   9.155   6.253   5.108 -0.2584 -0.2466 -0.1517
   21FTM     F118672   8.962   6.131   5.389 -1.1711 -0.9329 -1.0601
   21FTM     C518673   9.148   5.898   5.287 -0.4476 -0.4970 -0.4440
   21FTM     C618674   9.093   5.764   5.228 -0.3208  0.6438 -0.4047
   21FTM     C718675   9.173   5.649   5.298  1.5287  0.3776 -0.0207
   21FTM     C818676   9.316   5.618   5.291  0.1077 -0.7220 -0.4508
   21FTM     C918677   9.337   5.480   5.302  0.9264 -1.1396 -0.0764
   21FTM    C1018678   9.465   5.411   5.305 -0.8671  0.5697  0.4450
   21FTM    C1118679   8.938   5.751   5.248 -0.9299 -0.8862  0.8585
   21FTM    C1218680   8.866   5.772   5.377 -0.4154  1.0647 -0.2707
   22TPM     C118681   8.778   6.604   4.913 -0.1998 -0.3726 -0.1706
   22TPM     C218682   8.772   6.604   4.777 -0.2789 -0.6301 -0.1684
   22TPM     C318683   8.639   6.579   4.725 -0.3326 -0.6037 -0.0437
   22TPM     C418684   8.545   6.561   4.822 -0.2949 -0.3256  0.0490
   22TPM     S118685   8.617   6.573   4.987 -0.1871 -0.0742 -0.0146
   23BDD     C118686   8.294   6.267   4.778  0.2771 -0.4907  0.0225
   23BDD     C218687   8.258   6.362   4.687  0.2272 -0.4758  0.0573
   23BDD     C318688   8.341   6.481   4.692 -0.0441 -0.2943  0.3273
   23BDD     C418689   8.440   6.475   4.787 -0.1967 -0.1735  0.4943
   23BDD     S118690   8.434   6.320   4.877 -0.0119 -0.2785  0.3251
   23BDD     C518691   8.146   6.347   4.592  0.4268 -0.6276 -0.1562
   23BDD     C618692   8.321   6.597   4.602 -0.1419 -0.2474  0.4098
   23BDD     O118693   8.392   6.699   4.606 -0.3755 -0.0908  0.6427
   23BDD     O218694   8.075   6.245   4.587  0.6607 -0.7842 -0.3890
   23BDD     C718695   8.209   6.582   4.507  0.0582 -0.3996  0.1962
   23BDD     C818696   8.125   6.463   4.502  0.3293 -0.5810 -0.0738
   23BDD     C918697   8.027   6.469   4.407  0.4823 -0.7019 -0.2407
   23BDD     S218698   8.032   6.624   4.317  0.2972 -0.5969 -0.0714
   23BDD    C1018699   8.173   6.677   4.415  0.0083 -0.3847  0.2313
   23BDD    C1118700   8.228   6.810   4.391 -2.7095 -0.3072 -0.2612
   23BDD    C1218701   8.309   6.831   4.268 -0.2876  0.2316  0.5168
   23BDD    C1318702   8.273   6.754   4.143 -0.6409  1.1418  0.6743
   23BDD    C1418703   8.375   6.770   4.031  0.6602 -0.1831 -0.2404
   23BDD    C1518704   8.374   6.641   3.948 -0.3478  0.2069  0.9489
   23BDD    C1618705   8.272   6.619   3.841 -1.0184  0.7606  0.2101
   23BDD    C1718706   8.389   6.971   4.263  0.1231  0.1005  1.2946
   23BDD    C1818707   8.501   7.002   4.370 -0.0408  0.2617  0.1454
   23BDD    C1918708   7.934   6.375   4.360 -1.1060  0.5696 -0.4026
   23BDD    C2018709   7.791   6.406   4.380 -0.1445  0.2306  0.3311
   23BDD    C2118710   7.699   6.300   4.311 -0.2683 -1.4584 -0.0896
   23BDD    C2218711   7.735   6.249   4.170 -1.3058  2.0804 -0.7808
   23BDD    C2318712   7.758   6.092   4.152  0.3758  0.1097 -0.4833
   23BDD    C2418713   7.795   6.017   4.280 -0.8664  0.2178  1.5944
   23BDD    C2518714   7.744   6.466   4.508  1.3063 -0.5098  0.2420
   23BDD    C2618715   7.681   6.394   4.634  0.3967  0.7162  0.4046
   24TPM     C118716   8.244   6.143   4.816 -0.0660  0.0642 -0.0316
   24TPM     C218717   8.324   6.034   4.798  0.2546  0.2625  0.1724
   24TPM     C318718   8.253   5.909   4.803  0.6363  0.0556  0.5033
   24TPM     C418719   8.119   5.922   4.824  0.6064 -0.3006  0.5519
   24TPM     S118720   8.072   6.096   4.841  0.0905 -0.4030  0.1803
   25BDTP    C118721   7.690   5.494   4.988 -0.1743 -0.0831  0.4219
   25BDTP    C218722   7.692   5.583   5.099 -0.0465 -0.1525  0.4754
   25BDTP    C318723   7.772   5.697   5.102 -0.0596 -0.1425  0.4450
   25BDTP    C418724   7.854   5.724   4.991 -0.2050 -0.0603  0.3579
   25BDTP    C518725   7.851   5.634   4.880 -0.3326  0.0088  0.3042
   25BDTP    C618726   7.772   5.521   4.877 -0.3197 -0.0011  0.3347
   25BDTP    C718727   7.945   5.835   4.972 -0.2465 -0.0344  0.3117
   25BDTP    C818728   8.010   5.833   4.853 -0.3970  0.0499  0.2273
   25BDTP    S118729   7.965   5.691   4.749 -0.5077  0.1081  0.1944
   25BDTP    C918730   7.599   5.383   5.008 -0.1329 -0.1091  0.4679
   25BDTP   C1018731   7.534   5.384   5.126  0.0178 -0.1934  0.5522
   25BDTP    S218732   7.579   5.527   5.230  0.1283 -0.2518  0.5853
   26FTM     S118733   7.880   5.799   5.345 -0.1886  0.3943  0.1690
   26FTM     C118734   7.785   5.923   5.435  0.6647  1.1240  0.0881
   26FTM     C218735   7.673   5.955   5.366  0.8372  1.7941  0.1101
   26FTM     C318736   7.655   5.888   5.241  0.3290  1.7813  0.1892
   26FTM     C418737   7.756   5.800   5.214 -0.2521  1.0784  0.2292
   26FTM     F118738   7.581   6.049   5.411  1.4659  2.4588  0.0600
   26FTM     C518739   7.845   5.980   5.553  1.4683 -0.6039  0.1787
   26FTM     C618740   7.950   6.094   5.543 -0.3486 -0.5435  0.3297
   26FTM     C718741   7.948   6.214   5.436 -0.0346  0.1128  0.2105
   26FTM     C818742   8.075   6.222   5.384  0.1383 -0.3182  0.8830
   26FTM     C918743   8.088   6.341   5.282  0.4173  0.0720  0.4046
   26FTM    C1018744   8.241   6.329   5.254  0.0465 -0.4439  0.8327
   26FTM    C1118745   8.002   6.107   5.687 -0.9382  0.3327  0.5342
   26FTM    C1218746   7.936   6.190   5.781  0.8439  0.7922 -0.2671
   27FTM     S118747   7.827   5.246   4.802 -0.4057 -0.4025  0.4573
   27FTM     C118748   7.834   5.210   4.625 -0.3148 -0.7662  0.5343
   27FTM     C218749   7.800   5.321   4.554  0.1056 -0.7954  0.2799
   27FTM     C318750   7.767   5.437   4.630  0.3762 -0.5429  0.0160
   27FTM     C418751   7.776   5.416   4.764  0.1558 -0.3126  0.0700
   27FTM     F118752   7.796   5.322   4.415  0.2705 -1.0526  0.2710
   27FTM     C518753   7.869   5.069   4.581 -0.2948  0.2908 -0.1079
   27FTM     C618754   8.010   4.997   4.586 -0.2766 -1.6138 -0.6714
   27FTM     C718755   8.119   5.064   4.503  0.1749 -1.1631  0.9300
   27FTM     C818756   8.219   4.981   4.421 -1.4004  0.4605  1.2017
   27FTM     C918757   8.336   5.065   4.355  1.4687 -0.0410 -0.7654
   27FTM    C1018758   8.424   4.948   4.287  0.4280 -0.9013  0.3235
   27FTM    C1118759   8.073   4.953   4.721  0.2850  0.9059 -1.4469
   27FTM    C1218760   7.977   4.908   4.836  0.4342 -0.8535  0.3061
   28TPM     C118761   7.432   5.308   5.177 -0.4025  0.5737 -0.0147
   28TPM     C218762   7.378   5.326   5.301 -0.7231 -0.0211 -0.0645
   28TPM     C318763   7.269   5.236   5.330 -0.2165 -0.7714 -0.4301
   28TPM     C418764   7.240   5.150   5.228  0.4904 -0.7486 -0.6592
   28TPM     S118765   7.349   5.176   5.087  0.5717  0.2298 -0.4291
   29BDD     C118766   7.111   4.780   5.225  0.2404 -0.1460  0.3860
   29BDD     C218767   7.019   4.846   5.302  0.2278 -0.1210  0.3493
   29BDD     C318768   7.047   4.988   5.317  0.1565 -0.0908  0.2030
   29BDD     C418769   7.161   5.028   5.251  0.1157 -0.0934  0.1302
   29BDD     S118770   7.240   4.891   5.167  0.1636 -0.1336  0.2398
   29BDD     C518771   6.902   4.782   5.364  0.2811 -0.1237  0.4473
   29BDD     C618772   6.961   5.079   5.395  0.1316 -0.0606  0.1408
   29BDD     O118773   6.985   5.201   5.408  0.0701 -0.0346  0.0147
   29BDD     O218774   6.877   4.660   5.351  0.3426 -0.1497  0.5734
   29BDD     C718775   6.844   5.014   5.457  0.1847 -0.0633  0.2388
   29BDD     C818776   6.815   4.872   5.442  0.2561 -0.0936  0.3850
   29BDD     C918777   6.702   4.832   5.508  0.2968 -0.0910  0.4578
   29BDD     S218778   6.623   4.969   5.592  0.2490 -0.0505  0.3482
   29BDD    C1018779   6.751   5.080   5.534  0.1721 -0.0383  0.2022
   29BDD    C1118780   6.707   5.221   5.570  1.1374  1.0212  0.9081
   29BDD    C1218781   6.575   5.291   5.540 -0.0011 -0.3423  0.0680
   29BDD    C1318782   6.596   5.444   5.599  0.3937 -1.1293  0.1993
   29BDD    C1418783   6.700   5.533   5.553 -0.9735 -0.2073  0.3810
   29BDD    C1518784   6.686   5.680   5.544  0.8179 -1.1303 -0.5775
   29BDD    C1618785   6.644   5.705   5.388  0.3359  0.1166 -0.3004
   29BDD    C1718786   6.561   5.276   5.392  0.0988 -0.4143  1.3374
   29BDD    C1818787   6.442   5.360   5.341 -0.4383  0.3758 -0.6741
   29BDD    C1918788   6.628   4.705   5.529 -0.0821 -0.7436  0.1036
   29BDD    C2018789   6.594   4.622   5.401  1.3534 -0.0485 -0.9868
   29BDD    C2118790   6.486   4.698   5.317  0.5814 -0.4212  0.7037
   29BDD    C2218791   6.472   4.671   5.161  0.2502 -0.7262 -0.7676
   29BDD    C2318792   6.355   4.739   5.088  1.7210 -0.5385 -0.1145
   29BDD    C2418793   6.398   4.843   4.991  1.5224 -0.1299 -1.0901
   29BDD    C2518794   6.594   4.462   5.429  0.1230  0.1107  1.5943
   29BDD    C2618795   6.558   4.394   5.297 -0.6712  0.2287 -0.1924
   30TPM     C118796   7.116   4.653   5.162  1.1064  0.1317  0.2811
   30TPM     C218797   7.152   4.534   5.219  1.7550  0.2072  0.0433
   30TPM     C318798   7.147   4.422   5.128  0.9494  0.1265  0.1674
   30TPM     C418799   7.108   4.456   5.002 -0.3133 -0.0105  0.5000
   30TPM     S118800   7.073   4.632   4.988 -0.5849 -0.0485  0.6834
   31BDTP    C118801   6.917   4.043   4.566  0.3541 -0.1781 -0.0954
   31BDTP    C218802   6.910   4.167   4.496  0.2810 -0.1141  0.0250
   31BDTP    C318803   6.948   4.288   4.553  0.1402 -0.1360  0.1676
   31BDTP    C418804   6.996   4.287   4.686  0.0678 -0.2255  0.1929
   31BDTP    C518805   7.003   4.163   4.756  0.1407 -0.2894  0.0725
   31BDTP    C618806   6.965   4.042   4.699  0.2818 -0.2676 -0.0700
   31BDTP    C718807   7.041   4.399   4.766 -0.0781 -0.2640  0.3308
   31BDTP    C818808   7.082   4.365   4.891 -0.1178 -0.3529  0.3200
   31BDTP    S118809   7.068   4.187   4.925  0.0243 -0.4001  0.1338
   31BDTP    C918810   6.872   3.931   4.487  0.5001 -0.1396 -0.2331
   31BDTP   C1018811   6.832   3.965   4.362  0.5397 -0.0508 -0.2223
   31BDTP    S218812   6.845   4.143   4.327  0.3976 -0.0034 -0.0361
   32FTM     S118813   7.034   4.558   4.486 -0.1220  0.0930 -0.4968
   32FTM     C118814   6.920   4.650   4.381 -0.0207  0.0853 -0.6146
   32FTM     C218815   6.809   4.575   4.358 -0.0062  0.0911 -0.7014
   32FTM     C318816   6.806   4.445   4.418 -0.0713  0.1014 -0.6822
   32FTM     C418817   6.918   4.419   4.490 -0.1380  0.1037 -0.5771
   32FTM     F118818   6.703   4.620   4.280  0.0669  0.0874 -0.8034
   32FTM     C518819   6.968   4.791   4.358  1.2187 -0.5824 -0.6884
   32FTM     C618820   6.926   4.906   4.458  1.0616  0.3390  1.3609
   32FTM     C718821   6.774   4.913   4.496  0.1141 -0.3885 -0.6417
   32FTM     C818822   6.742   4.904   4.650 -1.5078 -0.5982  1.1773
   32FTM     C918823   6.591   4.916   4.678 -0.3615  0.0577 -1.2591
   32FTM    C1018824   6.521   5.052   4.632  0.1864 -0.8864  0.6582
   32FTM    C1118825   6.980   5.042   4.398  0.6072  0.6258  0.4615
   32FTM    C1218826   7.124   5.061   4.395  0.1213  0.3972  0.3517
   33FTM     S118827   7.124   3.815   4.799  0.3472 -0.2136 -0.3607
   33FTM     C118828   7.038   3.703   4.912  0.4314 -0.4632 -0.5410
   33FTM     C218829   6.908   3.742   4.925  0.4139 -0.5547 -0.4419
   33FTM     C318830   6.868   3.857   4.850  0.3359 -0.4391 -0.2249
   33FTM     C418831   6.971   3.909   4.777  0.2921 -0.2531 -0.1556
   33FTM     F118832   6.817   3.674   5.006  0.4678 -0.7486 -0.5417
   33FTM     C518833   7.143   3.603   4.956  2.0662 -0.3188  0.6353
   33FTM     C618834   7.110   3.515   5.076 -2.1464 -0.3647 -0.3561
   33FTM     C718835   6.979   3.456   5.085  1.0195 -1.2792  0.1025
   33FTM     C818836   6.971   3.305   5.059  0.0810  0.3287  1.0659
   33FTM     C918837   7.070   3.191   5.104 -0.9511 -0.5057  0.7963
   33FTM    C1018838   7.202   3.163   5.014  0.8449  0.8307  1.0787
   33FTM    C1118839   7.149   3.544   5.223  0.0038 -0.3798  0.0885
   33FTM    C1218840   7.295   3.601   5.230  1.4884  0.1713 -0.7674
   34TPM     C118841   6.740   3.878   4.284  0.0361 -0.1576 -0.0037
   34TPM     C218842   6.645   3.912   4.192  0.8671 -0.2833 -0.9449
   34TPM     C318843   6.569   3.800   4.144  1.3946 -0.3672 -1.6010
   34TPM     C418844   6.606   3.680   4.198  0.9662 -0.3058 -1.1599
   34TPM     S118845   6.741   3.701   4.317 -0.1458 -0.1356  0.1283
   35BDD     C118846   6.377   3.374   4.303 -0.0925 -0.3925 -0.4702
   35BDD     C218847   6.343   3.404   4.174 -0.2068 -0.1706 -0.3895
   35BDD     C318848   6.420   3.514   4.118 -0.2823 -0.0499 -0.2564
   35BDD     C418849   6.511   3.566   4.206 -0.2243 -0.1816 -0.2376
   35BDD     S118850   6.507   3.481   4.364 -0.0715 -0.4656 -0.3850
   35BDD     C518851   6.239   3.332   4.097 -0.2508 -0.0616 -0.4318
   35BDD     C618852   6.399   3.563   3.980 -0.4090  0.1915 -0.1532
   35BDD     O118853   6.465   3.658   3.932 -0.4740  0.2956 -0.0385
   35BDD     O218854   6.173   3.237   4.146 -0.1858 -0.1656 -0.5465
   35BDD     C718855   6.295   3.491   3.904 -0.4529  0.3008 -0.1954
   35BDD     C818856   6.219   3.381   3.960 -0.3774  0.1801 -0.3284
   35BDD     C918857   6.127   3.329   3.872 -0.4354  0.3116 -0.3474
   35BDD     S218858   6.131   3.414   3.714 -0.5881  0.5957 -0.2000
   35BDD    C1018859   6.261   3.521   3.775 -0.5672  0.5226 -0.1150
   35BDD    C1118860   6.318   3.619   3.675  0.5809  1.1629  0.5557
   35BDD    C1218861   6.250   3.742   3.609 -0.0123 -0.8588  0.2574
   35BDD    C1318862   6.151   3.721   3.507  1.2048 -0.6365 -0.0753
   35BDD    C1418863   6.060   3.812   3.407 -1.2120  0.9135 -1.1156
   35BDD    C1518864   5.967   3.729   3.329 -0.8022 -0.1138  0.4499
   35BDD    C1618865   5.984   3.747   3.179  0.4433 -0.5372  1.0937
   35BDD    C1718866   6.356   3.856   3.569  0.2899 -0.4016 -0.5795
   35BDD    C1818867   6.482   3.813   3.509 -0.6518 -0.0319  0.9313
   35BDD    C1918868   6.027   3.219   3.898 -0.0807 -0.8428 -0.6440
   35BDD    C2018869   6.015   3.096   3.800  0.3268 -0.5900  0.5533
   35BDD    C2118870   5.883   3.007   3.819 -1.4530 -0.4048  0.4804
   35BDD    C2218871   5.886   2.915   3.924  0.5342  0.8767 -0.1750
   35BDD    C2318872   5.763   2.820   3.951 -0.5072 -0.4940  0.0944
   35BDD    C2418873   5.627   2.889   3.976  0.3426  0.6228  0.1154
   35BDD    C2518874   6.148   3.030   3.777  0.9103 -1.4283 -0.9505
   35BDD    C2618875   6.170   2.942   3.658  0.6096  0.1203 -0.9945
   36TPM     C118876   6.366   3.254   4.384 -0.1599 -0.2630 -1.1872
   36TPM     C218877   6.475   3.190   4.436  0.3314 -0.4030 -2.3270
   36TPM     C318878   6.442   3.067   4.503  0.8810 -0.4008 -2.0450
   36TPM     C418879   6.309   3.037   4.502  0.8086 -0.2592 -0.6903
   36TPM     S118880   6.214   3.163   4.416  0.0347 -0.1165  0.3425
   37BDTP    C118881   6.040   2.511   4.703 -0.1428  0.0149 -0.3496
   37BDTP    C218882   6.163   2.463   4.651 -0.0368  0.0319 -0.1167
   37BDTP    C318883   6.259   2.547   4.595 -0.0267  0.0230 -0.1129
   37BDTP    C418884   6.231   2.685   4.591 -0.1255 -0.0039 -0.3492
   37BDTP    C518885   6.107   2.732   4.643 -0.2316 -0.0208 -0.5821
   37BDTP    C618886   6.012   2.648   4.699 -0.2418 -0.0119 -0.5862
   37BDTP    C718887   6.314   2.791   4.538 -0.1358 -0.0176 -0.3934
   37BDTP    C818888   6.259   2.915   4.547 -0.2433 -0.0436 -0.6447
   37BDTP    S118889   6.095   2.914   4.625 -0.3463 -0.0544 -0.8612
   37BDTP    C918890   5.957   2.404   4.756 -0.1327  0.0287 -0.3058
   37BDTP   C1018891   6.011   2.281   4.746 -0.0252  0.0547 -0.0544
   37BDTP    S218892   6.176   2.282   4.668  0.0779  0.0655  0.1621
   38FTM     S118893   6.352   2.489   4.325 -0.5866  0.3070 -0.1689
   38FTM     C118894   6.502   2.389   4.316 -0.4819  0.4744 -0.3114
   38FTM     C218895   6.547   2.363   4.442 -0.8097 -0.1844 -0.3200
   38FTM     C318896   6.471   2.418   4.550 -1.1539 -0.8436 -0.2190
   38FTM     C418897   6.363   2.488   4.505 -1.0876 -0.6844 -0.1299
   38FTM     F118898   6.661   2.288   4.467 -0.8174 -0.2297 -0.4201
   38FTM     C518899   6.585   2.367   4.196 -0.3649  0.9530  0.1793
   38FTM     C618900   6.566   2.232   4.122  0.5560 -0.4221 -1.0701
   38FTM     C718901   6.436   2.225   4.031 -0.2644  0.7087 -0.9931
   38FTM     C818902   6.301   2.227   4.100  0.5173  1.0653 -0.0421
   38FTM     C918903   6.285   2.123   4.215  0.0113  0.4260  0.0365
   38FTM    C1018904   6.167   2.144   4.304  0.2469 -0.0914 -0.3786
   38FTM    C1118905   6.700   2.202   4.050  0.0539  0.8778 -0.4638
   38FTM    C1218906   6.698   2.074   3.952 -0.0097 -1.1352 -1.4779
   39FTM     S118907   5.800   2.686   4.887 -0.1980 -0.0292  0.4232
   39FTM     C118908   5.672   2.797   4.826  0.3333  0.3867  0.0368
   39FTM     C218909   5.695   2.827   4.696  0.8639  0.3768  0.1242
   39FTM     C318910   5.811   2.768   4.637  0.8892  0.0532  0.4885
   39FTM     C418911   5.879   2.690   4.724  0.3605 -0.1929  0.6862
   39FTM     F118912   5.612   2.911   4.622  1.3583  0.6606 -0.1202
   39FTM     C518913   5.553   2.800   4.924 -0.4174 -0.6404  1.0723
   39FTM     C618914   5.428   2.716   4.899  0.6883 -0.6808 -0.7208
   39FTM     C718915   5.335   2.774   4.792 -1.3731  0.4289  1.7741
   39FTM     C818916   5.240   2.869   4.853  0.8362 -0.3029  0.4595
   39FTM     C918917   5.097   2.817   4.889 -0.5881  0.1865 -0.0008
   39FTM    C1018918   4.978   2.823   4.792  0.3135  0.3959 -0.3847
   39FTM    C1118919   5.434   2.565   4.883  0.6131  0.0148  0.7022
   39FTM    C1218920   5.506   2.478   4.985  1.0377 -1.0863 -0.2500
   40TPM     C118921   5.960   2.157   4.803  0.0034  0.3048  0.3353
   40TPM     C218922   5.838   2.099   4.781 -0.4171  1.0747  0.5686
   40TPM     C318923   5.807   1.994   4.874 -0.7578  1.0410  0.4174
   40TPM     C418924   5.904   1.971   4.966 -0.5972  0.2454  0.0686
   40TPM     S118925   6.045   2.082   4.944  0.0019 -0.5290 -0.0969
   41BDD     C118926   6.022   1.718   5.244 -0.1108 -0.5333  0.1541
   41BDD     C218927   5.885   1.709   5.242 -0.1148 -0.4619  0.0778
   41BDD     C318928   5.824   1.788   5.137 -0.0144 -0.4346  0.0392
   41BDD     C418929   5.914   1.856   5.060  0.0644 -0.4855  0.0868
   41BDD     S118930   6.082   1.826   5.114  0.0187 -0.5711  0.1830
   41BDD     C518931   5.807   1.627   5.336 -0.2109 -0.4163  0.0376
   41BDD     C618932   5.677   1.793   5.116 -0.0005 -0.3589 -0.0434
   41BDD     O118933   5.624   1.861   5.026  0.0862 -0.3353 -0.0768
   41BDD     O218934   5.860   1.559   5.427 -0.2974 -0.4399  0.0708
   41BDD     C718935   5.599   1.711   5.211 -0.0967 -0.3133 -0.0836
   41BDD     C818936   5.660   1.632   5.316 -0.1972 -0.3407 -0.0451
   41BDD     C918937   5.570   1.564   5.392 -0.2761 -0.2898 -0.0925
   41BDD     S218938   5.402   1.594   5.338 -0.2302 -0.2042 -0.1890
   41BDD    C1018939   5.462   1.702   5.209 -0.1006 -0.2420 -0.1600
   41BDD    C1118940   5.351   1.770   5.123  0.9684 -0.2299  1.0866
   41BDD    C1218941   5.201   1.721   5.088  0.1858  0.2623 -0.6764
   41BDD    C1318942   5.106   1.745   5.214  0.4331  0.4380  0.0834
   41BDD    C1418943   4.997   1.870   5.224 -1.3903  1.4259 -0.9599
   41BDD    C1518944   4.895   1.822   5.322 -0.0980 -0.1463  0.7957
   41BDD    C1618945   4.794   1.717   5.273 -0.4155 -1.4229 -0.8000
   41BDD    C1718946   5.184   1.582   5.026  0.2887 -0.0542 -0.2896
   41BDD    C1818947   5.056   1.495   5.018  0.8815 -0.3236 -0.2375
   41BDD    C1918948   5.589   1.486   5.523  0.9092  0.9844  0.2719
   41BDD    C2018949   5.558   1.336   5.524  1.0409 -0.8768  0.2077
   41BDD    C2118950   5.530   1.260   5.397  0.1077 -0.3346 -0.4146
   41BDD    C2218951   5.386   1.237   5.323  0.7651 -0.1736 -1.6636
   41BDD    C2318952   5.387   1.133   5.215 -0.9101  0.4206  0.9332
   41BDD    C2418953   5.473   1.134   5.081 -0.0804  0.9729  0.4179
   41BDD    C2518954   5.489   1.274   5.638  0.4817 -0.8833 -1.1919
   41BDD    C2618955   5.577   1.233   5.760 -0.8983 -0.5542 -0.8918
   42TPM     C118956   6.136   1.667   5.323 -0.0952 -0.7513 -0.6640
   42TPM     C218957   6.131   1.593   5.437 -0.1798 -1.0155 -0.8360
   42TPM     C318958   6.260   1.545   5.481 -0.1146 -0.5453 -0.4884
   42TPM     C418959   6.363   1.582   5.400  0.0197  0.0775 -0.0515
   42TPM     S118960   6.305   1.681   5.261  0.0746  0.1187 -0.0450
   43BDTP    C118961   6.976   1.444   5.433  0.4200 -0.0501  0.0756
   43BDTP    C218962   6.958   1.481   5.297  0.3680 -0.0986  0.0690
   43BDTP    C318963   6.836   1.520   5.245  0.3262 -0.2152  0.0776
   43BDTP    C418964   6.725   1.524   5.331  0.3362 -0.2875  0.0937
   43BDTP    C518965   6.743   1.487   5.468  0.3880 -0.2389  0.1001
   43BDTP    C618966   6.865   1.448   5.520  0.4297 -0.1223  0.0914
   43BDTP    C718967   6.589   1.562   5.300  0.2990 -0.4107  0.1050
   43BDTP    C818968   6.504   1.555   5.405  0.3204 -0.4564  0.1194
   43BDTP    S118969   6.585   1.501   5.559  0.3904 -0.3498  0.1208
   43BDTP    C918970   7.112   1.406   5.465  0.4568  0.0732  0.0641
   43BDTP   C1018971   7.197   1.413   5.359  0.4355  0.1189  0.0497
   43BDTP    S218972   7.116   1.467   5.206  0.3654  0.0123  0.0483
   44FTM     S118973   6.756   1.695   5.042  0.7157 -0.3814  0.0501
   44FTM     C118974   6.736   1.634   4.873  0.3956 -0.6789  0.1945
   44FTM     C218975   6.779   1.505   4.865  0.3058 -0.7198  0.3577
   44FTM     C318976   6.829   1.447   4.986  0.4764 -0.5271  0.3800
   44FTM     C418977   6.824   1.535   5.091  0.7042 -0.3322  0.2289
   44FTM     F118978   6.775   1.432   4.747  0.0638 -0.9342  0.4966
   44FTM     C518979   6.645   1.706   4.785  1.1826  0.2563 -0.9142
   44FTM     C618980   6.663   1.675   4.632  0.0703 -0.7945  0.8721
   44FTM     C718981   6.544   1.711   4.535 -0.2513 -0.2105 -0.1508
   44FTM     C818982   6.411   1.650   4.572  0.3640  0.5814  0.2789
   44FTM     C918983   6.311   1.627   4.460 -0.0417  1.0296 -0.1404
   44FTM    C1018984   6.183   1.570   4.513  0.7153  0.5296 -1.3971
   44FTM    C1118985   6.789   1.750   4.585  0.3933  2.1416 -0.2341
   44FTM    C1218986   6.852   1.777   4.453  0.7718  0.5234  0.0012
   45FTM     S118987   6.864   1.546   5.787 -0.8443  0.0621 -0.1188
   45FTM     C118988   6.878   1.420   5.914  0.6040  0.2690 -0.0346
   45FTM     C218989   6.889   1.297   5.856  1.3283  0.2881  0.0489
   45FTM     C318990   6.888   1.294   5.713  0.8141  0.1463  0.0521
   45FTM     C418991   6.875   1.419   5.659 -0.3423  0.0144 -0.0315
   45FTM     F118992   6.901   1.180   5.930  2.5007  0.4350  0.1271
   45FTM     C518993   6.857   1.447   6.062  1.3398  0.9414  0.3681
   45FTM     C618994   6.967   1.499   6.158 -0.2807  1.3051  0.5376
   45FTM     C718995   7.052   1.628   6.127  0.1119  0.3537 -0.9147
   45FTM     C818996   7.000   1.780   6.127  0.2204  1.1731 -0.2842
   45FTM     C918997   7.040   1.868   6.023  0.2655  1.0561  0.0817
   45FTM    C1018998   7.036   2.014   6.064  0.2817 -0.1665  0.3573
   45FTM    C1118999   7.035   1.394   6.247  0.3347  0.7399 -0.6487
   45FTM    C1219000   7.087   1.449   6.375 -0.1337 -0.5360 -0.8352
   46TPM     C119001   7.341   1.389   5.351 -0.2590 -0.5135 -0.1948
   46TPM     C219002   7.412   1.330   5.250  0.0598 -0.6815  0.1206
   46TPM     C319003   7.547   1.296   5.285  0.1137 -0.1467  0.4393
   46TPM     C419004   7.580   1.330   5.413 -0.1639  0.4291  0.3666
   46TPM     S119005   7.442   1.407   5.499 -0.5177  0.3399 -0.1134
   47BDD     C119006   7.959   1.421   5.493  0.2967  0.1145 -0.2260
   47BDD     C219007   7.946   1.287   5.518  0.1841  0.1486 -0.0961
   47BDD     C319008   7.812   1.237   5.495  0.1311  0.2467 -0.0067
   47BDD     C419009   7.724   1.333   5.452  0.2042  0.2860 -0.0696
   47BDD     S119010   7.804   1.493   5.439  0.3444  0.2029 -0.2455
   47BDD     C519011   8.057   1.200   5.564  0.1206  0.0923 -0.0492
   47BDD     C619012   7.775   1.095   5.515  0.0100  0.2980  0.1382
   47BDD     O119013   7.660   1.051   5.495 -0.0355  0.3826  0.2153
   47BDD     O219014   8.172   1.244   5.584  0.1662  0.0077 -0.1264
   47BDD     C719015   7.886   1.008   5.561 -0.0532  0.2416  0.1851
   47BDD     C819016   8.020   1.059   5.584 -0.0005  0.1435  0.0957
   47BDD     C919017   8.108   0.962   5.626 -0.0734  0.1042  0.1588
   47BDD     S219018   8.028   0.802   5.639 -0.2138  0.1873  0.3345
   47BDD    C1019019   7.873   0.874   5.585 -0.1659  0.2757  0.3151
   47BDD    C1119020   7.744   0.792   5.573  0.5324  0.0153 -0.1889
   47BDD    C1219021   7.715   0.704   5.685  1.0775  0.7553 -0.1578
   47BDD    C1319022   7.646   0.569   5.637  0.2052  0.0235 -0.1347
   47BDD    C1419023   7.671   0.438   5.714 -0.3212 -0.1692 -0.5412
   47BDD    C1519024   7.563   0.318   5.734 -0.2305 -0.7774 -0.1322
   47BDD    C1619025   7.422   0.353   5.736 -0.1450 -0.5428 -1.3456
   47BDD    C1719026   7.637   0.752   5.828 -2.9607 -0.5200  0.0213
   47BDD    C1819027   7.495   0.765   5.862 -0.7648 -0.5139 -0.2090
   47BDD    C1919028   8.258   0.962   5.644  0.1501 -0.1032 -0.6185
   47BDD    C2019029   8.301   0.911   5.784 -0.6829  0.2587  0.2012
   47BDD    C2119030   8.458   0.919   5.783  1.3604 -0.8000 -0.9770
   47BDD    C2219031   8.518   0.826   5.686 -0.7593 -0.3350 -0.3914
   47BDD    C2319032   8.673   0.832   5.666  0.0586 -1.1196 -0.4588
   47BDD    C2419033   8.743   0.707   5.700 -0.6320  0.2343 -0.1864
   47BDD    C2519034   8.236   0.974   5.916 -0.4136  0.8807 -0.9820
   47BDD    C2619035   8.249   0.868   6.024 -0.2545  1.0631 -0.0275
   48TPM     C119036   8.060   1.522   5.540 -0.0846  0.8002 -1.0722
   48TPM     C219037   8.025   1.644   5.591 -0.1380  1.3351 -2.2968
   48TPM     C319038   8.134   1.737   5.599  0.1085  1.0353 -2.1200
   48TPM     C419039   8.252   1.687   5.554  0.3501  0.2717 -0.7607
   48TPM     S119040   8.235   1.517   5.497  0.2840 -0.1310  0.4109
   49BDTP    C119041   8.742   2.002   5.344 -0.0930 -0.1326 -0.0290
   49BDTP    C219042   8.661   2.103   5.405 -0.1791 -0.0756 -0.2390
   49BDTP    C319043   8.543   2.074   5.472 -0.1903 -0.0290 -0.2382
   49BDTP    C419044   8.503   1.939   5.481 -0.1128 -0.0390 -0.0206
   49BDTP    C519045   8.584   1.839   5.420 -0.0267 -0.0960  0.1893
   49BDTP    C619046   8.702   1.868   5.353 -0.0152 -0.1426  0.1886
   49BDTP    C719047   8.385   1.885   5.545 -0.1075  0.0025  0.0240
   49BDTP    C819048   8.374   1.750   5.536 -0.0224 -0.0203  0.2540
   49BDTP    S119049   8.511   1.673   5.445  0.0625 -0.0976  0.4469
   49BDTP    C919050   8.860   2.057   5.280 -0.0982 -0.1741 -0.0736
   49BDTP   C1019051   8.871   2.191   5.289 -0.1833 -0.1513 -0.3039
   49BDTP    S219052   8.733   2.268   5.380 -0.2684 -0.0741 -0.4965
   50FTM     S119053   8.305   2.218   5.499  0.1384  0.4752 -0.1807
   50FTM     C119054   8.286   2.329   5.639 -0.0791  0.0179  0.1571
   50FTM     C219055   8.400   2.330   5.714 -0.1416 -0.1106  0.2556
   50FTM     C319056   8.507   2.247   5.667 -0.0265  0.1329  0.0784
   50FTM     C419057   8.473   2.179   5.553  0.1291  0.4585 -0.1634
   50FTM     F119058   8.414   2.407   5.828 -0.3064 -0.4563  0.5118
   50FTM     C519059   8.157   2.398   5.663 -1.0855  0.3338  0.2838
   50FTM     C619060   8.067   2.382   5.795 -0.4867 -0.4139  0.5260
   50FTM     C719061   8.040   2.233   5.824 -1.2284  0.8121 -0.6797
   50FTM     C819062   7.935   2.164   5.742 -1.1190  0.7795 -0.1302
   50FTM     C919063   7.841   2.077   5.822 -0.5646 -1.1411  0.3517
   50FTM    C1019064   7.727   2.009   5.756  0.3078  0.2637  1.1570
   50FTM    C1119065   8.087   2.466   5.928  0.2805  0.0552 -0.6628
   50FTM    C1219066   8.081   2.606   5.926  0.0964 -0.0415 -0.1758
   51FTM     S119067   8.714   1.653   5.162 -0.0021  0.2861  0.2514
   51FTM     C119068   8.882   1.595   5.131  0.0441  0.6085 -0.1097
   51FTM     C219069   8.970   1.671   5.201  0.0253  0.5683 -0.0437
   51FTM     C319070   8.914   1.775   5.282 -0.0246  0.2910  0.2836
   51FTM     C419071   8.778   1.780   5.273 -0.0448  0.1131  0.4746
   51FTM     F119072   9.107   1.649   5.197  0.0525  0.7801 -0.2761
   51FTM     C519073   8.929   1.507   5.022  0.5116  0.3875  0.1658
   51FTM     C619074   8.827   1.408   4.963  0.0849 -0.4443  0.3166
   51FTM     C719075   8.789   1.423   4.817  0.9493  0.8903  1.0600
   51FTM     C819076   8.691   1.543   4.799 -0.4350 -0.4283  0.6736
   51FTM     C919077   8.754   1.686   4.778  0.4798 -1.3347  0.8667
   51FTM    C1019078   8.685   1.817   4.794  0.0177 -0.8997 -0.0630
   51FTM    C1119079   8.841   1.250   4.982 -0.3637 -1.0370 -0.4104
   51FTM    C1219080   8.973   1.184   4.993  0.5746  0.4776 -0.7383
   52TPM     C119081   8.962   2.283   5.213 -0.0510  0.0699 -0.8803
   52TPM     C219082   8.955   2.419   5.205 -0.3209  0.0550 -0.9212
   52TPM     C319083   9.052   2.477   5.116  0.0396  0.2696 -0.4022
   52TPM     C419084   9.133   2.386   5.055  0.5841  0.4479  0.0344
   52TPM     S119085   9.092   2.217   5.106  0.6848  0.3582 -0.1778
   53BDD     C119086   9.458   2.389   4.847 -0.0560 -0.6039 -0.6626
   53BDD     C219087   9.382   2.491   4.797 -0.0021 -0.4736 -0.4811
   53BDD     C319088   9.258   2.512   4.870  0.1707 -0.3074 -0.2291
   53BDD     C419089   9.241   2.425   4.974  0.2462 -0.3134 -0.2218
   53BDD     S119090   9.380   2.312   4.988  0.1059 -0.5274 -0.5302
   53BDD     C519091   9.420   2.574   4.681 -0.1075 -0.4972 -0.5327
   53BDD     C619092   9.160   2.616   4.833  0.2546 -0.1488 -0.0044
   53BDD     O119093   9.053   2.634   4.896  0.4039 -0.0055  0.2130
   53BDD     O219094   9.527   2.557   4.618 -0.2565 -0.6405 -0.7501
   53BDD     C719095   9.198   2.699   4.717  0.1495 -0.1724 -0.0560
   53BDD     C819096   9.322   2.679   4.644 -0.0234 -0.3386 -0.3080
   53BDD     C919097   9.339   2.766   4.540 -0.0985 -0.3327 -0.3153
   53BDD     S219098   9.200   2.879   4.525  0.0418 -0.1186 -0.0069
   53BDD    C1019099   9.122   2.801   4.667  0.2036 -0.0421  0.1253
   53BDD    C1119100   8.990   2.879   4.707 -0.4803 -0.3710 -0.6151
   53BDD    C1219101   8.860   2.895   4.619 -2.4373  0.0624  0.1893
   53BDD    C1319102   8.852   2.989   4.499  0.0083  0.3850 -0.5458
   53BDD    C1419103   8.855   2.963   4.337  0.5444 -0.0850  0.1228
   53BDD    C1519104   8.981   2.999   4.275 -1.5409  0.7850  0.4408
   53BDD    C1619105   8.993   2.974   4.125 -0.0275  0.8708  0.8138
   53BDD    C1719106   8.779   2.758   4.614 -0.0934 -1.1100 -1.0329
   53BDD    C1819107   8.749   2.684   4.754  0.4478  0.5005 -0.5310
   53BDD    C1919108   9.462   2.793   4.437  0.1560 -0.4437 -0.3726
   53BDD    C2019109   9.542   2.925   4.464  0.4995 -0.1263 -0.6421
   53BDD    C2119110   9.466   3.050   4.493  1.1238 -0.3091 -0.0440
   53BDD    C2219111   9.518   3.173   4.440 -1.0501  0.9340  0.2581
   53BDD    C2319112   9.431   3.276   4.384  0.7343  1.1322  1.0103
   53BDD    C2419113   9.478   3.303   4.252 -0.4353 -0.1056  1.5317
   53BDD    C2519114   9.661   2.909   4.538 -0.3322 -0.1583 -0.2673
   53BDD    C2619115   9.642   2.896   4.692  0.8570 -0.3012  0.6059
   54TPM     C119116   9.579   2.321   4.811  0.1938 -0.3275  0.1398
   54TPM     C219117   9.583   2.199   4.751  0.7210 -0.3743  0.2594
   54TPM     C319118   9.714   2.161   4.706  0.8841  0.1613  0.2691
   54TPM     C419119   9.810   2.254   4.732  0.4813  0.6165  0.1568
   54TPM     S119120   9.742   2.398   4.816 -0.1398  0.4023  0.0292
   55BDTP    C119121  10.416   2.215   4.604 -0.1941 -0.2604  0.0387
   55BDTP    C219122  10.417   2.293   4.723 -0.0296 -0.0117 -0.1240
   55BDTP    C319123  10.301   2.325   4.793  0.0515  0.2488 -0.1036
   55BDTP    C419124  10.178   2.276   4.743 -0.0339  0.2654  0.0864
   55BDTP    C519125  10.178   2.197   4.624 -0.1979  0.0167  0.2494
   55BDTP    C619126  10.294   2.166   4.555 -0.2787 -0.2437  0.2287
   55BDTP    C719127  10.046   2.295   4.798  0.0249  0.5116  0.1442
   55BDTP    C819128   9.947   2.236   4.727 -0.0861  0.4603  0.3399
   55BDTP    S119129  10.008   2.147   4.580 -0.2804  0.0932  0.4785
   55BDTP    C919130  10.549   2.196   4.550 -0.2525 -0.5065 -0.0190
   55BDTP   C1019131  10.648   2.255   4.621 -0.1416 -0.4553 -0.2143
   55BDTP    S219132  10.586   2.344   4.767  0.0532 -0.0883 -0.3531
   56FTM     S119133  10.450   2.431   5.010 -0.1002 -0.3156 -0.7959
   56FTM     C119134  10.368   2.553   5.114  0.4094  0.3317 -1.1331
   56FTM     C219135  10.237   2.564   5.078  0.3335  0.4151 -0.8389
   56FTM     C319136  10.194   2.480   4.970 -0.1152 -0.0088 -0.3451
   56FTM     C419137  10.295   2.403   4.922 -0.3915 -0.4309 -0.2585
   56FTM     F119138  10.148   2.650   5.141  0.6657  0.8805 -0.9991
   56FTM     C519139  10.440   2.626   5.238 -1.0527 -0.4165  0.5490
   56FTM     C619140  10.406   2.564   5.365 -0.6614 -0.4758 -0.5027
   56FTM     C719141  10.413   2.415   5.389  0.7957  0.3264 -0.1741
   56FTM     C819142  10.481   2.373   5.522 -0.8825 -0.1817  0.8487
   56FTM     C919143  10.633   2.364   5.521 -0.6807  0.2606 -0.0395
   56FTM    C1019144  10.675   2.309   5.660  0.6916 -0.4471  0.0051
   56FTM    C1119145  10.333   2.679   5.457 -0.4688  0.5401  0.1845
   56FTM    C1219146  10.284   2.821   5.394 -1.1396 -0.1335 -0.6912
   57FTM     S119147  10.168   1.943   4.408 -0.0276 -0.2786  0.5498
   57FTM     C119148  10.237   1.926   4.243  0.1051 -0.6371  0.6404
   57FTM     C219149  10.332   2.021   4.222  0.0014 -0.5740  0.4506
   57FTM     C319150  10.356   2.111   4.331 -0.1831 -0.2507  0.2283
   57FTM     C419151  10.277   2.084   4.439 -0.2215 -0.0602  0.2487
   57FTM     F119152  10.403   2.032   4.103  0.0675 -0.8051  0.4666
   57FTM     C519153  10.162   1.858   4.122  0.2927 -0.6083 -1.0198
   57FTM     C619154  10.024   1.924   4.067 -0.2202  1.0587 -0.9087
   57FTM     C719155  10.026   2.078   4.033  0.4793 -0.4078  0.1861
   57FTM     C819156  10.072   2.146   3.910  0.0282 -0.7294  0.0016
   57FTM     C919157  10.017   2.280   3.888 -0.1357  0.0749  1.2758
   57FTM    C1019158  10.048   2.326   3.737  2.5531 -1.3943  0.0539
   57FTM    C1119159   9.893   1.904   4.141 -0.3551  0.4767 -0.6546
   57FTM    C1219160   9.859   1.756   4.175  0.2159 -0.2178 -0.1220
   58TPM     C119161  10.786   2.282   4.570  0.1337 -0.5508  0.3734
   58TPM     C219162  10.885   2.353   4.631  0.0889 -0.7652  0.7010
   58TPM     C319163  11.012   2.345   4.564  0.1659 -0.6183  0.8277
   58TPM     C419164  11.010   2.267   4.452  0.2697 -0.2919  0.5968
   58TPM     S119165  10.846   2.198   4.422  0.2780 -0.1436  0.1986
   59BDD     C119166  11.356   2.319   4.274  0.4488  0.0587  0.3405
   59BDD     C219167  11.263   2.370   4.188  0.4258 -0.0091  0.3246
   59BDD     C319168  11.127   2.360   4.238  0.4520  0.1577  0.4314
   59BDD     C419169  11.119   2.301   4.362  0.4945  0.3503  0.5274
   59BDD     S119170  11.281   2.254   4.423  0.5043  0.3361  0.4903
   59BDD     C519171  11.295   2.430   4.057  0.3791 -0.2297  0.2108
   59BDD     C619172  11.010   2.409   4.162  0.4344  0.1200  0.4346
   59BDD     O119173  10.893   2.400   4.205  0.4570  0.2639  0.5267
   59BDD     O219174  11.412   2.439   4.014  0.3564 -0.3735  0.1186
   59BDD     C719175  11.043   2.469   4.031  0.3877 -0.1006  0.3207
   59BDD     C819176  11.178   2.480   3.981  0.3614 -0.2674  0.2139
   59BDD     C919177  11.187   2.538   3.858  0.3188 -0.4599  0.1181
   59BDD     S219178  11.025   2.585   3.796  0.3088 -0.4456  0.1551
   59BDD    C1019179  10.949   2.521   3.946  0.3648 -0.1683  0.3048
   59BDD    C1119180  10.782   2.553   3.961 -0.4603  1.3060  0.2988
   59BDD    C1219181  10.737   2.683   4.022  0.5184  0.2821  0.6693
   59BDD    C1319182  10.786   2.719   4.162 -1.3880 -0.8486 -0.8505
   59BDD    C1419183  10.750   2.857   4.239 -0.5792  0.8462 -0.1887
   59BDD    C1519184  10.891   2.927   4.287  0.6482 -0.3050  0.5433
   59BDD    C1619185  10.952   2.873   4.410 -0.4814  0.8372 -0.4458
   59BDD    C1719186  10.780   2.822   3.954  1.7402 -0.0771 -0.1600
   59BDD    C1819187  10.771   2.859   3.803  0.9368  0.5206  0.2605
   59BDD    C1919188  11.317   2.558   3.767  0.8146 -0.1701  0.6927
   59BDD    C2019189  11.339   2.712   3.722  1.0968  0.7935 -0.2025
   59BDD    C2119190  11.432   2.732   3.602 -0.1940 -1.0086  1.1557
   59BDD    C2219191  11.570   2.680   3.592 -0.3418  0.5511  0.0255
   59BDD    C2319192  11.596   2.587   3.453 -0.6171 -0.3242 -0.6503
   59BDD    C2419193  11.727   2.517   3.464 -0.4738  0.0789  0.1730
   59BDD    C2519194  11.359   2.806   3.848 -0.7575 -0.3964  1.0728
   59BDD    C2619195  11.482   2.809   3.926 -0.7460  1.7015 -0.1545
   60TPM     C119196  11.500   2.310   4.282  0.5670  0.9096  1.4532
   60TPM     C219197  11.582   2.418   4.267  1.1231  0.7574  3.0057
   60TPM     C319198  11.722   2.387   4.282  0.9685 -0.1531  2.7276
   60TPM     C419199  11.747   2.256   4.308  0.2944 -0.6952  0.9629
   60TPM     S119200  11.595   2.160   4.317 -0.2011 -0.0930 -0.4957
    1BDTP    C119201   9.917   8.546   3.571  0.0339 -0.4065 -0.0027
    1BDTP    C219202  10.048   8.587   3.609 -0.0861 -0.2730  0.2698
    1BDTP    C319203  10.121   8.524   3.708 -0.2253 -0.2017  0.4190
    1BDTP    C419204  10.062   8.414   3.774 -0.2472 -0.2644  0.2939
    1BDTP    C519205   9.931   8.372   3.736 -0.1276 -0.3974  0.0213
    1BDTP    C619206   9.858   8.436   3.636  0.0112 -0.4689 -0.1278
    1BDTP    C719207  10.119   8.332   3.879 -0.3816 -0.2101  0.4077
    1BDTP    C819208  10.037   8.233   3.922 -0.3684 -0.2956  0.2360
    1BDTP    S119209   9.878   8.228   3.835 -0.1848 -0.4561 -0.0941
    1BDTP    C919210   9.860   8.627   3.466  0.1676 -0.4604 -0.1165
    1BDTP   C1019211   9.941   8.727   3.423  0.1547 -0.3750  0.0553
    1BDTP    S219212  10.101   8.731   3.510 -0.0292 -0.2145  0.3853
    2FTM     S119213  10.309   8.561   3.915  0.2777 -0.1945  0.5216
    2FTM     C119214  10.484   8.555   3.875  0.3170 -0.1980  0.6932
    2FTM     C219215  10.501   8.554   3.740  0.4654  0.2952  0.7032
    2FTM     C319216  10.381   8.558   3.661  0.5555  0.6962  0.5811
    2FTM     C419217  10.269   8.562   3.739  0.4735  0.5037  0.4738
    2FTM     F119218  10.626   8.549   3.679  0.5288  0.4129  0.8238
    2FTM     C519219  10.592   8.543   3.982 -0.4015 -0.3420  0.2207
    2FTM     C619220  10.709   8.645   4.015  1.1542  0.7390  0.5665
    2FTM     C719221  10.766   8.746   3.916 -0.7323 -0.1509 -0.1568
    2FTM     C819222  10.661   8.836   3.835 -0.4397  0.0925 -0.5155
    2FTM     C919223  10.711   8.932   3.731 -0.0972  0.0221  0.4555
    2FTM    C1019224  10.672   8.861   3.604 -0.4796  0.5071 -0.3665
    2FTM    C1119225  10.749   8.632   4.160  0.8972 -0.0303  0.2628
    2FTM    C1219226  10.793   8.748   4.237  0.1566  0.0853  0.4820
    3FTM     S119227   9.563   8.460   3.628 -0.1536 -0.4000  0.4841
    3FTM     C119228   9.482   8.325   3.539  0.0478  0.3136 -0.8265
    3FTM     C219229   9.574   8.236   3.496  0.1299  0.5679 -1.1874
    3FTM     C319230   9.711   8.265   3.529  0.0434  0.2315 -0.4840
    3FTM     C419231   9.723   8.381   3.599 -0.1104 -0.2979  0.4461
    3FTM     F119232   9.541   8.122   3.424  0.2887  1.1203 -2.1764
    3FTM     C519233   9.337   8.358   3.508  0.0628  0.5846  1.1916
    3FTM     C619234   9.234   8.255   3.487  1.6825 -0.4368 -0.5555
    3FTM     C719235   9.186   8.180   3.604  0.0324 -0.3124  0.3085
    3FTM     C819236   9.121   8.257   3.726 -0.4364  0.3343 -1.7254
    3FTM     C919237   9.086   8.178   3.851  0.4862  0.4401  0.0062
    3FTM    C1019238   8.988   8.253   3.932  0.1050 -0.3603  0.6198
    3FTM    C1119239   9.207   8.217   3.341  0.6008 -0.9564 -1.4800
    3FTM    C1219240   9.059   8.193   3.307  1.0762 -0.9138  0.1865
    4TPM     C119241   9.912   8.832   3.318 -0.4352 -0.4631  0.8765
    4TPM     C219242  10.016   8.909   3.274 -0.3052 -0.2768  1.5007
    4TPM     C319243   9.977   9.015   3.185  0.0076 -0.1683  1.4907
    4TPM     C419244   9.843   9.019   3.160  0.1159 -0.2718  0.8589
    4TPM     S119245   9.755   8.889   3.248 -0.1712 -0.5162  0.2226
    5BDD     C119246   9.666   9.369   3.069  0.5094  0.1947  0.2925
    5BDD     C219247   9.742   9.334   2.961  0.4301  0.1736  0.2434
    5BDD     C319248   9.808   9.206   2.976  0.0832 -0.0324  0.0336
    5BDD     C419249   9.782   9.144   3.095 -0.0971 -0.1653 -0.0743
    5BDD     S119250   9.672   9.243   3.197  0.1552 -0.0420  0.0795
    5BDD     C519251   9.757   9.418   2.840  0.6704  0.3421  0.3875
    5BDD     C619252   9.896   9.149   2.871 -0.0572 -0.0894 -0.0525
    5BDD     O119253   9.953   9.038   2.884 -0.3567 -0.2670 -0.2334
    5BDD     O219254   9.700   9.529   2.827  0.9699  0.5193  0.5684
    5BDD     C719255   9.910   9.232   2.750  0.1833  0.0792  0.0917
    5BDD     C819256   9.844   9.361   2.735  0.5305  0.2849  0.3015
    5BDD     C919257   9.871   9.422   2.616  0.7110  0.4177  0.4093
    5BDD     S219258   9.981   9.323   2.514  0.4585  0.2943  0.2555
    5BDD    C1019259   9.987   9.198   2.642  0.1042  0.0579  0.0425
    5BDD    C1119260  10.077   9.074   2.606 -1.6469 -0.5498 -0.1104
    5BDD    C1219261  10.228   9.059   2.657 -0.3560 -0.0912  1.2812
    5BDD    C1319262  10.240   8.928   2.741  1.2640 -0.6462 -0.7303
    5BDD    C1419263  10.207   8.798   2.692  0.3863  1.1421 -0.4732
    5BDD    C1519264  10.186   8.685   2.795 -0.6401 -0.4057  1.0655
    5BDD    C1619265  10.104   8.556   2.775 -1.1864 -0.4111  0.6097
    5BDD    C1719266  10.313   9.175   2.709  1.8534 -0.7543 -1.0911
    5BDD    C1819267  10.301   9.305   2.623 -0.4853  1.3658 -0.1199
    5BDD    C1919268   9.800   9.537   2.553 -0.7201 -0.2668  0.0259
    5BDD    C2019269   9.708   9.501   2.432 -0.0949  0.3442  0.0541
    5BDD    C2119270   9.758   9.535   2.292 -1.1318  0.2005  0.2655
    5BDD    C2219271   9.884   9.455   2.229 -0.3442  0.9317 -1.9943
    5BDD    C2319272   9.834   9.325   2.178 -0.2681 -0.5363 -1.1085
    5BDD    C2419273   9.813   9.303   2.031 -0.0917  0.9428 -0.4882
    5BDD    C2519274   9.554   9.513   2.471  1.3321  0.8962  1.2026
    5BDD    C2619275   9.452   9.404   2.402 -0.2716 -0.2961  0.8903
    6TPM     C119276   9.566   9.462   3.088  0.3118 -0.0888 -0.0927
    6TPM     C219277   9.607   9.589   3.114  0.4885  0.0551 -1.0111
    6TPM     C319278   9.499   9.685   3.121  0.5512  0.1273 -1.0313
    6TPM     C419279   9.376   9.630   3.099  0.4222  0.0381 -0.1286
    6TPM     S119280   9.387   9.452   3.070  0.2101 -0.1450  0.8247
    7BDTP    C119281   8.934  10.003   2.853  0.3419  0.1547  0.0591
    7BDTP    C219282   8.880   9.873   2.830  0.2003  0.2162  0.0468
    7BDTP    C319283   8.945   9.757   2.869  0.0780  0.1404  0.0264
    7BDTP    C419284   9.069   9.769   2.933  0.0966 -0.0021  0.0175
    7BDTP    C519285   9.124   9.899   2.955  0.2382 -0.0629  0.0297
    7BDTP    C619286   9.059  10.015   2.917  0.3605  0.0124  0.0503
    7BDTP    C719287   9.155   9.663   2.982 -0.0133 -0.1013 -0.0032
    7BDTP    C819288   9.270   9.706   3.039  0.0386 -0.2322 -0.0073
    7BDTP    S119289   9.285   9.888   3.039  0.2334 -0.2480  0.0148
    7BDTP    C919290   8.848  10.109   2.804  0.4516  0.2542  0.0799
    7BDTP   C1019291   8.733  10.066   2.746  0.4001  0.3846  0.0840
    7BDTP    S219292   8.718   9.885   2.746  0.2047  0.4012  0.0620
    8FTM     S119293   8.734   9.560   2.812  0.1439  0.4004  0.2531
    8FTM     C119294   8.788   9.407   2.734  0.0145  0.2860  0.3881
    8FTM     C219295   8.923   9.410   2.715  0.0808 -0.0293  0.7926
    8FTM     C319296   8.991   9.528   2.759  0.2332 -0.1972  1.0169
    8FTM     C419297   8.905   9.619   2.813  0.2845 -0.0042  0.7762
    8FTM     F119298   8.993   9.305   2.657  0.0083 -0.1848  0.9839
    8FTM     C519299   8.706   9.299   2.671 -0.2494  0.4003 -0.2162
    8FTM     C619300   8.670   9.206   2.782  0.3305  0.0977  0.5400
    8FTM     C719301   8.733   9.058   2.785  0.9739  0.0745  0.9511
    8FTM     C819302   8.875   9.039   2.834  0.7868  0.4576  0.4576
    8FTM     C919303   8.888   8.883   2.829 -0.4200 -0.0691 -0.8415
    8FTM    C1019304   9.030   8.828   2.776  1.1117  0.3092  0.6128
    8FTM    C1119305   8.515   9.196   2.793  1.2215  0.7565 -0.4379
    8FTM    C1219306   8.417   9.318   2.790 -0.2390  0.0836  0.8277
    9FTM     S119307   9.127  10.231   3.094  0.1300  0.7964  0.4586
    9FTM     C119308   9.252  10.347   3.036 -0.5079  1.4420  0.3450
    9FTM     C219309   9.288  10.316   2.909 -0.8509  1.9650  0.1111
    9FTM     C319310   9.223  10.203   2.850 -0.6437  1.8976  0.0082
    9FTM     C419311   9.133  10.145   2.936 -0.1252  1.3029  0.1688
    9FTM     F119312   9.383  10.388   2.838 -1.3731  2.5363 -0.0238
    9FTM     C519313   9.268  10.476   3.113 -0.2503  0.4118 -0.9053
    9FTM     C619314   9.395  10.485   3.195 -1.0516  0.4743 -0.1049
    9FTM     C719315   9.530  10.478   3.109 -0.1357 -0.5969 -0.4035
    9FTM     C819316   9.566  10.577   2.997 -0.1388  0.1950  0.6609
    9FTM     C919317   9.715  10.616   2.970 -0.4417  0.1820  1.0103
    9FTM    C1019318   9.760  10.578   2.826  0.5653 -0.3485 -0.7150
    9FTM    C1119319   9.420  10.412   3.324 -0.0635 -0.1126 -0.4628
    9FTM    C1219320   9.431  10.265   3.349  1.0703  0.1930 -0.8958
   10TPM     C119321   8.632  10.157   2.688 -0.2830  0.2082 -0.7154
   10TPM     C219322   8.561  10.135   2.574 -0.3333  0.6609 -0.7771
   10TPM     C319323   8.471  10.242   2.540 -0.1554  0.9153 -0.4590
   10TPM     C419324   8.473  10.346   2.628  0.0308  0.6568 -0.1548
   10TPM     S119325   8.591  10.317   2.761 -0.0049  0.0675 -0.2472
   11BDD     C119326   8.151  10.554   2.610  0.2696 -0.0012  0.0005
   11BDD     C219327   8.251  10.641   2.575  0.2306  0.0317 -0.0285
   11BDD     C319328   8.384  10.582   2.583  0.2363  0.0060 -0.2858
   11BDD     C419329   8.383  10.452   2.624  0.2783 -0.0468 -0.4494
   11BDD     S119330   8.216  10.393   2.655  0.3147 -0.0670 -0.2926
   11BDD     C519331   8.228  10.780   2.532  0.1876  0.0882  0.1795
   11BDD     C619332   8.506  10.658   2.549  0.1991  0.0339 -0.3600
   11BDD     O119333   8.621  10.607   2.556  0.2036  0.0114 -0.5819
   11BDD     O219334   8.114  10.831   2.525  0.1829  0.1106  0.4015
   11BDD     C719335   8.483  10.797   2.507  0.1557  0.0906 -0.1521
   11BDD     C819336   8.351  10.856   2.499  0.1504  0.1163  0.1053
   11BDD     C919337   8.351  10.986   2.458  0.1075  0.1683  0.2688
   11BDD     S219338   8.518  11.045   2.426  0.0713  0.1887  0.1120
   11BDD    C1019339   8.583  10.884   2.472  0.1171  0.1230 -0.1811
   11BDD    C1119340   8.716  10.866   2.450 -1.7119  0.0961 -0.9287
   11BDD    C1219341   8.814  10.897   2.576  0.5062  1.2916 -0.1922
   11BDD    C1319342   8.935  10.810   2.582  0.1840  0.5553  0.1214
   11BDD    C1419343   9.017  10.786   2.714  0.1321 -1.3073  0.1171
   11BDD    C1519344   9.158  10.734   2.706 -1.0927  0.3633  0.9456
   11BDD    C1619345   9.232  10.790   2.814  0.1759 -0.0863 -1.1149
   11BDD    C1719346   8.812  11.033   2.622  1.3661  0.0788 -0.5594
   11BDD    C1819347   8.833  11.072   2.770 -0.2122 -0.0038 -0.2366
   11BDD    C1919348   8.261  11.101   2.409 -0.1349 -0.0162 -1.1777
   11BDD    C2019349   8.285  11.244   2.445 -0.8606  0.4058  0.7720
   11BDD    C2119350   8.325  11.291   2.599  0.0193 -0.8250 -0.4704
   11BDD    C2219351   8.355  11.454   2.609 -0.8833  0.2137 -2.5731
   11BDD    C2319352   8.333  11.504   2.743 -1.3093 -0.4640  0.9866
   11BDD    C2419353   8.351  11.653   2.733 -0.6763  0.1090 -0.4902
   11BDD    C2519354   8.178  11.332   2.369  1.3743  0.6791  0.2907
   11BDD    C2619355   8.158  11.332   2.213  0.9642  0.9096 -0.0006
   12TPM     C119356   8.002  10.534   2.645 -0.3499  0.2598 -0.3574
   12TPM     C219357   7.921  10.642   2.626 -1.0145 -0.2136 -0.2736
   12TPM     C319358   7.792  10.629   2.688 -0.8137 -0.9034  0.0190
   12TPM     C419359   7.775  10.512   2.755  0.0042 -0.9561  0.1581
   12TPM     S119360   7.921  10.407   2.744  0.5886 -0.1322 -0.0712
   13BDTP    C119361   7.251  10.332   3.051  0.0072 -0.0660  0.1986
   13BDTP    C219362   7.290  10.444   3.130 -0.0776  0.1800 -0.1059
   13BDTP    C319363   7.405  10.517   3.104 -0.0370  0.0839 -0.1965
   13BDTP    C419364   7.485  10.478   2.995  0.0930 -0.2711  0.0231
   13BDTP    C519365   7.446  10.366   2.916  0.1775 -0.5169  0.3276
   13BDTP    C619366   7.331  10.292   2.943  0.1371 -0.4213  0.4182
   13BDTP    C719367   7.608  10.538   2.948  0.1569 -0.4318 -0.0171
   13BDTP    C819368   7.663  10.477   2.840  0.2838 -0.7825  0.2392
   13BDTP    S119369   7.565  10.335   2.782  0.3403 -0.9582  0.5676
   13BDTP    C919370   7.127  10.271   3.098 -0.0567  0.0947  0.2388
   13BDTP   C1019371   7.073  10.332   3.206 -0.1837  0.4451 -0.0175
   13BDTP    S219372   7.170  10.474   3.264 -0.2403  0.6207 -0.3459
   14FTM     S119373   7.327  10.738   3.258 -0.1072 -0.0890 -0.2403
   14FTM     C119374   7.452  10.848   3.328 -0.3205 -0.0608  0.1013
   14FTM     C219375   7.576  10.806   3.291 -0.2220  0.1042  0.2429
   14FTM     C319376   7.582  10.689   3.208  0.0193  0.2165  0.0980
   14FTM     C419377   7.458  10.640   3.181  0.1088  0.1341 -0.1632
   14FTM     F119378   7.692  10.871   3.330 -0.3446  0.1638  0.5121
   14FTM     C519379   7.433  10.962   3.428 -0.2770  1.1895 -0.4985
   14FTM     C619380   7.416  11.096   3.369  0.3702 -1.0951  0.5047
   14FTM     C719381   7.268  11.149   3.385  0.1186 -0.5427  2.0347
   14FTM     C819382   7.209  11.179   3.529  0.2722  0.3078  1.6569
   14FTM     C919383   7.053  11.186   3.530 -0.2704  0.0278  0.2720
   14FTM    C1019384   7.004  11.186   3.684 -0.0739  0.6397 -0.8880
   14FTM    C1119385   7.505  11.150   3.254  0.9540  1.6593  0.2419
   14FTM    C1219386   7.645  11.146   3.249 -1.4172 -0.5452 -0.2412
   15FTM     S119387   7.317  10.014   2.855  0.1500 -0.1028  0.1747
   15FTM     C119388   7.260   9.991   2.685 -0.9373 -0.1858  0.5384
   15FTM     C219389   7.229  10.111   2.630 -1.4702 -0.2298  0.7313
   15FTM     C319390   7.247  10.226   2.714 -1.0751 -0.2022  0.6111
   15FTM     C419391   7.294  10.192   2.837 -0.2114 -0.1351  0.3165
   15FTM     F119392   7.182  10.124   2.500 -2.3473 -0.2971  1.0283
   15FTM     C519393   7.200   9.855   2.651 -0.1494  0.6392 -0.2637
   15FTM     C619394   7.282   9.718   2.685 -0.1924  0.1135  1.0250
   15FTM     C719395   7.400   9.707   2.591  0.9173 -0.1065 -0.2517
   15FTM     C819396   7.361   9.664   2.437 -0.2445 -1.0351 -0.6088
   15FTM     C919397   7.490   9.616   2.383 -1.0772 -0.4285 -0.1463
   15FTM    C1019398   7.501   9.549   2.253  0.2919 -0.5510 -0.2302
   15FTM    C1119399   7.327   9.688   2.826 -0.1247 -0.2436 -0.5903
   15FTM    C1219400   7.190   9.669   2.909 -1.0314  0.4777 -0.3082
   16TPM     C119401   6.949  10.301   3.275 -0.7589  0.3602  0.6491
   16TPM     C219402   6.829  10.367   3.272 -1.1860 -0.4046  0.2688
   16TPM     C319403   6.721  10.292   3.330 -0.9495 -1.1933 -0.2711
   16TPM     C419404   6.757  10.170   3.377 -0.3421 -1.0295 -0.3024
   16TPM     S119405   6.933  10.139   3.351 -0.0191  0.1421  0.3526
   17BDD     C119406   6.563   9.844   3.479 -0.1144  0.1225 -0.0959
   17BDD     C219407   6.529   9.937   3.573  0.0401  0.0367  0.0464
   17BDD     C319408   6.587  10.068   3.549  0.3098 -0.0381  0.2823
   17BDD     C419409   6.665  10.073   3.437  0.3571 -0.0085  0.3164
   17BDD     S119410   6.671   9.914   3.354  0.0672  0.1156  0.0558
   17BDD     C519411   6.441   9.909   3.689 -0.0547  0.0203 -0.0293
   17BDD     C619412   6.563  10.183   3.639  0.5108 -0.1369  0.4652
   17BDD     O119413   6.614  10.296   3.618  0.7434 -0.2012  0.6685
   17BDD     O219414   6.391   9.796   3.709 -0.2873  0.0849 -0.2327
   17BDD     C719415   6.476  10.155   3.754  0.4158 -0.1533  0.3895
   17BDD     C819416   6.417  10.024   3.778  0.1460 -0.0782  0.1536
   17BDD     C919417   6.339  10.019   3.890  0.0987 -0.1082  0.1195
   17BDD     S219418   6.333  10.178   3.973  0.3886 -0.2322  0.3801
   17BDD    C1019419   6.441  10.248   3.848  0.5702 -0.2391  0.5318
   17BDD    C1119420   6.465  10.395   3.874 -1.4772 -0.3383 -0.8050
   17BDD    C1219421   6.361  10.516   3.863  0.0072 -1.3814 -1.0227
   17BDD    C1319422   6.318  10.585   4.001 -0.6112  0.1089  1.2408
   17BDD    C1419423   6.406  10.703   4.029 -0.6930 -0.4376 -0.1582
   17BDD    C1519424   6.325  10.826   3.984 -0.5224 -0.3077  0.2104
   17BDD    C1619425   6.398  10.954   3.985 -0.0678  0.5843  0.5343
   17BDD    C1719426   6.245  10.521   3.758 -0.3514 -0.2236  0.1172
   17BDD    C1819427   6.265  10.439   3.627  0.5968 -0.6920  0.4315
   17BDD    C1919428   6.260   9.911   3.959 -0.0171  0.9816  0.2892
   17BDD    C2019429   6.103   9.918   3.980 -0.6382 -1.5640 -0.5638
   17BDD    C2119430   6.013  10.032   4.054 -0.7939  0.2600 -0.3921
   17BDD    C2219431   6.015  10.032   4.206 -1.1716  0.0422 -0.2911
   17BDD    C2319432   6.100  10.138   4.290  0.2291  0.9340 -0.0562
   17BDD    C2419433   6.034  10.267   4.314  0.9619  0.1256  1.1506
   17BDD    C2519434   6.030   9.787   4.018 -0.3128  0.2501 -0.4859
   17BDD    C2619435   6.058   9.653   3.937 -0.6685 -1.2900 -0.3335
   18TPM     C119436   6.540   9.701   3.457  0.0089 -0.6379  0.5362
   18TPM     C219437   6.635   9.604   3.470 -0.1394 -0.7024  1.2507
   18TPM     C319438   6.581   9.472   3.492 -0.4002 -0.6669  0.8463
   18TPM     C419439   6.445   9.468   3.496 -0.4509 -0.5754 -0.1766
   18TPM     S119440   6.373   9.632   3.472 -0.1710 -0.5264 -0.7126
   19BDTP    C119441   6.086   8.963   3.530 -0.3613  0.0031  0.4110
   19BDTP    C219442   5.992   9.066   3.500 -0.3936 -0.0715  0.2556
   19BDTP    C319443   6.028   9.200   3.492 -0.4702 -0.0525  0.2318
   19BDTP    C419444   6.162   9.234   3.514 -0.5168  0.0448  0.3673
   19BDTP    C519445   6.256   9.131   3.544 -0.4842  0.1192  0.5227
   19BDTP    C619446   6.220   8.997   3.553 -0.4078  0.1003  0.5466
   19BDTP    C719447   6.223   9.366   3.511 -0.5974  0.0817  0.3723
   19BDTP    C819448   6.356   9.367   3.537 -0.6266  0.1798  0.5221
   19BDTP    S119449   6.423   9.201   3.569 -0.5563  0.2382  0.6778
   19BDTP    C919450   6.025   8.832   3.534 -0.2807 -0.0343  0.4060
   19BDTP   C1019451   5.892   8.831   3.508 -0.2515 -0.1321  0.2562
   19BDTP    S219452   5.825   8.997   3.476 -0.3219 -0.1906  0.1006
   20FTM     S119453   5.917   9.437   3.605 -0.3469  0.3922 -0.1154
   20FTM     C119454   5.807   9.536   3.502 -0.1422  0.1553 -0.5656
   20FTM     C219455   5.789   9.475   3.382  0.1261 -0.1059 -0.4756
   20FTM     C319456   5.858   9.350   3.363  0.1874 -0.1371 -0.0614
   20FTM     C419457   5.931   9.315   3.472 -0.0415  0.1082  0.1738
   20FTM     F119458   5.710   9.528   3.281  0.3321 -0.3324 -0.7633
   20FTM     C519459   5.728   9.649   3.566  0.0494  0.4712  0.6449
   20FTM     C619460   5.732   9.788   3.507 -0.3501 -0.7529 -0.2105
   20FTM     C719461   5.754   9.906   3.614  0.6445  0.1710 -0.1703
   20FTM     C819462   5.645   9.945   3.733 -0.9666  0.2568  0.9525
   20FTM     C919463   5.538  10.023   3.646 -1.1040  0.4356  0.5515
   20FTM    C1019464   5.432  10.091   3.728 -0.1919 -1.1666 -1.0223
   20FTM    C1119465   5.746   9.819   3.344  1.1087 -1.3992 -0.3093
   20FTM    C1219466   5.826   9.944   3.309 -1.0133  0.8225  0.8356
   21FTM     S119467   6.327   8.872   3.791 -0.5046  0.0588  0.1828
   21FTM     C119468   6.428   8.726   3.762  0.1184  0.4977  0.1125
   21FTM     C219469   6.444   8.706   3.629  0.3134  0.7024  0.1041
   21FTM     C319470   6.380   8.801   3.542 -0.0020  0.5338  0.1510
   21FTM     C419471   6.313   8.897   3.612 -0.4535  0.1892  0.1965
   21FTM     F119472   6.518   8.601   3.576  0.7893  1.0540  0.0538
   21FTM     C519473   6.496   8.653   3.867 -0.3166 -0.5772  0.8005
   21FTM     C619474   6.486   8.496   3.893  0.6320  1.3805 -0.5708
   21FTM     C719475   6.590   8.442   3.991  0.0084  0.1860 -0.3615
   21FTM     C819476   6.687   8.336   3.942 -1.6118  1.2441  0.1500
   21FTM     C919477   6.836   8.376   3.971 -0.0200  0.2903  0.6215
   21FTM    C1019478   6.885   8.325   4.103  0.0823 -0.0688 -0.0444
   21FTM    C1119479   6.336   8.427   3.892 -1.2114 -0.1358 -0.2240
   21FTM    C1219480   6.220   8.434   3.791 -0.2844 -0.5837 -1.3587
   22TPM     C119481   5.798   8.728   3.497 -0.2294  0.5067  0.9400
   22TPM     C219482   5.699   8.723   3.404  0.5242 -0.0329  0.1291
   22TPM     C319483   5.603   8.618   3.427  0.8730 -0.5343 -0.6326
   22TPM     C419484   5.630   8.542   3.537  0.3853 -0.3774 -0.4025
   22TPM     S119485   5.779   8.599   3.622 -0.5598  0.4219  0.8035
   23BDD     C119486   5.366   8.259   3.513 -0.2843  0.3890 -0.4041
   23BDD     C219487   5.472   8.203   3.581 -0.2964  0.3860 -0.3877
   23BDD     C319488   5.578   8.297   3.610 -0.2439  0.3552 -0.4795
   23BDD     C419489   5.553   8.424   3.564 -0.1924  0.3349 -0.5645
   23BDD     S119490   5.394   8.434   3.482 -0.2062  0.3531 -0.5355
   23BDD     C519491   5.478   8.061   3.621 -0.3566  0.4115 -0.2871
   23BDD     C619492   5.701   8.259   3.682 -0.2465  0.3471 -0.4795
   23BDD     O119493   5.793   8.340   3.707 -0.2012  0.3204 -0.5585
   23BDD     O219494   5.386   7.980   3.596 -0.4019  0.4381 -0.2081
   23BDD     C719495   5.707   8.117   3.722 -0.3068  0.3726 -0.3788
   23BDD     C819496   5.601   8.022   3.693 -0.3593  0.4034 -0.2871
   23BDD     C919497   5.626   7.896   3.739 -0.4108  0.4234 -0.2021
   23BDD     S219498   5.785   7.886   3.821 -0.3970  0.4052 -0.2309
   23BDD    C1019499   5.812   8.061   3.789 -0.3190  0.3698 -0.3623
   23BDD    C1119500   5.955   8.094   3.787 -0.4036  0.4993 -0.0711
   23BDD    C1219501   6.013   8.137   3.926 -1.4213 -0.2477 -1.4796
   23BDD    C1319502   5.948   8.262   3.994 -0.1134  0.5382  0.8018
   23BDD    C1419503   6.006   8.340   4.115 -1.2857 -0.1518 -0.2923
   23BDD    C1519504   5.925   8.474   4.102 -1.0718  0.0096 -0.4680
   23BDD    C1619505   6.030   8.572   4.045  0.8258 -1.7144 -0.4097
   23BDD    C1719506   6.059   8.040   4.020  0.6460  1.3042 -0.1882
   23BDD    C1819507   6.123   7.904   3.996 -0.5979  1.5621 -0.0745
   23BDD    C1919508   5.549   7.764   3.738  0.7980 -0.4660 -1.4317
   23BDD    C2019509   5.462   7.721   3.851  0.1475 -0.0833 -0.6626
   23BDD    C2119510   5.482   7.575   3.912  0.4514 -0.2092 -0.7353
   23BDD    C2219511   5.608   7.503   3.885  0.1958  0.1875 -0.5774
   23BDD    C2319512   5.660   7.406   3.985 -0.4939 -0.0675 -0.9606
   23BDD    C2419513   5.756   7.474   4.086 -0.7886 -0.6316  0.2968
   23BDD    C2519514   5.318   7.775   3.857 -0.7172 -1.5720 -1.1200
   23BDD    C2619515   5.234   7.733   3.746  0.0198  0.4329 -0.2836
   24TPM     C119516   5.232   8.213   3.487 -0.2774 -0.1362 -0.0477
   24TPM     C219517   5.194   8.105   3.412 -0.2491 -0.8929  0.9839
   24TPM     C319518   5.051   8.093   3.398 -0.2580 -1.2643  1.3680
   24TPM     C419519   4.981   8.190   3.462 -0.2930 -0.7913  0.6293
   24TPM     S119520   5.090   8.307   3.545 -0.3176  0.1677 -0.6185
   25BDTP    C119521   4.362   8.262   3.521 -0.0138  0.2491  0.3384
   25BDTP    C219522   4.379   8.122   3.500 -0.0380  0.1953  0.6591
   25BDTP    C319523   4.504   8.063   3.481 -0.0480  0.1321  0.7913
   25BDTP    C419524   4.617   8.146   3.485 -0.0341  0.1218  0.5983
   25BDTP    C519525   4.600   8.286   3.507 -0.0099  0.1757  0.2776
   25BDTP    C619526   4.476   8.345   3.525  0.0002  0.2388  0.1456
   25BDTP    C719527   4.756   8.108   3.469 -0.0408  0.0609  0.6825
   25BDTP    C819528   4.843   8.211   3.477 -0.0230  0.0665  0.4436
   25BDTP    S119529   4.762   8.371   3.507  0.0045  0.1497  0.0783
   25BDTP    C919530   4.224   8.300   3.537 -0.0070  0.3102  0.2543
   25BDTP   C1019531   4.136   8.197   3.529 -0.0248  0.3047  0.4932
   25BDTP    S219532   4.218   8.037   3.499 -0.0524  0.2209  0.8584
   26FTM     S119533   4.635   7.854   3.334  0.2518  0.2960 -0.2924
   26FTM     C119534   4.569   7.689   3.362  0.4542  0.3065  0.2580
   26FTM     C219535   4.463   7.696   3.447  0.8197  0.3853  0.7167
   26FTM     C319536   4.428   7.826   3.494  0.9614  0.4411  0.6695
   26FTM     C419537   4.509   7.923   3.443  0.6955  0.4036  0.1578
   26FTM     F119538   4.392   7.584   3.488  1.0477  0.4116  1.2069
   26FTM     C519539   4.598   7.574   3.262  0.7719 -0.8162 -0.6789
   26FTM     C619540   4.711   7.473   3.259 -0.6674  0.5310 -0.5110
   26FTM     C719541   4.828   7.502   3.345  0.8254  0.5101  0.0609
   26FTM     C819542   4.938   7.569   3.272  0.7000  0.9247 -0.4803
   26FTM     C919543   5.027   7.634   3.367 -1.0723  0.4149  0.6049
   26FTM    C1019544   5.093   7.761   3.298  0.2120 -0.1931 -0.0878
   26FTM    C1119545   4.695   7.318   3.233 -0.2290  1.3398  0.0294
   26FTM    C1219546   4.634   7.236   3.349  1.3044  0.5052  0.2258
   27FTM     S119547   4.367   8.575   3.632 -1.2240  0.2063 -0.1598
   27FTM     C119548   4.335   8.709   3.516  0.1737  0.5042 -0.2405
   27FTM     C219549   4.383   8.676   3.394  1.3276  0.6611  0.1507
   27FTM     C319550   4.447   8.548   3.383  1.1983  0.5615  0.5281
   27FTM     C419551   4.447   8.481   3.501 -0.0970  0.3208  0.4223
   27FTM     F119552   4.373   8.760   3.284  2.5697  0.9034  0.1903
   27FTM     C519553   4.253   8.820   3.586  1.9791  0.0430  0.5268
   27FTM     C619554   4.325   8.951   3.605 -0.4288  0.3149 -0.5611
   27FTM     C719555   4.305   9.016   3.733 -0.5747 -0.0007  0.0409
   27FTM     C819556   4.340   8.933   3.857  0.0918 -1.2027  1.7154
   27FTM     C919557   4.486   8.914   3.893  2.1492  1.1423  0.6551
   27FTM    C1019558   4.519   8.780   3.956  0.6171 -0.0395 -0.9393
   27FTM    C1119559   4.366   9.035   3.479  0.2746 -0.2214  0.4252
   27FTM    C1219560   4.467   9.137   3.467  0.3319 -0.9462  0.2834
   28TPM     C119561   3.981   8.186   3.521  0.6388  0.5669 -0.5544
   28TPM     C219562   3.907   8.076   3.490  0.8664  0.2570 -0.0398
   28TPM     C319563   3.765   8.095   3.510  0.9075 -0.3228  0.9191
   28TPM     C419564   3.732   8.218   3.556  0.7114 -0.4556  1.1355
   28TPM     S119565   3.878   8.322   3.579  0.4576  0.1465  0.1374
   29BDD     C119566   3.337   8.207   3.588 -0.1387  0.3333 -0.1655
   29BDD     C219567   3.375   8.318   3.658 -0.1503  0.2661 -0.0516
   29BDD     C319568   3.518   8.340   3.658 -0.1439  0.2244  0.0578
   29BDD     C419569   3.588   8.245   3.589 -0.1274  0.2601  0.0257
   29BDD     S119570   3.479   8.122   3.518 -0.1189  0.3483 -0.1438
   29BDD     C519571   3.280   8.409   3.727 -0.1678  0.2382 -0.0390
   29BDD     C619572   3.581   8.455   3.727 -0.1543  0.1509  0.1902
   29BDD     O119573   3.705   8.474   3.727 -0.1487  0.1149  0.2845
   29BDD     O219574   3.157   8.389   3.727 -0.1733  0.2744 -0.1333
   29BDD     C719575   3.487   8.545   3.796 -0.1717  0.1230  0.2028
   29BDD     C819576   3.343   8.523   3.796 -0.1782  0.1647  0.0934
   29BDD     C919577   3.273   8.618   3.865 -0.1946  0.1290  0.1255
   29BDD     S219578   3.383   8.742   3.936 -0.2032  0.0410  0.2950
   29BDD    C1019579   3.524   8.657   3.866 -0.1834  0.0560  0.3166
   29BDD    C1119580   3.653   8.727   3.902  0.1993 -0.0262  0.2285
   29BDD    C1219581   3.695   8.833   3.794 -0.9603  2.0599  0.5376
   29BDD    C1319582   3.721   8.784   3.649  0.1423  0.4814  0.6122
   29BDD    C1419583   3.745   8.856   3.522  1.2557 -0.3371  0.1223
   29BDD    C1519584   3.646   8.781   3.433  0.2228  1.2359  0.7816
   29BDD    C1619585   3.666   8.618   3.380  0.6846 -1.2387  0.1229
   29BDD    C1719586   3.802   8.934   3.813  0.1969 -0.6714 -1.2342
   29BDD    C1819587   3.802   9.030   3.934  1.2752  1.1088  0.7195
   29BDD    C1919588   3.138   8.649   3.885  0.7067 -0.9130  0.1873
   29BDD    C2019589   3.073   8.775   3.799 -1.4341  0.7531  0.1522
   29BDD    C2119590   2.918   8.774   3.799  0.0933  0.6356  0.3127
   29BDD    C2219591   2.818   8.779   3.908 -0.2570 -0.3219 -0.5730
   29BDD    C2319592   2.700   8.872   3.869  0.7408  0.8324  0.9132
   29BDD    C2419593   2.642   8.967   3.968  1.5064  0.1191  0.7135
   29BDD    C2519594   3.134   8.820   3.667 -2.2966 -0.1188  0.2802
   29BDD    C2619595   3.088   8.942   3.595 -0.3308 -0.5022 -0.6398
   30TPM     C119596   3.211   8.145   3.565  0.0760  0.2777 -0.1751
   30TPM     C219597   3.127   8.197   3.471  0.0573  0.3099 -0.1403
   30TPM     C319598   2.988   8.174   3.499  0.0724  0.0708 -0.2553
   30TPM     C419599   2.965   8.105   3.614  0.1026 -0.1435 -0.3777
   30TPM     S119600   3.120   8.063   3.697  0.1145 -0.0600 -0.3570
   31BDTP    C119601   2.434   7.938   3.905 -0.0058 -0.1903  0.5363
   31BDTP    C219602   2.533   7.914   4.004  0.0374 -0.2130  0.4876
   31BDTP    C319603   2.668   7.936   3.981  0.0406 -0.3321  0.3912
   31BDTP    C419604   2.707   7.983   3.855 -0.0007 -0.4331  0.3403
   31BDTP    C519605   2.608   8.007   3.756 -0.0439 -0.4103  0.3889
   31BDTP    C619606   2.473   7.985   3.778 -0.0471 -0.2916  0.4853
   31BDTP    C719607   2.841   8.013   3.808 -0.0061 -0.5643  0.2402
   31BDTP    C819608   2.847   8.057   3.680 -0.0507 -0.6402  0.2117
   31BDTP    S119609   2.684   8.067   3.601 -0.0920 -0.5562  0.3076
   31BDTP    C919610   2.300   7.908   3.952 -0.0004 -0.0590  0.6363
   31BDTP   C1019611   2.294   7.864   4.079  0.0441  0.0169  0.6647
   31BDTP    S219612   2.457   7.853   4.159  0.0856 -0.0670  0.5687
   32FTM     S119613   2.783   8.109   4.182 -0.4870 -0.1214  0.4289
   32FTM     C119614   2.909   8.030   4.284 -0.1610  0.0876  0.1896
   32FTM     C219615   2.923   7.900   4.247  0.3667  0.2470 -0.1947
   32FTM     C319616   2.839   7.854   4.141  0.5454  0.2173 -0.3237
   32FTM     C419617   2.758   7.953   4.094  0.1413  0.0289 -0.0283
   32FTM     F119618   3.014   7.814   4.309  0.7192  0.4296 -0.4528
   32FTM     C519619   2.943   8.111   4.398  0.6891  0.2459  0.6654
   32FTM     C619620   3.096   8.137   4.404 -0.4848  1.1144 -0.3720
   32FTM     C719621   3.148   8.040   4.512  0.6954 -0.1370  0.3906
   32FTM     C819622   3.098   8.037   4.653 -0.2439  0.5543 -0.6423
   32FTM     C919623   3.117   8.128   4.781 -0.2615  0.0907 -0.1806
   32FTM    C1019624   3.063   8.259   4.772  0.4173  0.9656 -1.2920
   32FTM    C1119625   3.193   8.136   4.279  0.4106 -0.5112 -0.4318
   32FTM    C1219626   3.165   8.204   4.140 -1.7118  0.2129 -1.8270
   33FTM     S119627   2.263   7.895   3.585  0.1732 -0.1321 -0.5541
   33FTM     C119628   2.179   8.032   3.505 -0.1181  0.0521  0.0597
   33FTM     C219629   2.236   8.150   3.544  0.0261 -0.0365  0.1183
   33FTM     C319630   2.345   8.140   3.636  0.3638 -0.2472 -0.3005
   33FTM     C419631   2.374   8.011   3.668  0.4820 -0.3226 -0.6925
   33FTM     F119632   2.192   8.273   3.498 -0.1391  0.0687  0.5546
   33FTM     C519633   2.083   8.003   3.388  0.1544  0.0843 -1.4233
   33FTM     C619634   2.045   7.864   3.356  0.0835  1.3401 -0.1819
   33FTM     C719635   2.086   7.797   3.231 -1.0461 -1.0069 -0.5950
   33FTM     C819636   2.217   7.710   3.217 -1.5771 -0.7902  0.0203
   33FTM     C919637   2.371   7.749   3.192 -0.1093  0.8290  0.3778
   33FTM    C1019638   2.387   7.896   3.169  0.5610  0.3875 -1.9414
   33FTM    C1119639   1.898   7.801   3.388 -1.1771  0.0361  0.2617
   33FTM    C1219640   1.779   7.874   3.319  0.6824 -0.0807  0.5787
   34TPM     C119641   2.199   7.757   4.119 -0.2131 -0.7214  0.1435
   34TPM     C219642   2.233   7.642   4.184 -0.0668 -0.5597  0.3585
   34TPM     C319643   2.120   7.572   4.240  0.0635 -0.3961  0.8353
   34TPM     C419644   2.001   7.634   4.218  0.0165 -0.4333  0.9839
   34TPM     S119645   2.021   7.786   4.124 -0.1976 -0.6795  0.5297
   35BDD     C119646   1.670   7.675   4.424  0.3511  0.1282  0.2027
   35BDD     C219647   1.702   7.543   4.440  0.1689  0.0752  0.1308
   35BDD     C319648   1.824   7.505   4.371 -0.0114 -0.1118 -0.0900
   35BDD     C419649   1.883   7.608   4.305  0.0360 -0.1989 -0.1834
   35BDD     S119650   1.791   7.761   4.323  0.3095 -0.0527 -0.0012
   35BDD     C519651   1.621   7.447   4.518  0.1538  0.1948  0.2625
   35BDD     C619652   1.877   7.367   4.375 -0.2241 -0.1973 -0.2006
   35BDD     O119653   1.982   7.334   4.316 -0.3796 -0.3586 -0.3911
   35BDD     O219654   1.515   7.481   4.577  0.3092  0.3561  0.4530
   35BDD     C719655   1.796   7.271   4.453 -0.2392 -0.0778 -0.0690
   35BDD     C819656   1.674   7.310   4.521 -0.0589  0.1093  0.1520
   35BDD     C919657   1.614   7.206   4.588 -0.1063  0.1965  0.2452
   35BDD     S219658   1.707   7.054   4.570 -0.3798  0.0502  0.0629
   35BDD    C1019659   1.828   7.139   4.468 -0.4214 -0.1305 -0.1409
   35BDD    C1119660   1.968   7.074   4.456 -0.0039 -0.8389  0.4212
   35BDD    C1219661   1.991   6.952   4.365  1.0954 -0.2400 -0.4157
   35BDD    C1319662   1.997   6.811   4.431  0.2770 -1.0613 -0.4476
   35BDD    C1419663   2.143   6.767   4.445  0.2797  0.9357 -1.1176
   35BDD    C1519664   2.212   6.774   4.578 -0.1644 -0.3196 -0.9885
   35BDD    C1619665   2.361   6.745   4.552 -0.0100 -1.1103 -0.2045
   35BDD    C1719666   2.016   6.973   4.223 -0.1918  1.3829  0.5598
   35BDD    C1819667   1.949   6.886   4.127 -0.3745 -0.1200 -0.2037
   35BDD    C1919668   1.475   7.185   4.654  0.5557  0.5259  2.3012
   35BDD    C2019669   1.342   7.148   4.572 -1.2902  0.3102 -0.1969
   35BDD    C2119670   1.327   6.997   4.547  1.1342  1.5136  0.0578
   35BDD    C2219671   1.283   6.891   4.653  0.2485  1.0933  0.5402
   35BDD    C2319672   1.368   6.762   4.681  0.1214 -1.1544 -0.7914
   35BDD    C2419673   1.514   6.752   4.663 -0.2254  0.1280 -0.3753
   35BDD    C2519674   1.303   7.243   4.462 -0.5593 -0.1866 -0.3988
   35BDD    C2619675   1.357   7.224   4.324  0.5428  1.3665  1.3061
   36TPM     C119676   1.539   7.745   4.432  0.3534 -0.0450 -0.4588
   36TPM     C219677   1.529   7.788   4.561  0.7003 -0.0004 -0.4452
   36TPM     C319678   1.446   7.905   4.576  0.9748  0.1769 -0.3005
   36TPM     C419679   1.393   7.951   4.459  0.8374  0.2676 -0.2035
   36TPM     S119680   1.443   7.848   4.320  0.3466  0.1350 -0.2883
   37BDTP    C119681   1.068   8.485   4.375 -0.2083  0.3312  0.2565
   37BDTP    C219682   1.141   8.473   4.253 -0.2641  0.4141  0.2153
   37BDTP    C319683   1.228   8.368   4.227 -0.3379  0.3881  0.0707
   37BDTP    C419684   1.243   8.269   4.326 -0.3577  0.2754 -0.0385
   37BDTP    C519685   1.170   8.281   4.448 -0.3019  0.1926  0.0026
   37BDTP    C619686   1.083   8.386   4.474 -0.2281  0.2184  0.1474
   37BDTP    C719687   1.328   8.152   4.322 -0.4305  0.2288 -0.1954
   37BDTP    C819688   1.321   8.075   4.433 -0.4320  0.1161 -0.2728
   37BDTP    S119689   1.208   8.141   4.559 -0.3414  0.0534 -0.1581
   37BDTP    C919690   0.984   8.603   4.380 -0.1355  0.3779  0.4132
   37BDTP   C1019691   0.990   8.679   4.268 -0.1340  0.4907  0.4907
   37BDTP    S219692   1.103   8.613   4.142 -0.2246  0.5529  0.3762
   38FTM     S119693   1.467   8.424   4.073 -0.4931 -1.1347  0.4893
   38FTM     C119694   1.466   8.372   3.901 -0.7697  0.4984 -0.0370
   38FTM     C219695   1.351   8.306   3.873 -1.0554  1.2209 -0.6489
   38FTM     C319696   1.258   8.292   3.982 -1.0762  0.5648 -0.7434
   38FTM     C419697   1.305   8.349   4.096 -0.7972 -0.7018 -0.1857
   38FTM     F119698   1.322   8.254   3.748 -1.3152  2.5198 -1.1597
   38FTM     C519699   1.575   8.364   3.799  1.4364  0.6857 -0.3155
   38FTM     C619700   1.617   8.481   3.730 -0.1530 -1.2405  0.9933
   38FTM     C719701   1.528   8.503   3.597 -0.2746  0.0571 -0.7666
   38FTM     C819702   1.459   8.632   3.567 -0.1177 -0.0907  0.3606
   38FTM     C919703   1.423   8.716   3.683 -0.3941 -1.6666  0.0104
   38FTM    C1019704   1.419   8.871   3.646 -0.2127  0.5547  0.1984
   38FTM    C1119705   1.764   8.505   3.689  0.1735  1.3809 -0.6652
   38FTM    C1219706   1.862   8.526   3.808  0.3406  0.2353  0.3527
   39FTM     S119707   1.143   8.365   4.749  0.1288  0.3348 -0.3258
   39FTM     C119708   1.021   8.449   4.852  0.3409  0.2603 -0.0096
   39FTM     C219709   0.914   8.485   4.776 -0.1410 -0.3214  0.3844
   39FTM     C319710   0.919   8.449   4.638 -0.6912 -0.7346  0.4627
   39FTM     C419711   1.035   8.384   4.606 -0.6286 -0.4606  0.1174
   39FTM     F119712   0.804   8.552   4.828 -0.1125 -0.5138  0.6976
   39FTM     C519713   1.056   8.453   4.995 -1.8516 -0.3402 -0.9605
   39FTM     C619714   0.955   8.479   5.095 -0.3391 -1.1493 -0.2830
   39FTM     C719715   0.829   8.408   5.093 -0.0031  2.0143 -0.2698
   39FTM     C819716   0.834   8.246   5.105  0.1797  1.1809  0.6160
   39FTM     C919717   0.693   8.178   5.099  0.5538 -0.0408 -1.3894
   39FTM    C1019718   0.606   8.156   5.229 -0.8513  0.3841 -0.8104
   39FTM    C1119719   0.951   8.642   5.116 -0.6442  1.7522 -0.7427
   39FTM    C1219720   0.818   8.710   5.184  0.5514 -0.4626  0.2137
   40TPM     C119721   0.938   8.813   4.251 -0.7427 -0.2788 -0.4930
   40TPM     C219722   0.806   8.845   4.248 -0.6055  0.4718  0.5467
   40TPM     C319723   0.780   8.980   4.207 -0.1480  0.8445  1.4398
   40TPM     C419724   0.893   9.052   4.179  0.0638  0.3777  1.0810
   40TPM     S119725   1.041   8.952   4.201 -0.3012 -0.5763 -0.4240
   41BDD     C119726   0.949   9.329   3.905 -0.0332  0.1388 -0.0574
   41BDD     C219727   0.839   9.372   3.974 -0.0536  0.1559 -0.1003
   41BDD     C319728   0.800   9.283   4.083  0.0303  0.2813  0.0328
   41BDD     C419729   0.882   9.174   4.095  0.1134  0.3588  0.1748
   41BDD     S119730   1.012   9.174   3.971  0.0924  0.2792  0.1523
   41BDD     C519731   0.765   9.496   3.943 -0.1509  0.0575 -0.2649
   41BDD     C619732   0.685   9.310   4.170  0.0250  0.3209  0.0136
   41BDD     O119733   0.652   9.234   4.264  0.0973  0.4292  0.1280
   41BDD     O219734   0.798   9.572   3.850 -0.2232 -0.0508 -0.3796
   41BDD     C719735   0.611   9.434   4.139 -0.0724  0.2222 -0.1510
   41BDD     C819736   0.649   9.523   4.031 -0.1563  0.0966 -0.2840
   41BDD     C919737   0.568   9.632   4.019 -0.2394  0.0198 -0.4263
   41BDD     S219738   0.438   9.632   4.142 -0.2184  0.0991 -0.4037
   41BDD    C1019739   0.501   9.477   4.208 -0.0928  0.2394 -0.1940
   41BDD    C1119740   0.421   9.414   4.324 -0.4428  0.2027  0.8286
   41BDD    C1219741   0.386   9.484   4.450 -1.2165 -0.5269  0.4752
   41BDD    C1319742   0.281   9.406   4.532  1.0659  0.5304  0.6218
   41BDD    C1419743   0.152   9.350   4.460  0.5136 -0.7952  0.9149
   41BDD    C1519744   0.154   9.226   4.380 -0.8243  0.5801  0.4255
   41BDD    C1619745   0.022   9.184   4.311 -0.2468  0.3775 -0.9247
   41BDD    C1719746   0.480   9.594   4.515 -0.2216 -0.2046 -1.6181
   41BDD    C1819747   0.589   9.548   4.615  1.3198  0.4420 -0.2589
   41BDD    C1919748   0.525   9.725   3.909  0.1575  0.3682  1.4658
   41BDD    C2019749   0.554   9.880   3.903  0.2501  1.7968  1.2092
   41BDD    C2119750   0.473   9.981   3.974 -0.4935  0.0612 -0.4440
   41BDD    C2219751   0.461   9.967   4.128  0.2237  0.1281 -0.4999
   41BDD    C2319752   0.339  10.051   4.158 -0.9898  1.6109  2.4391
   41BDD    C2419753   0.210   9.974   4.174 -0.2340  1.3624  0.0046
   41BDD    C2519754   0.697   9.920   3.878 -1.0052 -0.9113 -0.1597
   41BDD    C2619755   0.770   9.958   4.007 -0.1763 -0.4139 -0.4766
   42TPM     C119756   1.024   9.374   3.796  0.3663 -0.1289  0.9179
   42TPM     C219757   1.078   9.499   3.786  0.3180 -0.1090  0.9115
   42TPM     C319758   1.166   9.516   3.673 -0.2195  0.1159  0.5178
   42TPM     C419759   1.179   9.403   3.597 -0.5812  0.2670  0.2241
   42TPM     S119760   1.081   9.267   3.662 -0.2685  0.1364  0.4234
   43BDTP    C119761   1.629   9.314   3.164 -0.1066 -0.3502 -0.2173
   43BDTP    C219762   1.618   9.455   3.174 -0.1107 -0.3564 -0.1298
   43BDTP    C319763   1.526   9.517   3.257 -0.0343 -0.4103 -0.0045
   43BDTP    C419764   1.441   9.436   3.334  0.0502 -0.4601  0.0367
   43BDTP    C519765   1.452   9.294   3.324  0.0543 -0.4535 -0.0508
   43BDTP    C619766   1.544   9.232   3.241 -0.0221 -0.3998 -0.1761
   43BDTP    C719767   1.338   9.477   3.427  0.1385 -0.5202  0.1618
   43BDTP    C819768   1.272   9.375   3.487  0.2078 -0.5586  0.1723
   43BDTP    S119769   1.331   9.211   3.433  0.1710 -0.5240  0.0252
   43BDTP    C919770   1.732   9.272   3.071 -0.1949 -0.2899 -0.3423
   43BDTP   C1019771   1.798   9.375   3.011 -0.2642 -0.2515 -0.3528
   43BDTP    S219772   1.739   9.538   3.065 -0.2274 -0.2860 -0.2058
   44FTM     S119773   1.627   9.801   3.281  0.0784 -0.2101  0.3546
   44FTM     C119774   1.515   9.917   3.203  0.2370 -0.2528  0.0623
   44FTM     C219775   1.403   9.852   3.159  0.0042 -0.1624  0.5099
   44FTM     C319776   1.399   9.711   3.184 -0.3042 -0.0572  1.0933
   44FTM     C419777   1.510   9.667   3.248 -0.3077 -0.0672  1.0925
   44FTM     F119778   1.299   9.917   3.094  0.0566 -0.1698  0.4177
   44FTM     C519779   1.517  10.070   3.220  1.0840 -0.3515 -1.6111
   44FTM     C619780   1.562  10.171   3.111 -0.1625 -0.3837 -0.0803
   44FTM     C719781   1.511  10.139   2.968  0.1429 -1.5291 -0.9718
   44FTM     C819782   1.373  10.194   2.947  1.8065 -0.7176  0.7786
   44FTM     C919783   1.317  10.338   2.948 -1.0278 -0.7532 -0.4659
   44FTM    C1019784   1.289  10.443   3.058  0.3376  0.3591  0.6817
   44FTM    C1119785   1.712  10.181   3.115  0.0604 -1.6210 -0.2770
   44FTM    C1219786   1.738  10.317   3.167  0.2334 -1.1354  0.9254
   45FTM     S119787   1.443   8.984   3.119  0.3325 -0.6145  0.5205
   45FTM     C119788   1.563   8.850   3.124  0.8134 -0.1690  1.2771
   45FTM     C219789   1.670   8.886   3.200  0.6991  0.6461  1.0637
   45FTM     C319790   1.666   9.018   3.257  0.2416  0.9665  0.3168
   45FTM     C419791   1.551   9.084   3.224 -0.0024  0.3768 -0.0538
   45FTM     F119792   1.779   8.803   3.222  1.0019  1.1513  1.5320
   45FTM     C519793   1.551   8.738   3.014  0.1402  0.3687 -0.6645
   45FTM     C619794   1.517   8.596   3.058 -0.7134 -0.2613  0.5709
   45FTM     C719795   1.369   8.588   3.104 -0.2750  0.9500  0.0627
   45FTM     C819796   1.300   8.445   3.078  0.3563 -0.0479 -0.0530
   45FTM     C919797   1.240   8.425   2.949 -0.2163  0.4863 -0.3579
   45FTM    C1019798   1.153   8.529   2.871 -1.8568  0.6378 -0.5393
   45FTM    C1119799   1.612   8.523   3.136  0.3997  1.3512  0.3361
   45FTM    C1219800   1.696   8.452   3.032  0.9710  0.3142  0.2237
   46TPM     C119801   1.909   9.348   2.906  0.4681  0.0349 -0.1660
   46TPM     C219802   2.037   9.394   2.903  0.7066 -0.5836  0.0354
   46TPM     C319803   2.106   9.364   2.780  0.7656 -0.9382  0.1532
   46TPM     C419804   2.031   9.295   2.690  0.5720 -0.5900  0.0417
   46TPM     S119805   1.866   9.261   2.754  0.2983  0.2187 -0.2229
   47BDD     C119806   2.208   9.007   2.486 -0.1536  0.0105 -0.0622
   47BDD     C219807   2.249   9.124   2.428 -0.2092  0.0241 -0.0743
   47BDD     C319808   2.194   9.242   2.492 -0.3648  0.0010 -0.1637
   47BDD     C419809   2.112   9.214   2.598 -0.4256 -0.0294 -0.2185
   47BDD     S119810   2.099   9.037   2.625 -0.2922 -0.0319 -0.1619
   47BDD     C519811   2.339   9.131   2.311 -0.1212  0.0587 -0.0042
   47BDD     C619812   2.225   9.379   2.445 -0.4476  0.0103 -0.1915
   47BDD     O119813   2.177   9.481   2.501 -0.5818 -0.0093 -0.2685
   47BDD     O219814   2.386   9.029   2.256  0.0129  0.0782  0.0729
   47BDD     C719815   2.315   9.386   2.329 -0.3598  0.0448 -0.1213
   47BDD     C819816   2.370   9.268   2.265 -0.2041  0.0677 -0.0319
   47BDD     C919817   2.451   9.296   2.159 -0.1433  0.0980  0.0229
   47BDD     S219818   2.465   9.473   2.132 -0.2768  0.1004 -0.0336
   47BDD    C1019819   2.356   9.503   2.271 -0.4154  0.0579 -0.1333
   47BDD    C1119820   2.290   9.648   2.280  0.6239 -0.8227 -0.8132
   47BDD    C1219821   2.349   9.769   2.361  0.0860  0.8060  1.1644
   47BDD    C1319822   2.250   9.895   2.370 -0.1968 -0.4567 -0.2955
   47BDD    C1419823   2.160   9.899   2.492  0.8634 -0.2898  0.1464
   47BDD    C1519824   2.041  10.004   2.495  1.6741 -0.3694 -1.3430
   47BDD    C1619825   1.940   9.979   2.387 -0.5602 -0.1916 -1.0735
   47BDD    C1719826   2.496   9.810   2.315  0.9215  0.8114  0.9017
   47BDD    C1819827   2.515   9.902   2.191  0.0909  0.5376  1.1688
   47BDD    C1919828   2.561   9.204   2.088  0.5734  1.1426  0.4977
   47BDD    C2019829   2.697   9.230   2.120  0.6011  0.3553  1.4108
   47BDD    C2119830   2.735   9.231   2.258 -0.1802 -0.9839  0.0091
   47BDD    C2219831   2.757   9.095   2.324  0.1842  0.8031 -0.9608
   47BDD    C2319832   2.679   9.075   2.442  0.8797  0.5306 -0.2146
   47BDD    C2419833   2.740   8.981   2.540  0.6514  0.1824 -0.5841
   47BDD    C2519834   2.751   9.350   2.043 -1.1693  0.4820  0.6375
   47BDD    C2619835   2.809   9.303   1.915 -0.6307  0.8705 -0.1068
   48TPM     C119836   2.202   8.870   2.440  0.3540  0.1320  0.1415
   48TPM     C219837   2.075   8.828   2.412  0.3762  0.3257 -0.2693
   48TPM     C319838   2.062   8.684   2.403  0.2309  0.3538 -0.5474
   48TPM     C419839   2.179   8.617   2.425  0.0978  0.1816 -0.3487
   48TPM     S119840   2.316   8.731   2.457  0.1460 -0.0313  0.2095
   49BDTP    C119841   2.168   8.008   2.318 -0.2701  0.5369 -0.1693
   49BDTP    C219842   2.294   8.042   2.263 -0.2358  0.5224 -0.1001
   49BDTP    C319843   2.344   8.172   2.263 -0.2713  0.5362 -0.1740
   49BDTP    C419844   2.264   8.272   2.321 -0.3440  0.5653 -0.3234
   49BDTP    C519845   2.138   8.238   2.376 -0.3783  0.5796 -0.3927
   49BDTP    C619846   2.088   8.108   2.376 -0.3429  0.5657 -0.3187
   49BDTP    C719847   2.294   8.414   2.333 -0.3917  0.5839 -0.4224
   49BDTP    C819848   2.198   8.486   2.394 -0.4593  0.6108 -0.5609
   49BDTP    S119849   2.055   8.386   2.445 -0.4721  0.6168 -0.5854
   49BDTP    C919850   2.138   7.866   2.306 -0.2223  0.5181 -0.0703
   49BDTP   C1019851   2.234   7.794   2.245 -0.1547  0.4910  0.0682
   49BDTP    S219852   2.377   7.894   2.194 -0.1420  0.4853  0.0928
   50FTM     S119853   2.451   8.356   2.064 -0.2739 -0.3870  0.3822
   50FTM     C119854   2.610   8.307   1.996 -0.2662  0.2223 -0.0445
   50FTM     C219855   2.651   8.189   2.050  0.0789  0.1009 -0.5459
   50FTM     C319856   2.562   8.131   2.146  0.3520 -0.4594 -0.6269
   50FTM     C419857   2.450   8.207   2.166  0.2112 -0.7774 -0.1727
   50FTM     F119858   2.770   8.127   2.016  0.1683  0.4897 -0.9614
   50FTM     C519859   2.695   8.416   1.943 -0.6071 -1.2921 -1.0170
   50FTM     C619860   2.667   8.466   1.805  0.8135  0.1085 -0.7463
   50FTM     C719861   2.763   8.564   1.759 -0.4516 -1.5303 -0.4579
   50FTM     C819862   2.748   8.715   1.802  0.4065 -0.7362 -0.0159
   50FTM     C919863   2.884   8.780   1.829 -0.3533 -0.2387 -1.1563
   50FTM    C1019864   2.937   8.910   1.888  0.0584  0.0182 -0.4164
   50FTM    C1119865   2.626   8.367   1.689  0.6078  1.3555  0.5710
   50FTM    C1219866   2.530   8.418   1.580 -0.7070 -0.8202 -0.1930
   51FTM     S119867   1.983   7.954   2.590 -0.0899  0.0364  0.1429
   51FTM     C119868   1.805   7.963   2.619 -0.2015 -0.2817 -0.4148
   51FTM     C219869   1.747   8.043   2.527 -0.0640 -0.4256 -0.6287
   51FTM     C319870   1.835   8.102   2.430  0.1318 -0.3002 -0.3780
   51FTM     C419871   1.964   8.065   2.449  0.1446 -0.0521  0.0416
   51FTM     F119872   1.611   8.069   2.524 -0.1072 -0.6790 -1.0642
   51FTM     C519873   1.736   7.863   2.722 -0.0970 -0.7177  0.1991
   51FTM     C619874   1.643   7.754   2.654  0.2275 -1.0859  0.0279
   51FTM     C719875   1.509   7.824   2.609 -0.9851  1.0400 -0.6425
   51FTM     C819876   1.413   7.825   2.724 -1.0148  1.5589 -0.8231
   51FTM     C919877   1.264   7.835   2.703  0.1146 -0.1003  1.1757
   51FTM    C1019878   1.247   7.967   2.658  0.0874  0.2279 -0.3561
   51FTM    C1119879   1.697   7.646   2.547 -0.2807 -0.8345  0.4356
   51FTM    C1219880   1.599   7.559   2.467 -0.5353  0.4116  1.1975
   52TPM     C119881   2.253   7.649   2.231  0.1220  0.4226  0.3421
   52TPM     C219882   2.375   7.590   2.231  0.1758  0.5218  0.7361
   52TPM     C319883   2.370   7.446   2.242  0.2371  0.4919  0.3995
   52TPM     C419884   2.244   7.396   2.251  0.2302  0.3698 -0.2510
   52TPM     S119885   2.120   7.528   2.247  0.1449  0.2824 -0.4911
   53BDD     C119886   2.054   7.077   2.384  0.3937 -0.1316 -0.1780
   53BDD     C219887   2.179   7.030   2.353  0.3370 -0.2013 -0.2993
   53BDD     C319888   2.265   7.130   2.293  0.3232 -0.2596 -0.4186
   53BDD     C419889   2.205   7.253   2.281  0.3697 -0.2333 -0.3867
   53BDD     S119890   2.036   7.250   2.342  0.4339 -0.1341 -0.2050
   53BDD     C519891   2.223   6.891   2.376  0.2934 -0.2170 -0.3099
   53BDD     C619892   2.404   7.102   2.252  0.2646 -0.3389 -0.5600
   53BDD     O119893   2.478   7.188   2.200  0.2528 -0.3893 -0.6629
   53BDD     O219894   2.149   6.804   2.427  0.3052 -0.1668 -0.2069
   53BDD     C719895   2.448   6.963   2.275  0.2210 -0.3548 -0.5706
   53BDD     C819896   2.362   6.862   2.334  0.2347 -0.2965 -0.4512
   53BDD     C919897   2.422   6.740   2.347  0.1882 -0.3227 -0.4832
   53BDD     S219898   2.590   6.742   2.285  0.1241 -0.4221 -0.6648
   53BDD    C1019899   2.572   6.916   2.243  0.1643 -0.4245 -0.6917
   53BDD    C1119900   2.698   6.978   2.180  0.1898  0.6055 -0.0197
   53BDD    C1219901   2.720   6.960   2.032  0.3655  0.5139 -0.2598
   53BDD    C1319902   2.869   6.971   1.977  1.4263 -0.7047 -0.8398
   53BDD    C1419903   2.965   6.839   1.984 -0.5056 -0.5111  0.4725
   53BDD    C1519904   2.915   6.693   1.941 -0.2741 -0.2172  0.8206
   53BDD    C1619905   2.859   6.700   1.793 -0.8045  0.7949  0.3864
   53BDD    C1719906   2.626   7.042   1.925 -0.4015  1.0099 -0.7551
   53BDD    C1819907   2.548   6.953   1.820  0.0882  0.6229  1.0105
   53BDD    C1919908   2.373   6.612   2.405  0.7971  1.8046 -0.7079
   53BDD    C2019909   2.380   6.476   2.307 -0.0375  0.6691 -0.0416
   53BDD    C2119910   2.367   6.498   2.139 -0.0449  1.1233 -0.1101
   53BDD    C2219911   2.251   6.583   2.103 -0.6414 -0.1027  0.6157
   53BDD    C2319912   2.275   6.643   1.958 -1.1961  2.0006  0.2943
   53BDD    C2419913   2.138   6.707   1.906  0.6730  1.3259  0.4707
   53BDD    C2519914   2.366   6.339   2.364 -0.3125  1.4466  0.3098
   53BDD    C2619915   2.217   6.302   2.390  0.0661 -0.4449  0.5880
   54TPM     C119916   1.930   7.019   2.433 -0.5228  0.6302 -0.5083
   54TPM     C219917   1.808   7.050   2.381 -0.7491  0.2092 -0.2443
   54TPM     C319918   1.701   6.968   2.431 -0.3718 -0.1144  0.0492
   54TPM     C419919   1.741   6.875   2.522  0.1421  0.0599  0.0091
   54TPM     S119920   1.919   6.883   2.552  0.1898  0.6510 -0.4057
   55BDTP    C119921   1.380   6.413   2.766 -0.1945  0.4072 -0.0263
   55BDTP    C219922   1.434   6.475   2.882 -0.1330  0.3625 -0.0311
   55BDTP    C319923   1.520   6.585   2.875  0.0565  0.2155 -0.0431
   55BDTP    C419924   1.553   6.635   2.748  0.1919  0.1074 -0.0511
   55BDTP    C519925   1.498   6.573   2.632  0.1304  0.1520 -0.0465
   55BDTP    C619926   1.413   6.463   2.639 -0.0591  0.2989 -0.0343
   55BDTP    C719927   1.639   6.747   2.716  0.3958 -0.0513 -0.0640
   55BDTP    C819928   1.652   6.772   2.584  0.4891 -0.1270 -0.0692
   55BDTP    S119929   1.556   6.656   2.480  0.3319 -0.0080 -0.0585
   55BDTP    C919930   1.294   6.301   2.798 -0.3984  0.5659 -0.0134
   55BDTP   C1019931   1.281   6.276   2.930 -0.4917  0.6417 -0.0082
   55BDTP    S219932   1.377   6.392   3.034 -0.3345  0.5225 -0.0189
   56FTM     S119933   1.554   6.582   3.169 -0.4075  0.8831 -0.1742
   56FTM     C119934   1.682   6.691   3.235 -0.0143  0.4445 -0.2023
   56FTM     C219935   1.741   6.759   3.133 -0.0674  0.5261 -0.1785
   56FTM     C319936   1.691   6.732   3.001 -0.4088  0.9249 -0.1378
   56FTM     C419937   1.591   6.639   3.002 -0.6241  1.1564 -0.1304
   56FTM     F119938   1.843   6.851   3.153  0.1900  0.2440 -0.1920
   56FTM     C519939   1.714   6.719   3.378  1.0550 -0.2390 -1.6744
   56FTM     C619940   1.846   6.712   3.446 -0.5557  1.8517  0.0826
   56FTM     C719941   1.861   6.816   3.546 -1.4640  1.0439  0.2857
   56FTM     C819942   1.921   6.953   3.524 -0.6941 -0.4898  0.0216
   56FTM     C919943   1.833   7.077   3.477 -0.5847  0.2003 -0.1391
   56FTM    C1019944   1.717   7.109   3.571  0.2937 -0.1601 -0.1710
   56FTM    C1119945   1.935   6.600   3.463  0.3550  1.2890  0.2578
   56FTM    C1219946   1.877   6.494   3.561  0.6696  0.3626 -0.6466
   57FTM     S119947   1.329   6.246   2.486 -0.0766  0.0769  0.5027
   57FTM     C119948   1.184   6.274   2.382 -0.2926  0.0044  0.7817
   57FTM     C219949   1.150   6.406   2.385 -0.3220 -0.0036  0.8061
   57FTM     C319950   1.232   6.491   2.466 -0.1817  0.0451  0.6140
   57FTM     C419951   1.333   6.422   2.527 -0.0403  0.0915  0.4367
   57FTM     F119952   1.042   6.457   2.314 -0.4777 -0.0553  1.0039
   57FTM     C519953   1.120   6.177   2.296 -0.4893 -0.1513 -0.5401
   57FTM     C619954   1.208   6.136   2.166  0.2463 -1.0376  0.4199
   57FTM     C719955   1.171   6.192   2.013  0.1386 -1.4764  0.6242
   57FTM     C819956   1.096   6.322   2.015 -0.2100 -0.3021  1.2093
   57FTM     C919957   1.048   6.380   1.865 -0.1999  0.9171 -1.4558
   57FTM    C1019958   1.132   6.346   1.741  0.8498 -1.0935  0.4602
   57FTM    C1119959   1.341   6.065   2.210  0.9052 -0.9760  0.0532
   57FTM    C1219960   1.454   6.026   2.110  0.6986 -0.4553  0.2055
   58TPM     C119961   1.214   6.176   3.011  0.4381 -0.7053 -0.2602
   58TPM     C219962   1.270   6.111   3.117  1.2461 -1.7323 -1.2698
   58TPM     C319963   1.199   5.991   3.155  1.1055 -1.7041 -1.4383
   58TPM     C419964   1.090   5.965   3.079  0.1904 -0.6554 -0.5574
   58TPM     S119965   1.067   6.091   2.951 -0.5707  0.3859  0.5621
   59BDD     C119966   0.922   5.644   3.213 -0.1287 -0.1976 -0.0178
   59BDD     C219967   0.922   5.634   3.076 -0.0166 -0.0668 -0.0281
   59BDD     C319968   0.981   5.748   3.010  0.0694 -0.0181  0.1317
   59BDD     C419969   1.026   5.844   3.097  0.0216 -0.1126  0.2615
   59BDD     S119970   0.997   5.797   3.267 -0.1343 -0.2692  0.1925
   59BDD     C519971   0.867   5.518   3.002  0.0156  0.0184 -0.1851
   59BDD     C619972   0.991   5.759   2.863  0.1958  0.1205  0.1498
   59BDD     O119973   1.042   5.858   2.806  0.2699  0.1626  0.2875
   59BDD     O219974   0.816   5.419   3.059 -0.0586 -0.0236 -0.3229
   59BDD     C719975   0.937   5.643   2.788  0.2280  0.2058 -0.0073
   59BDD     C819976   0.877   5.528   2.855  0.1420  0.1571 -0.1670
   59BDD     C919977   0.833   5.433   2.768  0.1898  0.2515 -0.2968
   59BDD     S219978   0.862   5.479   2.597  0.3457  0.4083 -0.2279
   59BDD    C1019979   0.936   5.633   2.652  0.3401  0.3366 -0.0176
   59BDD    C1119980   0.956   5.750   2.545  0.4472  0.3132  0.0658
   59BDD    C1219981   1.068   5.719   2.445 -0.5980  1.1527 -0.4790
   59BDD    C1319982   1.044   5.781   2.309  0.6569 -1.3044  0.4486
   59BDD    C1419983   1.108   5.715   2.195 -1.2468  0.6022 -1.3638
   59BDD    C1519984   1.082   5.569   2.173 -0.0745  0.2855  0.5629
   59BDD    C1619985   1.234   5.520   2.178  0.0380 -0.2316 -0.3668
   59BDD    C1719986   1.224   5.703   2.500  0.8962 -0.4630 -0.3639
   59BDD    C1819987   1.284   5.830   2.562  1.2991  0.6519 -0.7575
   59BDD    C1919988   0.777   5.292   2.794 -1.0431  1.0234  1.4678
   59BDD    C2019989   0.893   5.187   2.772 -1.7717  1.0321  1.9352
   59BDD    C2119990   0.821   5.057   2.709 -1.2286 -1.2884 -0.6378
   59BDD    C2219991   0.920   4.975   2.613 -0.8118 -0.6807  1.3551
   59BDD    C2319992   0.974   5.020   2.476  0.2400  0.1908  1.7514
   59BDD    C2419993   1.094   4.934   2.426  0.0538  0.2188 -0.4048
   59BDD    C2519994   0.985   5.182   2.906 -0.0268  1.7450  0.7971
   59BDD    C2619995   0.923   5.122   3.029 -0.4020 -0.0143  0.6696
   60TPM     C119996   0.856   5.586   3.328  0.2380 -0.4297  0.2384
   60TPM     C219997   0.868   5.455   3.364 -0.8996 -0.7848 -0.5576
   60TPM     C319998   0.791   5.419   3.480 -1.4825 -0.9272 -0.9781
   60TPM     C419999   0.720   5.523   3.533 -0.7893 -0.6809 -0.5026
   60TPM     S120000   0.745   5.675   3.439  0.6646 -0.2466  0.5211
    1BDTP    C120001   1.817   0.316   7.276  0.2189 -0.0578  0.0374
    1BDTP    C220002   1.768   0.393   7.166  0.0866 -0.0641  0.0925
    1BDTP    C320003   1.641   0.449   7.165 -0.0190 -0.2974  0.1262
    1BDTP    C420004   1.559   0.430   7.278  0.0068 -0.5359  0.1049
    1BDTP    C520005   1.608   0.354   7.388  0.1390 -0.5296  0.0497
    1BDTP    C620006   1.735   0.297   7.388  0.2447 -0.2964  0.0160
    1BDTP    C720007   1.424   0.479   7.300 -0.0865 -0.8014  0.1320
    1BDTP    C820008   1.371   0.443   7.419 -0.0314 -0.9923  0.1005
    1BDTP    S120009   1.484   0.343   7.521  0.1464 -0.8627  0.0318
    1BDTP    C920010   1.952   0.267   7.254  0.3122  0.2077  0.0103
    1BDTP   C1020011   2.005   0.303   7.134  0.2570  0.3986  0.0418
    1BDTP    S220012   1.892   0.403   7.033  0.0792  0.2690  0.1105
    2FTM     S120013   1.626   0.436   6.871 -0.4065  0.3848 -0.3232
    2FTM     C120014   1.556   0.584   6.797  1.0270  1.2295 -0.0800
    2FTM     C220015   1.503   0.664   6.893  1.9503  1.6853  0.0671
    2FTM     C320016   1.515   0.616   7.028  1.6077  1.4122  0.0013
    2FTM     C420017   1.578   0.496   7.034  0.3819  0.7247 -0.2027
    2FTM     F120018   1.442   0.786   6.866  3.1606  2.3770  0.2699
    2FTM     C520019   1.591   0.581   6.651  0.7930  0.1234  0.5862
    2FTM     C620020   1.496   0.487   6.576 -0.0924 -0.1526  0.3238
    2FTM     C720021   1.350   0.527   6.581  1.3071  1.2972 -0.1405
    2FTM     C820022   1.270   0.632   6.502 -0.3529  0.2050  1.2278
    2FTM     C920023   1.161   0.572   6.407 -0.0775  0.5659  0.3696
    2FTM    C1020024   1.119   0.658   6.291  0.7480  1.3372  0.4232
    2FTM    C1120025   1.526   0.406   6.444  0.2614 -0.9113  0.1132
    2FTM    C1220026   1.653   0.329   6.453 -0.1236 -0.5252 -0.1509
    3FTM     S120027   1.916   0.291   7.604 -0.1482 -0.2481 -0.0737
    3FTM     C120028   1.886   0.180   7.743 -1.0912 -0.0591 -0.1158
    3FTM     C220029   1.772   0.107   7.720 -1.4413  0.5520 -0.3667
    3FTM     C320030   1.704   0.134   7.597 -1.0081  0.9021 -0.5375
    3FTM     C420031   1.767   0.229   7.522 -0.3032  0.5475 -0.4134
    3FTM     F120032   1.724   0.013   7.810 -2.1749  0.8307 -0.4565
    3FTM     C520033   1.998   0.176   7.831 -0.9203 -0.6121 -0.1200
    3FTM     C620034   2.047   0.053   7.918  0.2783 -1.5258 -0.8869
    3FTM     C720035   2.054   0.064   8.063 -0.9216  1.8486 -0.2268
    3FTM     C820036   2.037   0.196   8.143  0.4294 -0.7527  0.1040
    3FTM     C920037   1.919   0.157   8.232  0.4123  0.9573  1.0365
    3FTM    C1020038   1.880   0.284   8.318 -1.6006  1.2894 -0.0708
    3FTM    C1120039   2.096  -0.071   7.849  0.2643  0.0730 -0.4867
    3FTM    C1220040   2.246  -0.118   7.812 -0.1293  0.9359 -0.5033
    4TPM     C120041   2.134   0.266   7.066 -0.6033  0.5290 -1.0647
    4TPM     C220042   2.195   0.326   6.960 -0.9692  0.0415 -1.5631
    4TPM     C320043   2.316   0.260   6.918 -0.9553  0.0175 -1.4855
    4TPM     C420044   2.347   0.150   6.992 -0.5790  0.4866 -0.9280
    4TPM     S120045   2.225   0.121   7.122 -0.2101  0.9992 -0.4543
    5BDD     C120046   2.604  -0.147   6.938  0.5302  0.1032  0.2450
    5BDD     C220047   2.680  -0.033   6.942  0.4837  0.1359  0.1990
    5BDD     C320048   2.601   0.088   6.956  0.4219  0.1252 -0.0442
    5BDD     C420049   2.467   0.065   6.963  0.4222  0.0847 -0.1798
    5BDD     S120050   2.429  -0.110   6.951  0.4997  0.0570 -0.0126
    5BDD     C520051   2.827  -0.031   6.933  0.4945  0.1781  0.3766
    5BDD     C620052   2.662   0.223   6.963  0.3650  0.1559 -0.1332
    5BDD     O120053   2.595   0.327   6.975  0.3118  0.1466 -0.3427
    5BDD     O220054   2.895  -0.136   6.921  0.5477  0.1874  0.5863
    5BDD     C720055   2.810   0.224   6.954  0.3757  0.1981  0.0443
    5BDD     C820056   2.889   0.103   6.940  0.4374  0.2086  0.2875
    5BDD     C920057   3.023   0.126   6.934  0.4373  0.2494  0.4233
    5BDD     S220058   3.061   0.301   6.945  0.3598  0.2770  0.2561
    5BDD    C1020059   2.886   0.338   6.959  0.3293  0.2308 -0.0017
    5BDD    C1120060   2.841   0.490   6.965  0.2313 -1.1128 -0.7935
    5BDD    C1220061   2.904   0.587   7.067 -0.9743 -1.0471 -0.7034
    5BDD    C1320062   3.019   0.650   6.986 -0.6765 -0.8893  0.4420
    5BDD    C1420063   3.121   0.722   7.077 -0.2218 -0.1955  0.8575
    5BDD    C1520064   3.233   0.816   7.024  0.0499 -0.4147 -0.1792
    5BDD    C1620065   3.191   0.916   6.913 -0.8123  0.2993 -1.1334
    5BDD    C1720066   2.835   0.706   7.120 -0.5536  0.2571  0.8167
    5BDD    C1820067   2.761   0.820   7.040 -0.1423 -0.2834 -0.3150
    5BDD    C1920068   3.142   0.032   6.938 -1.0539 -0.4022  0.1384
    5BDD    C2020069   3.185   0.023   7.089 -1.4767 -0.1856  0.5288
    5BDD    C2120070   3.121  -0.069   7.189  0.1625  0.5369  0.9437
    5BDD    C2220071   3.117  -0.219   7.160 -0.8443  0.0270  0.7053
    5BDD    C2320072   3.053  -0.282   7.284  0.4434  0.6556 -0.1280
    5BDD    C2420073   3.062  -0.444   7.296  0.5862 -0.0263  1.5885
    5BDD    C2520074   3.333   0.082   7.106  0.9758  0.1787 -0.5530
    5BDD    C2620075   3.388   0.146   7.229 -0.2342 -1.2596 -0.0840
    6TPM     C120076   2.637  -0.285   6.908  0.3322  0.3496  0.3178
    6TPM     C220077   2.606  -0.332   6.784  0.3787  0.2151  0.3573
    6TPM     C320078   2.662  -0.461   6.756  0.4188  0.1996  0.5057
    6TPM     C420079   2.736  -0.513   6.858  0.4030  0.3227  0.5795
    6TPM     S120080   2.740  -0.401   7.000  0.3357  0.4689  0.4663
    7BDTP    C120081   3.031  -1.079   6.873 -0.0139 -0.0167 -0.4454
    7BDTP    C220082   3.140  -0.988   6.882 -0.0251 -0.0007 -0.4753
    7BDTP    C320083   3.122  -0.850   6.883 -0.0470 -0.0041 -0.4408
    7BDTP    C420084   2.991  -0.800   6.876 -0.0584 -0.0236 -0.3735
    7BDTP    C520085   2.882  -0.892   6.868 -0.0472 -0.0401 -0.3436
    7BDTP    C620086   2.900  -1.030   6.866 -0.0253 -0.0367 -0.3781
    7BDTP    C720087   2.947  -0.662   6.876 -0.0811 -0.0308 -0.3278
    7BDTP    C820088   2.813  -0.646   6.868 -0.0873 -0.0513 -0.2658
    7BDTP    S120089   2.722  -0.803   6.859 -0.0654 -0.0646 -0.2565
    7BDTP    C920090   3.074  -1.218   6.874  0.0088 -0.0100 -0.4910
    7BDTP   C1020091   3.209  -1.234   6.882  0.0150  0.0107 -0.5530
    7BDTP    S220092   3.299  -1.077   6.890 -0.0069  0.0238 -0.5623
    8FTM     S120093   3.311  -0.691   6.747  0.0558 -0.4603 -0.0499
    8FTM     C120094   3.437  -0.612   6.850  0.2760 -0.7500 -0.0964
    8FTM     C220095   3.419  -0.647   6.980  0.0674 -0.4783 -0.0521
    8FTM     C320096   3.308  -0.734   7.007 -0.2683 -0.0384  0.0193
    8FTM     C420097   3.240  -0.768   6.894 -0.3183  0.0284  0.0297
    8FTM     F120098   3.501  -0.602   7.082  0.1680 -0.6108 -0.0732
    8FTM     C520099   3.528  -0.514   6.780  0.0252  0.3503 -0.1730
    8FTM     C620100   3.501  -0.377   6.818 -2.6254 -0.7320  0.0887
    8FTM     C720101   3.620  -0.322   6.757  0.0338 -0.7306  1.2723
    8FTM     C820102   3.632  -0.170   6.807  0.0273 -0.0304  1.3057
    8FTM     C920103   3.664  -0.058   6.686  0.4341 -0.1477 -1.5163
    8FTM    C1020104   3.592  -0.065   6.548 -0.1359 -1.4942 -1.6306
    8FTM    C1120105   3.370  -0.322   6.800  0.3423 -0.3659  0.6731
    8FTM    C1220106   3.319  -0.343   6.649  1.1528 -0.4180  0.2926
    9FTM     S120107   2.768  -1.257   6.762  0.0051 -0.1148 -0.2346
    9FTM     C120108   2.621  -1.312   6.850  0.3549 -0.4506  0.1456
    9FTM     C220109   2.596  -1.229   6.955  0.4387 -0.5124  0.2147
    9FTM     C320110   2.687  -1.120   6.973  0.2410 -0.3068 -0.0182
    9FTM     C420111   2.786  -1.119   6.878 -0.0024 -0.0805 -0.2740
    9FTM     F120112   2.489  -1.247   7.041  0.6996 -0.7579  0.4928
    9FTM     C520113   2.552  -1.447   6.825 -0.2239  0.6247 -0.3801
    9FTM     C620114   2.406  -1.483   6.878 -0.0649  0.3179  1.5272
    9FTM     C720115   2.275  -1.423   6.817  0.5526 -0.0002  0.1185
    9FTM     C820116   2.257  -1.270   6.808 -0.4974  0.4325 -1.6926
    9FTM     C920117   2.151  -1.236   6.705  1.0426  0.6269 -0.2260
    9FTM    C1020118   2.150  -1.085   6.679 -0.7533  0.3870 -0.0481
    9FTM    C1120119   2.409  -1.588   6.979  0.4061  0.1415  0.6734
    9FTM    C1220120   2.276  -1.593   7.072 -0.6207  0.9688  0.5202
   10TPM     C120121   3.292  -1.360   6.890 -0.4949 -0.5196  1.4950
   10TPM     C220122   3.424  -1.341   6.916 -0.5831 -0.5059  1.9507
   10TPM     C320123   3.508  -1.452   6.878 -0.3034 -0.0250  1.0998
   10TPM     C420124   3.439  -1.556   6.824 -0.0022  0.3278 -0.0043
   10TPM     S120125   3.262  -1.522   6.815 -0.0485  0.0785 -0.0558
   11BDD     C120126   3.605  -1.878   6.668 -0.0366 -0.0272 -0.0791
   11BDD     C220127   3.503  -1.925   6.747  0.0384 -0.1266 -0.0412
   11BDD     C320128   3.435  -1.821   6.820  0.0097 -0.2019  0.0396
   11BDD     C420129   3.485  -1.696   6.796 -0.0868 -0.1591  0.0620
   11BDD     S120130   3.621  -1.700   6.680 -0.1484 -0.0212 -0.0163
   11BDD     C520131   3.466  -2.068   6.757  0.1392 -0.1554 -0.0781
   11BDD     C620132   3.322  -1.849   6.912  0.0790 -0.3138  0.0914
   11BDD     O120133   3.262  -1.758   6.975  0.0542 -0.3788  0.1611
   11BDD     O220134   3.526  -2.158   6.694  0.1640 -0.0904 -0.1477
   11BDD     C720135   3.284  -1.991   6.922  0.1798 -0.3433  0.0548
   11BDD     C820136   3.353  -2.096   6.849  0.2085 -0.2677 -0.0259
   11BDD     C920137   3.303  -2.221   6.872  0.3051 -0.3107 -0.0486
   11BDD     S220138   3.167  -2.216   6.988  0.3666 -0.4484  0.0298
   11BDD    C1020139   3.183  -2.038   7.001  0.2549 -0.4425  0.0926
   11BDD    C1120140   3.083  -1.964   7.081  0.7531 -0.5439 -0.5092
   11BDD    C1220141   2.948  -1.923   7.020  1.2022 -0.2295 -0.6854
   11BDD    C1320142   2.861  -1.817   7.096  0.5229  0.1697  1.5416
   11BDD    C1420143   2.927  -1.673   7.121 -1.2087  2.1714  0.3000
   11BDD    C1520144   2.921  -1.590   7.252 -0.0565  0.1193  0.4054
   11BDD    C1620145   2.887  -1.662   7.368 -0.3703  1.0177  0.4177
   11BDD    C1720146   2.860  -2.033   6.963  1.1660  1.0291 -0.2657
   11BDD    C1820147   2.742  -2.011   6.875  0.0218 -0.1946  0.2161
   11BDD    C1920148   3.319  -2.361   6.820 -0.8950 -0.6878 -0.1818
   11BDD    C2020149   3.367  -2.476   6.922  0.9171 -0.6971  0.0048
   11BDD    C2120150   3.390  -2.614   6.859 -0.3706 -0.0448 -0.0562
   11BDD    C2220151   3.294  -2.683   6.765  0.7603 -0.4177 -0.7880
   11BDD    C2320152   3.279  -2.841   6.781  0.5644  0.9429 -1.1402
   11BDD    C2420153   3.214  -2.874   6.922  1.0257  0.1833  0.3669
   11BDD    C2520154   3.446  -2.458   7.040 -1.1651 -0.0027 -0.7046
   11BDD    C2620155   3.373  -2.439   7.175 -0.2320  0.4695  0.1296
   12TPM     C120156   3.714  -1.940   6.589 -0.1284 -1.1422 -0.5541
   12TPM     C220157   3.780  -2.058   6.604  1.1349 -0.4389 -0.2927
   12TPM     C320158   3.871  -2.087   6.497  1.7123  0.4334 -0.0583
   12TPM     C420159   3.875  -1.991   6.400  0.8893  0.3954 -0.1408
   12TPM     S120160   3.762  -1.855   6.437 -0.6911 -0.7541 -0.5242
   13BDTP    C120161   4.281  -1.852   5.943 -0.2189 -0.1709  0.0343
   13BDTP    C220162   4.365  -1.871   6.056 -0.2532 -0.3626  0.0291
   13BDTP    C320163   4.316  -1.907   6.181 -0.3086 -0.4170 -0.0085
   13BDTP    C420164   4.177  -1.926   6.194 -0.3315 -0.2763 -0.0424
   13BDTP    C520165   4.093  -1.907   6.081 -0.2971 -0.0849 -0.0373
   13BDTP    C620166   4.142  -1.871   5.956 -0.2418 -0.0306  0.0000
   13BDTP    C720167   4.104  -1.963   6.313 -0.3877 -0.2987 -0.0843
   13BDTP    C820168   3.970  -1.974   6.295 -0.3973 -0.1354 -0.1104
   13BDTP    S120169   3.918  -1.937   6.124 -0.3363  0.0696 -0.0857
   13BDTP    C920170   4.355  -1.815   5.824 -0.1627 -0.1490  0.0761
   13BDTP   C1020171   4.489  -1.804   5.842 -0.1532 -0.3121  0.1022
   13BDTP    S220172   4.540  -1.840   6.013 -0.2142 -0.5172  0.0775
   14FTM     S120173   4.379  -2.099   6.391 -0.3362  0.1573  0.1781
   14FTM     C120174   4.511  -2.046   6.502  0.2947 -0.4793 -0.2486
   14FTM     C220175   4.561  -1.927   6.462  1.0127 -0.8931 -0.6238
   14FTM     C320176   4.501  -1.870   6.344  1.1134 -0.7441 -0.6033
   14FTM     C420177   4.403  -1.949   6.293  0.4511 -0.1975 -0.1988
   14FTM     F120178   4.663  -1.861   6.528  1.6214 -1.4317 -1.0086
   14FTM     C520179   4.561  -2.164   6.577 -0.0364 -0.3102  1.2542
   14FTM     C620180   4.628  -2.168   6.715 -0.9016 -1.3055 -0.4475
   14FTM     C720181   4.767  -2.106   6.708 -0.2561  0.3312  1.0762
   14FTM     C820182   4.891  -2.207   6.721  0.4961 -0.5063 -0.6112
   14FTM     C920183   4.865  -2.289   6.860  1.7018 -1.0371  0.0599
   14FTM    C1020184   4.788  -2.419   6.879  1.6936  0.7496  0.0115
   14FTM    C1120185   4.542  -2.117   6.834 -0.2677 -1.0161  1.0979
   14FTM    C1220186   4.432  -2.211   6.867 -0.4073  0.6510 -0.5184
   15FTM     S120187   4.050  -1.658   5.800 -0.0907  0.3333  0.5913
   15FTM     C120188   3.916  -1.693   5.685  0.0939  0.2221  0.4070
   15FTM     C220189   3.878  -1.823   5.697  0.4340  0.0896  0.0892
   15FTM     C320190   3.949  -1.901   5.794  0.5683  0.0672 -0.0278
   15FTM     C420191   4.045  -1.829   5.858  0.3234  0.1861  0.2084
   15FTM     F120192   3.776  -1.879   5.622  0.6437 -0.0191 -0.1148
   15FTM     C520193   3.831  -1.601   5.621  0.6668  0.2574 -0.2086
   15FTM     C620194   3.719  -1.539   5.701 -0.1364 -0.5437  0.6909
   15FTM     C720195   3.612  -1.609   5.791 -0.2879  0.7454  0.5658
   15FTM     C820196   3.652  -1.701   5.907  0.2742 -0.5330  1.1627
   15FTM     C920197   3.657  -1.672   6.059  1.0477  0.4728  0.1951
   15FTM    C1020198   3.538  -1.577   6.124 -0.1580  1.6041  0.5452
   15FTM    C1120199   3.679  -1.423   5.598 -0.1662 -0.1180  0.3468
   15FTM    C1220200   3.568  -1.456   5.490 -0.6588  1.4358 -1.0733
   16TPM     C120201   4.568  -1.766   5.729  0.2950 -0.6704  0.4553
   16TPM     C220202   4.701  -1.736   5.729  0.3041 -0.6845  1.0178
   16TPM     C320203   4.754  -1.709   5.598  0.8557 -0.6542  1.2417
   16TPM     C420204   4.661  -1.718   5.498  1.2670 -0.6171  0.8495
   16TPM     S120205   4.499  -1.763   5.562  0.9875 -0.6172  0.1621
   17BDD     C120206   4.709  -1.821   5.117 -0.3600  0.3210 -0.1033
   17BDD     C220207   4.787  -1.710   5.135 -0.2292  0.2177 -0.0360
   17BDD     C320208   4.787  -1.662   5.272  0.2036 -0.1464  0.0981
   17BDD     C420209   4.709  -1.736   5.356  0.3965 -0.3153  0.1310
   17BDD     S120210   4.629  -1.872   5.270  0.0496 -0.0300 -0.0036
   17BDD     C520211   4.865  -1.645   5.028 -0.4973  0.4494 -0.0924
   17BDD     C620212   4.865  -1.544   5.315  0.4100 -0.3135  0.1888
   17BDD     O120213   4.865  -1.502   5.433  0.7831 -0.6273  0.3045
   17BDD     O220214   4.865  -1.687   4.910 -0.8706  0.7634 -0.2080
   17BDD     C720215   4.943  -1.479   5.208  0.1419 -0.0818  0.1323
   17BDD     C820216   4.943  -1.527   5.071 -0.2909  0.2823 -0.0018
   17BDD     C920217   5.021  -1.453   4.987 -0.4839  0.4508 -0.0346
   17BDD     S220218   5.101  -1.317   5.073 -0.1370  0.1660  0.1000
   17BDD    C1020219   5.021  -1.368   5.226  0.2726 -0.1855  0.1999
   17BDD    C1120220   5.021  -1.259   5.336 -0.6563  0.7800  0.3194
   17BDD    C1220221   4.904  -1.169   5.358 -0.9202 -0.4005  0.2360
   17BDD    C1320222   4.859  -1.068   5.262  0.1851  0.8688  0.8459
   17BDD    C1420223   4.899  -0.930   5.284  1.4384 -0.5357 -0.6647
   17BDD    C1520224   4.862  -0.853   5.146 -0.7940  0.1202 -0.5148
   17BDD    C1620225   4.987  -0.764   5.115 -0.2855  0.6661 -0.8908
   17BDD    C1720226   4.832  -1.198   5.491  0.2236  2.1375  0.7097
   17BDD    C1820227   4.784  -1.089   5.576  0.0593  0.0678 -0.9615
   17BDD    C1920228   5.041  -1.479   4.837 -0.4757  0.0531  0.6091
   17BDD    C2020229   5.165  -1.427   4.775  0.3815 -0.1960 -0.9138
   17BDD    C2120230   5.166  -1.424   4.621 -0.6825 -1.1666  0.0680
   17BDD    C2220231   5.063  -1.361   4.529 -0.2256 -0.1501 -0.9587
   17BDD    C2320232   5.114  -1.364   4.384  0.2306 -1.6090  0.4791
   17BDD    C2420233   5.162  -1.492   4.322 -0.5913  0.3445  0.1646
   17BDD    C2520234   5.296  -1.480   4.846  0.1883 -0.5372  0.0934
   17BDD    C2620235   5.427  -1.434   4.788 -0.6375  0.6625 -1.2112
   18TPM     C120236   4.685  -1.921   5.013 -0.0517 -0.2008 -0.0947
   18TPM     C220237   4.701  -1.890   4.881 -0.2470  0.0129 -0.0691
   18TPM     C320238   4.651  -1.990   4.791 -0.7558  0.3450 -0.1625
   18TPM     C420239   4.596  -2.098   4.854 -0.9484  0.3841 -0.2596
   18TPM     S120240   4.605  -2.081   5.034 -0.4988  0.0021 -0.2402
   19BDTP    C120241   4.483  -2.633   4.556  0.0288  0.1297 -0.3182
   19BDTP    C220242   4.393  -2.643   4.666 -0.0241 -0.0260 -0.3750
   19BDTP    C320243   4.377  -2.541   4.759 -0.2109 -0.0796 -0.3477
   19BDTP    C420244   4.453  -2.424   4.743 -0.3526  0.0246 -0.2602
   19BDTP    C520245   4.543  -2.414   4.633 -0.2999  0.1805 -0.2033
   19BDTP    C620246   4.559  -2.515   4.540 -0.1130  0.2340 -0.2305
   19BDTP    C720247   4.454  -2.306   4.827 -0.5555 -0.0043 -0.2170
   19BDTP    C820248   4.538  -2.209   4.786 -0.6560  0.1202 -0.1315
   19BDTP    S120249   4.629  -2.253   4.635 -0.5083  0.2921 -0.0937
   19BDTP    C920250   4.482  -2.751   4.472  0.2315  0.1585 -0.3612
   19BDTP   C1020251   4.398  -2.848   4.513  0.3321  0.0339 -0.4467
   19BDTP    S220252   4.307  -2.804   4.664  0.1844 -0.1378 -0.4846
   20FTM     S120253   4.245  -2.672   4.977  0.3325 -0.2784  0.5479
   20FTM     C120254   4.118  -2.582   5.067 -0.0241 -0.7784  0.5512
   20FTM     C220255   4.096  -2.462   5.009 -0.8134 -1.0319  0.2928
   20FTM     C320256   4.176  -2.432   4.893 -1.1798 -0.8574  0.0817
   20FTM     C420257   4.261  -2.534   4.862 -0.6543 -0.4569  0.1814
   20FTM     F120258   4.003  -2.370   5.056 -1.2505 -1.4374  0.2321
   20FTM     C520259   4.073  -2.636   5.195 -1.9245  1.2060  0.3664
   20FTM     C620260   4.166  -2.691   5.306 -0.5156 -0.0977  0.4925
   20FTM     C720261   4.294  -2.620   5.340 -0.3200 -1.6134  0.1613
   20FTM     C820262   4.437  -2.648   5.289  1.4036 -0.1893  1.0729
   20FTM     C920263   4.531  -2.531   5.298 -0.1164 -0.6442 -0.8119
   20FTM    C1020264   4.514  -2.376   5.326  0.6034 -0.8365 -1.0315
   20FTM    C1120265   4.097  -2.761   5.418 -1.1321 -0.6798  1.6363
   20FTM    C1220266   3.953  -2.732   5.471 -1.2879  0.0768  0.3300
   21FTM     S120267   4.562  -2.358   4.301  0.3418 -0.5695  0.2972
   21FTM     C120268   4.719  -2.366   4.214  0.1381 -0.5930 -0.0719
   21FTM     C220269   4.798  -2.462   4.269  0.3275 -0.4728 -0.1303
   21FTM     C320270   4.742  -2.534   4.380  0.6353 -0.3576  0.1025
   21FTM     C420271   4.617  -2.491   4.410  0.6830 -0.3908  0.3475
   21FTM     F120272   4.926  -2.491   4.222  0.2337 -0.4599 -0.3984
   21FTM     C520273   4.741  -2.268   4.090  0.4287  0.5388 -0.9636
   21FTM     C620274   4.757  -2.119   4.102  0.1243  0.1507  0.6464
   21FTM     C720275   4.619  -2.068   4.080  0.7337  0.4389  1.1693
   21FTM     C820276   4.536  -2.094   3.949 -0.1558  0.6393  0.8645
   21FTM     C920277   4.428  -1.992   3.923 -0.1372 -0.3092  0.7803
   21FTM    C1020278   4.356  -2.038   3.797  0.2286  0.8915 -0.3051
   21FTM    C1120279   4.864  -2.058   4.000  0.7170 -0.6127 -0.5065
   21FTM    C1220280   4.867  -2.079   3.844 -2.0123  0.6263  0.8172
   22TPM     C120281   4.358  -2.968   4.453 -0.3134 -0.0242 -0.8049
   22TPM     C220282   4.237  -3.031   4.454 -0.4281  0.1826 -1.1573
   22TPM     C320283   4.241  -3.165   4.399 -0.3548 -0.0679 -0.5578
   22TPM     C420284   4.365  -3.203   4.356 -0.1843 -0.4664  0.2514
   22TPM     S120285   4.487  -3.072   4.382 -0.1024 -0.5561  0.3199
   23BDD     C120286   4.498  -3.559   4.297 -0.4816 -0.2838  0.0484
   23BDD     C220287   4.394  -3.545   4.210 -0.4303 -0.1885  0.0026
   23BDD     C320288   4.335  -3.412   4.212  0.0759  0.0536 -0.4576
   23BDD     C420289   4.395  -3.327   4.301  0.4033  0.1394 -0.7563
   23BDD     S120290   4.530  -3.408   4.388  0.1004 -0.0770 -0.4815
   23BDD     C520291   4.345  -3.652   4.121 -0.8450 -0.3165  0.3802
   23BDD     C620292   4.221  -3.374   4.126  0.2162  0.1910 -0.5848
   23BDD     O120293   4.170  -3.260   4.128  0.6529  0.3996 -0.9817
   23BDD     O220294   4.396  -3.766   4.119 -1.2815 -0.5251  0.7770
   23BDD     C720295   4.172  -3.482   4.038 -0.1981  0.0628 -0.2071
   23BDD     C820296   4.231  -3.614   4.035 -0.7044 -0.1792  0.2532
   23BDD     C920297   4.171  -3.699   3.946 -1.0318 -0.2648  0.5515
   23BDD     S220298   4.036  -3.619   3.859 -0.7288 -0.0487  0.2767
   23BDD    C1020299   4.067  -3.467   3.950 -0.1469  0.1582 -0.2531
   23BDD    C1120300   3.970  -3.353   3.910 -0.4122 -0.4562 -0.6182
   23BDD    C1220301   3.822  -3.358   3.920  1.0065  0.1501  0.8221
   23BDD    C1320302   3.740  -3.482   3.852 -0.1991 -0.3037 -0.1965
   23BDD    C1420303   3.587  -3.449   3.818  0.3888 -1.4962  0.8103
   23BDD    C1520304   3.492  -3.553   3.764 -0.3392  0.0900 -0.9756
   23BDD    C1620305   3.478  -3.689   3.826  0.0784  0.4087 -0.0724
   23BDD    C1720306   3.769  -3.333   4.067  0.5784 -0.6760 -1.4774
   23BDD    C1820307   3.808  -3.177   4.110  0.7433  0.1066 -0.3685
   23BDD    C1920308   4.183  -3.848   3.931  1.1086 -0.4959  0.3379
   23BDD    C2020309   4.056  -3.924   3.975  0.1846 -0.8915  0.6961
   23BDD    C2120310   3.994  -3.894   4.119  0.4828 -0.4599 -0.4643
   23BDD    C2220311   4.076  -3.922   4.250  1.1322 -0.8417 -0.1252
   23BDD    C2320312   3.981  -3.901   4.360  0.3064 -0.2133 -0.8356
   23BDD    C2420313   4.025  -3.784   4.438  1.5766  0.5943  0.6993
   23BDD    C2520314   4.074  -4.073   3.972 -1.1043 -0.7034  0.8212
   23BDD    C2620315   4.110  -4.147   3.839 -0.6808 -0.3069  0.6233
   24TPM     C120316   4.571  -3.670   4.346  0.0816 -0.1016 -0.1250
   24TPM     C220317   4.697  -3.687   4.297  0.5393  0.8211  0.6677
   24TPM     C320318   4.783  -3.762   4.384  0.6309  1.6344  1.3098
   24TPM     C420319   4.723  -3.803   4.499  0.2430  1.3317  1.0063
   24TPM     S120320   4.551  -3.749   4.507 -0.2721 -0.0142 -0.1224
   25BDTP    C120321   4.923  -4.234   4.907 -0.2767 -0.1283 -0.1976
   25BDTP    C220322   5.023  -4.133   4.916 -0.2120 -0.2006 -0.1035
   25BDTP    C320323   5.022  -4.019   4.837 -0.1338 -0.1304 -0.0042
   25BDTP    C420324   4.917  -4.004   4.744 -0.1186  0.0182  0.0029
   25BDTP    C520325   4.817  -4.105   4.735 -0.1833  0.0907 -0.0913
   25BDTP    C620326   4.818  -4.219   4.815 -0.2615  0.0206 -0.1906
   25BDTP    C720327   4.895  -3.895   4.652 -0.0426  0.1138  0.0968
   25BDTP    C820328   4.785  -3.909   4.575 -0.0472  0.2525  0.0782
   25BDTP    S120329   4.693  -4.062   4.609 -0.1483  0.2819 -0.0613
   25BDTP    C920330   4.945  -4.343   5.000 -0.3527 -0.2236 -0.2917
   25BDTP   C1020331   5.055  -4.330   5.077 -0.3482 -0.3625 -0.2730
   25BDTP    S220332   5.147  -4.176   5.043 -0.2470 -0.3918 -0.1335
   26FTM     S120333   5.075  -3.730   4.872  0.4117  0.2424  0.1363
   26FTM     C120334   5.250  -3.687   4.863  0.4400  0.0501 -0.2424
   26FTM     C220335   5.325  -3.800   4.849  0.2791 -0.0237 -0.5436
   26FTM     C320336   5.253  -3.924   4.846  0.1278  0.0625 -0.4995
   26FTM     C420337   5.118  -3.905   4.857  0.1741  0.2071 -0.1533
   26FTM     F120338   5.463  -3.797   4.839  0.2594 -0.1739 -0.8774
   26FTM     C520339   5.284  -3.539   4.847  0.0882 -0.0751  0.2877
   26FTM     C620340   5.229  -3.413   4.782 -0.6446 -0.1927  0.6971
   26FTM     C720341   5.079  -3.430   4.749  0.9361 -1.0850 -0.6602
   26FTM     C820342   5.054  -3.420   4.591 -0.2067  0.0397  0.6365
   26FTM     C920343   4.914  -3.465   4.541  0.4894  0.1328  0.7048
   26FTM    C1020344   4.780  -3.454   4.625 -1.1083 -0.0618 -0.2366
   26FTM    C1120345   5.282  -3.271   4.782  0.5485 -0.3510 -1.7391
   26FTM    C1220346   5.382  -3.238   4.673 -0.4883  0.6503  0.3577
   27FTM     S120347   4.532  -4.270   4.785 -0.5707  0.0038 -0.2019
   27FTM     C120348   4.489  -4.444   4.767 -0.9430  0.0051  0.5669
   27FTM     C220349   4.600  -4.521   4.780 -1.0182 -0.1361  0.3847
   27FTM     C320350   4.723  -4.451   4.804 -0.7960 -0.2514 -0.3464
   27FTM     C420351   4.705  -4.316   4.810 -0.5424 -0.1966 -0.7366
   27FTM     F120352   4.598  -4.659   4.770 -1.2925 -0.1696  0.8690
   27FTM     C520353   4.352  -4.483   4.728 -1.1152 -0.4943  0.8892
   27FTM     C620354   4.299  -4.580   4.825  1.3174  0.7486 -1.7245
   27FTM     C720355   4.313  -4.538   4.985  0.0525  0.1270  0.4809
   27FTM     C820356   4.235  -4.416   5.056 -0.7754 -1.2647 -0.3876
   27FTM     C920357   4.099  -4.352   5.031 -0.9866 -0.3883 -1.9472
   27FTM    C1020358   3.984  -4.441   5.031 -0.4166 -0.3709  0.5521
   27FTM    C1120359   4.160  -4.631   4.791 -1.0247  0.6367 -0.3842
   27FTM    C1220360   4.123  -4.768   4.848 -0.7805 -0.5446 -1.0043
   28TPM     C120361   5.101  -4.421   5.179  0.0107 -1.2234 -0.8632
   28TPM     C220362   5.224  -4.422   5.239  0.2192 -0.9906 -1.2716
   28TPM     C320363   5.230  -4.508   5.354  0.3846  0.0226 -0.4965
   28TPM     C420364   5.113  -4.572   5.382  0.3025  0.5625  0.5027
   28TPM     S120365   4.984  -4.529   5.263  0.0072 -0.1728  0.5426
   29BDD     C120366   5.038  -4.880   5.612  0.3840 -0.0442 -0.1968
   29BDD     C220367   5.083  -4.782   5.697  0.2836 -0.0182 -0.1730
   29BDD     C320368   5.118  -4.659   5.628  0.1276  0.0449 -0.1391
   29BDD     C420369   5.099  -4.664   5.493  0.1114  0.0662 -0.1378
   29BDD     S120370   5.036  -4.824   5.442  0.2903  0.0087 -0.1787
   29BDD     C520371   5.096  -4.798   5.843  0.3273 -0.0504 -0.1802
   29BDD     C620372   5.169  -4.540   5.700  0.0002  0.0819 -0.1092
   29BDD     O120373   5.199  -4.434   5.641 -0.1343  0.1361 -0.0801
   29BDD     O220374   5.066  -4.905   5.902  0.4618 -0.1047 -0.2095
   29BDD     C720375   5.182  -4.556   5.846  0.0439  0.0496 -0.1166
   29BDD     C820376   5.147  -4.680   5.914  0.1999 -0.0134 -0.1506
   29BDD     C920377   5.166  -4.674   6.050  0.2160 -0.0343 -0.1519
   29BDD     S220378   5.229  -4.514   6.101  0.0371  0.0231 -0.1110
   29BDD    C1020379   5.227  -4.458   5.930 -0.0567  0.0758 -0.0926
   29BDD    C1120380   5.312  -4.334   5.914 -0.7009 -0.3944 -0.1694
   29BDD    C1220381   5.416  -4.276   5.990 -1.1536  1.0673 -0.9927
   29BDD    C1320382   5.553  -4.293   5.926 -0.4921  0.1793  0.9631
   29BDD    C1420383   5.622  -4.429   5.915 -0.1994 -0.2154  0.9254
   29BDD    C1520384   5.590  -4.524   5.791  0.9943 -0.8816 -0.2645
   29BDD    C1620385   5.613  -4.466   5.657 -0.2176  1.1091  0.1569
   29BDD    C1720386   5.407  -4.204   6.128  1.6998  0.9832  0.1762
   29BDD    C1820387   5.332  -4.073   6.152 -0.9397 -0.3389  0.4917
   29BDD    C1920388   5.154  -4.765   6.165 -1.1764 -0.1123 -1.6705
   29BDD    C2020389   5.278  -4.864   6.205  0.0583 -0.1695 -0.3047
   29BDD    C2120390   5.267  -4.977   6.305 -0.3834  0.5070 -0.5753
   29BDD    C2220391   5.157  -5.069   6.306  0.0548  1.2411 -0.2992
   29BDD    C2320392   5.036  -5.021   6.364 -0.0950  0.5294  0.2163
   29BDD    C2420393   4.933  -5.139   6.350 -0.6780 -0.1024 -0.5365
   29BDD    C2520394   5.412  -4.774   6.191  2.3693 -0.4120 -1.5810
   29BDD    C2620395   5.550  -4.816   6.190 -0.1904 -1.1387 -0.8301
   30TPM     C120396   4.983  -5.018   5.618 -0.9147  0.2413  0.5668
   30TPM     C220397   5.058  -5.120   5.666 -0.3817  0.5679  0.4416
   30TPM     C320398   5.019  -5.250   5.616  0.5147  0.4498 -0.0014
   30TPM     C420399   4.913  -5.245   5.530  0.6656  0.0329 -0.2139
   30TPM     S120400   4.855  -5.076   5.506 -0.3209 -0.2446  0.1316
   31BDTP    C120401   4.633  -5.630   5.110 -0.1844 -0.0916 -0.1771
   31BDTP    C220402   4.755  -5.698   5.138 -0.0483  0.1217 -0.2450
   31BDTP    C320403   4.848  -5.651   5.230 -0.1069  0.2544 -0.2539
   31BDTP    C420404   4.819  -5.530   5.297 -0.3092  0.1730 -0.1929
   31BDTP    C520405   4.697  -5.462   5.269 -0.4454 -0.0404 -0.1251
   31BDTP    C620406   4.604  -5.510   5.177 -0.3868 -0.1727 -0.1162
   31BDTP    C720407   4.900  -5.462   5.396 -0.4047  0.2801 -0.1887
   31BDTP    C820408   4.845  -5.347   5.443 -0.6036  0.1588 -0.1218
   31BDTP    S120409   4.683  -5.310   5.368 -0.6976 -0.1076 -0.0548
   31BDTP    C920410   4.553  -5.698   5.011 -0.0888 -0.1985 -0.1814
   31BDTP   C1020411   4.607  -5.813   4.964  0.1098 -0.0774 -0.2482
   31BDTP    S220412   4.769  -5.851   5.039  0.2040  0.1892 -0.3153
   32FTM     S120413   5.143  -5.688   5.213 -0.1952 -0.0919 -0.4567
   32FTM     C120414   5.211  -5.792   5.343  0.5216 -0.0790 -0.8125
   32FTM     C220415   5.110  -5.846   5.417  0.9083 -0.4719 -0.5618
   32FTM     C320416   4.977  -5.810   5.378  0.6764 -0.7991 -0.0893
   32FTM     C420417   4.976  -5.726   5.271  0.0931 -0.6518  0.0258
   32FTM     F120418   5.133  -5.930   5.525  1.4950 -0.5586 -0.7457
   32FTM     C520419   5.357  -5.813   5.378  0.1704 -0.3789 -0.3234
   32FTM     C620420   5.409  -5.946   5.409  0.4798  0.1815  0.0592
   32FTM     C720421   5.342  -6.077   5.353 -0.6854  0.8619 -0.5296
   32FTM     C820422   5.371  -6.119   5.208 -0.4616 -0.2492  0.4526
   32FTM     C920423   5.516  -6.120   5.169 -0.6940 -0.1185 -0.3249
   32FTM    C1020424   5.521  -6.181   5.024  0.4267 -0.9513 -0.1883
   32FTM    C1120425   5.557  -5.963   5.452 -0.1273  0.2698  0.1883
   32FTM    C1220426   5.608  -6.089   5.538  0.2826 -1.1969  1.1311
   33FTM     S120427   4.328  -5.489   5.266  0.3725  0.2880  0.3062
   33FTM     C120428   4.228  -5.365   5.182 -0.1312 -0.8494 -0.8243
   33FTM     C220429   4.305  -5.293   5.096 -0.2668 -0.8307 -0.9314
   33FTM     C320430   4.444  -5.329   5.091  0.0062  0.0482 -0.1599
   33FTM     C420431   4.474  -5.431   5.176  0.3625  0.7243  0.5617
   33FTM     F120432   4.255  -5.191   5.017 -0.6461 -1.6083 -1.7346
   33FTM     C520433   4.077  -5.336   5.198 -0.0202  0.2408 -0.3389
   33FTM     C620434   3.959  -5.439   5.208  0.8416 -0.7685  0.0246
   33FTM     C720435   3.817  -5.361   5.221 -0.3994 -1.2423  0.5185
   33FTM     C820436   3.756  -5.277   5.100  0.4458 -1.0224 -1.0040
   33FTM     C920437   3.620  -5.306   5.018  0.2059 -0.0456  0.5707
   33FTM    C1020438   3.624  -5.233   4.887  0.3407  0.0526  1.1653
   33FTM    C1120439   3.966  -5.584   5.258  0.5282  0.4323 -0.1268
   33FTM    C1220440   3.936  -5.589   5.403  0.7069 -0.1966 -0.4647
   34TPM     C120441   4.550  -5.912   4.892  0.1137  0.4900  0.0147
   34TPM     C220442   4.576  -5.964   4.769  0.1097  0.3208  0.0843
   34TPM     C320443   4.487  -6.069   4.730  0.2642  0.0937  0.3366
   34TPM     C420444   4.392  -6.098   4.823  0.3861  0.0896  0.4595
   34TPM     S120445   4.408  -5.993   4.969  0.3145  0.3745  0.2646
   35BDD     C120446   4.043  -6.282   4.838  0.1903 -0.6254  0.5454
   35BDD     C220447   4.110  -6.343   4.735  0.0957 -0.3598  0.3235
   35BDD     C320448   4.241  -6.285   4.710 -0.1419  0.0514 -0.0013
   35BDD     C420449   4.272  -6.182   4.794 -0.2247  0.0932 -0.0223
   35BDD     S120450   4.139  -6.149   4.910 -0.0112 -0.3791  0.3629
   35BDD     C520451   4.056  -6.456   4.657  0.2202 -0.4741  0.4020
   35BDD     C620452   4.331  -6.335   4.604 -0.2780  0.3877 -0.2791
   35BDD     O120453   4.444  -6.286   4.582 -0.4828  0.7423 -0.5592
   35BDD     O220454   3.943  -6.505   4.678  0.4250 -0.8286  0.6820
   35BDD     C720455   4.277  -6.448   4.525 -0.1535  0.2736 -0.2007
   35BDD     C820456   4.146  -6.506   4.550  0.0840 -0.1376  0.1242
   35BDD     C920457   4.115  -6.609   4.467  0.1670 -0.1794  0.1452
   35BDD     S220458   4.248  -6.642   4.351 -0.0466  0.2929 -0.2401
   35BDD    C1020459   4.344  -6.509   4.423 -0.2483  0.5392 -0.4226
   35BDD    C1120460   4.477  -6.465   4.366 -0.3047 -1.6814  1.0300
   35BDD    C1220461   4.611  -6.501   4.394 -0.5386 -0.1341 -0.4724
   35BDD    C1320462   4.744  -6.421   4.382 -0.4308 -0.2628  0.7821
   35BDD    C1420463   4.761  -6.290   4.465 -0.4835 -0.1103 -0.3929
   35BDD    C1520464   4.899  -6.285   4.552  0.7052  0.7674  0.9700
   35BDD    C1620465   4.933  -6.143   4.592  0.1769  0.2403 -0.3389
   35BDD    C1720466   4.646  -6.610   4.508  0.5044 -1.1650 -0.2912
   35BDD    C1820467   4.597  -6.752   4.508 -0.1597 -0.2108  1.1810
   35BDD    C1920468   4.004  -6.717   4.460 -0.3103 -0.8721 -1.0011
   35BDD    C2020469   3.987  -6.823   4.566 -1.4319 -0.1884 -1.2189
   35BDD    C2120470   4.029  -6.778   4.709 -0.3715  0.0242 -0.3496
   35BDD    C2220471   4.068  -6.877   4.810  0.4595  0.6016  0.0203
   35BDD    C2320472   4.122  -6.814   4.927  0.1263  0.0988  0.8479
   35BDD    C2420473   4.115  -6.912   5.054  0.5243 -0.3955  0.5944
   35BDD    C2520474   3.843  -6.877   4.588 -0.0105 -1.8742  0.8611
   35BDD    C2620475   3.776  -6.938   4.457 -0.2606  1.5075 -0.2150
   36TPM     C120476   3.922  -6.292   4.909  0.3947  0.4460  0.7050
   36TPM     C220477   3.811  -6.226   4.865  0.5360  0.8684  0.9663
   36TPM     C320478   3.691  -6.258   4.939  0.5267  1.0849  1.0474
   36TPM     C420479   3.711  -6.348   5.039  0.3785  0.8276  0.8478
   36TPM     S120480   3.884  -6.400   5.049  0.2379  0.2875  0.5396
   37BDTP    C120481   3.422  -6.758   5.405  0.1346 -0.0437  0.1049
   37BDTP    C220482   3.437  -6.645   5.490  0.4109 -0.1414  0.1888
   37BDTP    C320483   3.491  -6.524   5.446  0.5078 -0.1732  0.2211
   37BDTP    C420484   3.532  -6.515   5.312  0.3240 -0.1055  0.1681
   37BDTP    C520485   3.518  -6.629   5.227  0.0477 -0.0077  0.0842
   37BDTP    C620486   3.463  -6.749   5.271 -0.0491  0.0241  0.0517
   37BDTP    C720487   3.591  -6.402   5.244  0.3772 -0.1214  0.1876
   37BDTP    C820488   3.621  -6.424   5.114  0.1571 -0.0411  0.1228
   37BDTP    S120489   3.579  -6.592   5.059 -0.1484  0.0656  0.0284
   37BDTP    C920490   3.363  -6.872   5.473  0.0815 -0.0278  0.0855
   37BDTP   C1020491   3.333  -6.849   5.603  0.3015 -0.1080  0.1502
   37BDTP    S220492   3.376  -6.681   5.658  0.6070 -0.2146  0.2446
   38FTM     S120493   3.433  -6.362   5.694  0.5860  0.2243  0.2101
   38FTM     C120494   3.560  -6.238   5.726  0.4583  0.4723 -0.2318
   38FTM     C220495   3.656  -6.245   5.630  0.3520  0.3755 -0.3320
   38FTM     C320496   3.637  -6.344   5.528  0.3628  0.1088 -0.0772
   38FTM     C420497   3.523  -6.416   5.547  0.4815 -0.0020  0.2278
   38FTM     F120498   3.767  -6.161   5.628  0.2383  0.5225 -0.6601
   38FTM     C520499   3.565  -6.178   5.864  1.4123  0.7536  0.5950
   38FTM     C620500   3.688  -6.193   5.958  0.1176  1.0576 -0.5938
   38FTM     C720501   3.706  -6.090   6.066 -0.9384  0.0539 -0.6914
   38FTM     C820502   3.853  -6.083   6.135  0.3047 -1.2051  0.8079
   38FTM     C920503   3.889  -6.000   6.262  1.3656 -0.0534  0.2586
   38FTM    C1020504   3.789  -6.038   6.386 -1.0366 -0.3388  0.5293
   38FTM    C1120505   3.715  -6.344   6.003 -0.6221  0.7769  0.3456
   38FTM    C1220506   3.813  -6.423   5.913  0.2967 -0.5227 -0.6925
   39FTM     S120507   3.291  -6.820   5.040  0.0535 -0.2855  0.0968
   39FTM     C120508   3.320  -6.988   4.983 -0.5954 -0.4077  0.1195
   39FTM     C220509   3.411  -7.049   5.064 -0.6067 -0.6487 -0.0491
   39FTM     C320510   3.463  -6.971   5.172 -0.1233 -0.7505 -0.2025
   39FTM     C420511   3.410  -6.845   5.174  0.2712 -0.5821 -0.1496
   39FTM     F120512   3.453  -7.180   5.044 -1.0557 -0.7913 -0.0745
   39FTM     C520513   3.265  -7.000   4.847 -0.0753  0.0801  0.6560
   39FTM     C620514   3.292  -7.115   4.747  0.5621  0.7143  0.5845
   39FTM     C720515   3.342  -7.248   4.772  0.9790 -0.7088 -0.6350
   39FTM     C820516   3.237  -7.331   4.840 -0.4639  0.2413 -1.0943
   39FTM     C920517   3.282  -7.486   4.841 -1.0518 -0.4909 -0.3062
   39FTM    C1020518   3.185  -7.566   4.905 -0.0673 -0.1290 -0.0089
   39FTM    C1120519   3.306  -7.076   4.598  1.5013 -0.9718  0.3320
   39FTM    C1220520   3.220  -6.945   4.547 -1.0836  0.9330  0.0131
   40TPM     C120521   3.302  -6.955   5.698  0.1509 -0.0422  0.3468
   40TPM     C220522   3.194  -7.038   5.703  0.2112 -0.1433 -0.0366
   40TPM     C320523   3.210  -7.150   5.791  0.2656 -0.5064 -0.5007
   40TPM     C420524   3.331  -7.153   5.854  0.2466 -0.6824 -0.4712
   40TPM     S120525   3.434  -7.013   5.807  0.1581 -0.4007  0.1499
   41BDD     C120526   3.326  -7.462   6.090 -0.4947  0.2902  0.1452
   41BDD     C220527   3.417  -7.378   6.147 -0.1571  0.0761 -0.0687
   41BDD     C320528   3.435  -7.254   6.073  0.5161 -0.2741 -0.5136
   41BDD     C420529   3.357  -7.246   5.961  0.6819 -0.3217 -0.6322
   41BDD     S120530   3.256  -7.393   5.940  0.0069  0.0682 -0.1954
   41BDD     C520531   3.490  -7.408   6.272 -0.4410  0.1854  0.1278
   41BDD     C620532   3.528  -7.148   6.117  0.9704 -0.5486 -0.8047
   41BDD     O120533   3.544  -7.042   6.054  1.5509 -0.8504 -1.1882
   41BDD     O220534   3.475  -7.515   6.335 -1.0214  0.4873  0.5114
   41BDD     C720535   3.602  -7.179   6.242  0.6866 -0.4392 -0.6080
   41BDD     C820536   3.584  -7.302   6.315  0.0134 -0.0892 -0.1632
   41BDD     C920537   3.661  -7.311   6.428 -0.1525 -0.0414 -0.0443
   41BDD     S220538   3.762  -7.164   6.449  0.5226 -0.4315 -0.4812
   41BDD    C1020539   3.693  -7.094   6.299  1.0242 -0.6534 -0.8218
   41BDD    C1120540   3.733  -6.953   6.259  0.3855  0.1444  0.6422
   41BDD    C1220541   3.838  -6.878   6.355 -0.0798 -0.6498 -0.0102
   41BDD    C1320542   3.851  -6.725   6.330  0.4174  0.7733  0.1842
   41BDD    C1420543   3.732  -6.649   6.386 -0.0910  0.0906  2.2579
   41BDD    C1520544   3.773  -6.498   6.400 -0.6808  1.5009  0.0520
   41BDD    C1620545   3.650  -6.410   6.408 -0.0540 -0.5746  0.1753
   41BDD    C1720546   3.983  -6.915   6.345  1.0935 -1.0826  0.6132
   41BDD    C1820547   4.052  -6.928   6.203  1.6484 -0.4056 -0.6726
   41BDD    C1920548   3.676  -7.426   6.538 -0.3748 -0.1934  0.9313
   41BDD    C2020549   3.671  -7.385   6.679 -0.0069  0.7258 -1.4689
   41BDD    C2120550   3.813  -7.367   6.726  0.0287  0.6555  0.2204
   41BDD    C2220551   3.848  -7.418   6.862 -0.0317  1.3156 -1.0314
   41BDD    C2320552   3.884  -7.559   6.904  2.1240  2.1320  0.5181
   41BDD    C2420553   3.961  -7.520   7.021 -0.3789 -0.4178 -0.0589
   41BDD    C2520554   3.558  -7.332   6.767  0.6630  1.0165  0.6911
   41BDD    C2620555   3.409  -7.376   6.725 -0.9971 -0.7285 -0.3451
   42TPM     C120556   3.285  -7.602   6.102  0.5972  0.1693  0.5104
   42TPM     C220557   3.231  -7.660   5.992  0.4966  0.6565  0.2965
   42TPM     C320558   3.227  -7.804   5.998 -0.3417  0.6611  0.0539
   42TPM     C420559   3.277  -7.855   6.114 -0.8800  0.1770  0.0828
   42TPM     S120560   3.334  -7.725   6.225 -0.3662 -0.3259  0.4215
   43BDTP    C120561   3.274  -8.443   6.344  0.1326 -0.1178 -0.0387
   43BDTP    C220562   3.401  -8.397   6.390  0.1029  0.0558 -0.1303
   43BDTP    C320563   3.449  -8.270   6.362 -0.0722  0.1067 -0.2024
   43BDTP    C420564   3.368  -8.184   6.285 -0.2256 -0.0194 -0.1832
   43BDTP    C520565   3.242  -8.231   6.239 -0.1959 -0.1930 -0.0919
   43BDTP    C620566   3.194  -8.358   6.267 -0.0208 -0.2438 -0.0198
   43BDTP    C720567   3.397  -8.049   6.243 -0.4197  0.0027 -0.2465
   43BDTP    C820568   3.299  -7.992   6.169 -0.5358 -0.1442 -0.2074
   43BDTP    S120569   3.157  -8.102   6.141 -0.4155 -0.3309 -0.0850
   43BDTP    C920570   3.245  -8.579   6.386  0.3268 -0.1398  0.0243
   43BDTP   C1020571   3.343  -8.636   6.461  0.4428  0.0070 -0.0148
   43BDTP    S220572   3.485  -8.526   6.488  0.3226  0.1937 -0.1372
   44FTM     S120573   3.703  -8.168   6.278  0.0134  0.0879 -0.0889
   44FTM     C120574   3.750  -8.037   6.393 -0.2446 -0.0265  0.1482
   44FTM     C220575   3.674  -8.045   6.506 -0.1479 -0.4568  0.1869
   44FTM     C320576   3.577  -8.150   6.509  0.1259 -0.7174  0.0379
   44FTM     C420577   3.578  -8.226   6.395  0.2428 -0.4789 -0.1200
   44FTM     F120578   3.688  -7.957   6.612 -0.3018 -0.6401  0.3592
   44FTM     C520579   3.877  -7.970   6.361  0.5462  0.2399  0.9890
   44FTM     C620580   3.834  -7.819   6.326  0.7199 -0.0079 -1.0439
   44FTM     C720581   3.819  -7.714   6.443  0.2960 -0.8748 -0.3278
   44FTM     C820582   3.935  -7.700   6.539 -0.1177  0.5361 -0.5445
   44FTM     C920583   4.074  -7.696   6.485 -0.4472 -0.2183  1.4759
   44FTM    C1020584   4.183  -7.712   6.587 -0.4360 -0.1822  0.5865
   44FTM    C1120585   3.800  -7.804   6.186  1.1860  1.2215  1.2827
   44FTM    C1220586   3.647  -7.797   6.137  1.2414 -0.5168  0.0716
   45FTM     S120587   2.932  -8.294   6.146  0.1951  0.1779  0.1518
   45FTM     C120588   2.845  -8.439   6.082  0.1707  0.3877 -0.2975
   45FTM     C220589   2.912  -8.552   6.117 -0.1997  0.2323 -0.0744
   45FTM     C320590   3.032  -8.534   6.193 -0.4803 -0.0527  0.4470
   45FTM     C420591   3.058  -8.402   6.218 -0.3194 -0.1174  0.6290
   45FTM     F120592   2.869  -8.679   6.081 -0.3067  0.3387 -0.3291
   45FTM     C520593   2.715  -8.389   6.021  0.4680  1.5259  0.9664
   45FTM     C620594   2.579  -8.406   6.084  1.3084  0.2738  0.1474
   45FTM     C720595   2.519  -8.539   6.142  0.1213  0.3796  0.1428
   45FTM     C820596   2.486  -8.550   6.300 -1.0406 -0.6690 -0.1160
   45FTM     C920597   2.433  -8.688   6.324 -0.5300 -0.5701 -0.1812
   45FTM    C1020598   2.320  -8.716   6.428 -0.2706  0.3196  0.0016
   45FTM    C1120599   2.458  -8.295   6.074 -0.4004  0.5952 -0.0807
   45FTM    C1220600   2.503  -8.164   6.149  0.6336  0.1081 -0.9824
   46TPM     C120601   3.360  -8.770   6.474 -0.1491 -0.1346 -0.3341
   46TPM     C220602   3.462  -8.848   6.429 -0.0730 -0.0221 -0.3562
   46TPM     C320603   3.450  -8.987   6.466  0.3000  0.0379 -0.0044
   46TPM     C420604   3.339  -9.015   6.540  0.5084 -0.0287  0.2859
   46TPM     S120605   3.240  -8.867   6.569  0.2475 -0.1737  0.1364
   47BDD     C120606   3.216  -9.370   6.440 -0.0545  0.4920  0.1494
   47BDD     C220607   3.300  -9.387   6.546  0.0249  0.2925  0.0567
   47BDD     C320608   3.346  -9.261   6.603  0.1138  0.1857  0.2221
   47BDD     C420609   3.295  -9.151   6.540  0.1008  0.3052  0.4387
   47BDD     S120610   3.187  -9.197   6.404 -0.0236  0.5597  0.4503
   47BDD     C520611   3.343  -9.518   6.598  0.0222  0.1929 -0.1875
   47BDD     C620612   3.438  -9.255   6.719  0.2084 -0.0311  0.1595
   47BDD     O120613   3.477  -9.147   6.768  0.2850 -0.1232  0.3022
   47BDD     O220614   3.304  -9.626   6.549 -0.0544  0.2851 -0.3301
   47BDD     C720615   3.480  -9.386   6.771  0.2055 -0.1307 -0.0845
   47BDD     C820616   3.435  -9.512   6.714  0.1167 -0.0238 -0.2500
   47BDD     C920617   3.486  -9.622   6.777  0.1297 -0.1433 -0.4666
   47BDD     S220618   3.594  -9.576   6.913  0.2541 -0.3978 -0.4781
   47BDD    C1020619   3.565  -9.402   6.877  0.2850 -0.3301 -0.1774
   47BDD    C1120620   3.620  -9.294   6.959 -1.2686 -0.5421 -2.1067
   47BDD    C1220621   3.601  -9.289   7.112 -0.0229  0.0415 -1.4252
   47BDD    C1320622   3.672  -9.175   7.184 -0.3717  0.9982 -0.0831
   47BDD    C1420623   3.820  -9.136   7.182 -1.6771  1.5166 -0.2948
   47BDD    C1520624   3.903  -9.086   7.295  0.1740 -1.5032  0.9014
   47BDD    C1620625   4.056  -9.085   7.293 -0.5974  0.1060 -0.1858
   47BDD    C1720626   3.468  -9.358   7.179 -0.9477  1.0754 -0.1095
   47BDD    C1820627   3.355  -9.251   7.201 -0.0410  1.5213  1.5118
   47BDD    C1920628   3.486  -9.762   6.743  0.8481  1.3698  1.5466
   47BDD    C2020629   3.570  -9.820   6.630  0.2425 -0.4591  0.2394
   47BDD    C2120630   3.548  -9.970   6.612 -1.3026  0.0250  0.3712
   47BDD    C2220631   3.438  -9.984   6.501 -0.4541 -1.0912  0.4101
   47BDD    C2320632   3.477  -9.937   6.361  0.6699  0.0122 -0.5682
   47BDD    C2420633   3.347  -9.937   6.272  1.4216  0.9388 -0.6933
   47BDD    C2520634   3.712  -9.741   6.645 -1.2045  0.0202  0.6665
   47BDD    C2620635   3.756  -9.688   6.499  0.4737  0.4035 -0.4481
   48TPM     C120636   3.155  -9.462   6.347 -0.0198 -0.0398  0.4984
   48TPM     C220637   3.225  -9.526   6.249 -0.0581  0.3878  0.1847
   48TPM     C320638   3.144  -9.610   6.165 -0.1182  0.8901 -0.2662
   48TPM     C420639   3.012  -9.610   6.198 -0.1258  0.8453 -0.2960
   48TPM     S120640   2.979  -9.503   6.339 -0.0571  0.1601  0.2468
   49BDTP    C120641   2.557  -9.932   5.910 -0.0175  0.0437  0.0001
   49BDTP    C220642   2.571 -10.004   6.033 -0.0972 -0.0010 -0.0168
   49BDTP    C320643   2.667  -9.972   6.128 -0.1841 -0.0116  0.0749
   49BDTP    C420644   2.753  -9.864   6.101 -0.1929  0.0237  0.1888
   49BDTP    C520645   2.739  -9.792   5.979 -0.1132  0.0685  0.2056
   49BDTP    C620646   2.643  -9.824   5.884 -0.0263  0.0790  0.1140
   49BDTP    C720647   2.860  -9.813   6.184 -0.2758  0.0209  0.2972
   49BDTP    C820648   2.926  -9.707   6.131 -0.2621  0.0610  0.3934
   49BDTP    S120649   2.862  -9.658   5.968 -0.1427  0.1079  0.3603
   49BDTP    C920650   2.450  -9.984   5.827  0.0653  0.0465 -0.1084
   49BDTP   C1020651   2.384 -10.090   5.880  0.0518  0.0063 -0.2044
   49BDTP    S220652   2.448 -10.139   6.043 -0.0677 -0.0404 -0.1715
   50FTM     S120653   2.500 -10.031   6.362  0.2134  0.0764  0.0218
   50FTM     C120654   2.584 -10.101   6.505  0.1332  0.4767  0.2683
   50FTM     C220655   2.715 -10.122   6.476  0.1693  0.4794  0.4301
   50FTM     C320656   2.758 -10.085   6.344  0.2595  0.1776  0.3736
   50FTM     C420657   2.656 -10.035   6.269  0.2935 -0.0640  0.1617
   50FTM     F120658   2.805 -10.175   6.568  0.1230  0.7553  0.6392
   50FTM     C520659   2.522 -10.129   6.632  1.4239 -0.4463  1.4026
   50FTM     C620660   2.408 -10.232   6.617  0.7635  0.4192  2.1921
   50FTM     C720661   2.265 -10.184   6.570  0.1411 -0.8907  0.1202
   50FTM     C820662   2.169 -10.303   6.537  1.0139 -0.5499 -0.8281
   50FTM     C920663   2.061 -10.342   6.632  1.1531 -0.0712 -1.5052
   50FTM    C1020664   1.974 -10.229   6.698  0.4250  0.7792 -0.1888
   50FTM    C1120665   2.426 -10.313   6.741  0.1815  0.3790  1.0982
   50FTM    C1220666   2.560 -10.363   6.806  1.1047  0.1859 -0.3648
   51FTM     S120667   2.522  -9.585   5.780 -0.0885  0.2934  0.2462
   51FTM     C120668   2.549  -9.558   5.604  0.0455 -0.5902  0.1207
   51FTM     C220669   2.622  -9.660   5.552 -0.1954 -1.0229  0.6163
   51FTM     C320670   2.660  -9.764   5.643 -0.4916 -0.7015  1.1119
   51FTM     C420671   2.615  -9.740   5.770 -0.4771  0.0002  0.9917
   51FTM     F120672   2.659  -9.667   5.418 -0.1619 -1.7357  0.6506
   51FTM     C520673   2.526  -9.421   5.547 -0.1403  0.2366 -0.6965
   51FTM     C620674   2.592  -9.303   5.610 -1.6563 -0.4766 -1.3872
   51FTM     C720675   2.731  -9.303   5.703 -0.2234  0.3040 -0.3207
   51FTM     C820676   2.853  -9.392   5.656 -1.6055  0.6168 -0.3710
   51FTM     C920677   2.994  -9.396   5.730  0.3988 -0.3947 -1.4748
   51FTM    C1020678   3.105  -9.278   5.709 -0.0941  0.8747 -0.4525
   51FTM    C1120679   2.604  -9.179   5.524  0.2830 -0.4689 -1.6223
   51FTM    C1220680   2.483  -9.094   5.481  0.9887 -0.2055 -0.2096
   52TPM     C120681   2.258 -10.157   5.827 -0.5073 -0.5301 -0.1103
   52TPM     C220682   2.209 -10.272   5.882 -0.5848 -0.4544 -0.0201
   52TPM     C320683   2.071 -10.297   5.850 -0.6935 -0.2230  0.2620
   52TPM     C420684   2.014 -10.201   5.771 -0.6988 -0.1222  0.3869
   52TPM     S120685   2.132 -10.071   5.730 -0.5659 -0.3133  0.1562
   53BDD     C120686   1.708 -10.152   5.538 -0.0563  0.0436  0.0973
   53BDD     C220687   1.659 -10.219   5.647  0.0031 -0.0235  0.0829
   53BDD     C320688   1.761 -10.255   5.743  0.0527 -0.0623  0.0166
   53BDD     C420689   1.887 -10.215   5.707  0.0303 -0.0241 -0.0190
   53BDD     S120690   1.886 -10.129   5.549 -0.0543  0.0629  0.0286
   53BDD     C520691   1.516 -10.253   5.665  0.0165 -0.0545  0.1296
   53BDD     C620692   1.730 -10.328   5.868  0.1205 -0.1357 -0.0094
   53BDD     O120693   1.818 -10.358   5.952  0.1632 -0.1691 -0.0666
   53BDD     O220694   1.428 -10.222   5.582 -0.0263 -0.0211  0.1868
   53BDD     C720695   1.588 -10.361   5.887  0.1338 -0.1667  0.0374
   53BDD     C820696   1.486 -10.325   5.790  0.0842 -0.1279  0.1037
   53BDD     C920697   1.360 -10.366   5.826  0.1066 -0.1661  0.1391
   53BDD     S220698   1.361 -10.451   5.984  0.1912 -0.2531  0.0917
   53BDD    C1020699   1.539 -10.428   5.996  0.1933 -0.2338  0.0231
   53BDD    C1120700   1.607 -10.505   6.107  1.0593  0.0036  0.5807
   53BDD    C1220701   1.634 -10.459   6.250  0.6190 -0.5667  0.6252
   53BDD    C1320702   1.516 -10.396   6.323  1.1542 -0.8873 -1.3157
   53BDD    C1420703   1.373 -10.455   6.348 -0.0340  1.1326  0.0600
   53BDD    C1520704   1.269 -10.378   6.427  0.8914 -0.4332 -0.3730
   53BDD    C1620705   1.290 -10.313   6.556  0.4532 -0.1984  0.0576
   53BDD    C1720706   1.769 -10.394   6.276 -0.7677 -0.1437  0.8129
   53BDD    C1820707   1.792 -10.259   6.334  0.3921  0.1544 -0.5689
   53BDD    C1920708   1.222 -10.371   5.764  1.3358  0.8698  0.4898
   53BDD    C2020709   1.130 -10.243   5.799  1.9164 -0.9160  2.2254
   53BDD    C2120710   0.984 -10.262   5.857 -0.9890 -1.1287 -0.3883
   53BDD    C2220711   0.930 -10.210   5.994 -0.7566  1.4508 -0.0368
   53BDD    C2320712   0.769 -10.249   5.992  0.1862 -1.0232  1.0059
   53BDD    C2420713   0.720 -10.205   6.122  0.3960  0.9336 -0.2093
   53BDD    C2520714   1.182 -10.100   5.759 -1.0750 -0.4122 -0.9413
   53BDD    C2620715   1.227 -10.024   5.890 -1.3994  0.0543  0.3453
   54TPM     C120716   1.662 -10.078   5.417 -0.5837 -0.2503  0.2491
   54TPM     C220717   1.746 -10.025   5.324 -0.4887 -0.5473  0.1652
   54TPM     C320718   1.682  -9.935   5.232 -0.2683 -0.3324  0.2190
   54TPM     C420719   1.548  -9.919   5.255 -0.1951  0.1284  0.3439
   54TPM     S120720   1.493 -10.017   5.395 -0.4006  0.3282  0.4039
   55BDTP    C120721   1.135  -9.570   4.945  0.0274 -0.1866 -0.1523
   55BDTP    C220722   1.258  -9.526   4.888 -0.0258 -0.3403 -0.3895
   55BDTP    C320723   1.381  -9.578   4.925 -0.0010 -0.3334 -0.4607
   55BDTP    C420724   1.383  -9.679   5.024  0.0800 -0.1674 -0.2906
   55BDTP    C520725   1.260  -9.723   5.080  0.1332 -0.0137 -0.0536
   55BDTP    C620726   1.137  -9.671   5.043  0.1085 -0.0205  0.0179
   55BDTP    C720727   1.498  -9.748   5.078  0.1194 -0.1275 -0.3231
   55BDTP    C820728   1.468  -9.841   5.172  0.1986  0.0464 -0.1242
   55BDTP    S120729   1.289  -9.854   5.205  0.2345  0.1842  0.1321
   55BDTP    C920730   1.020  -9.501   4.890 -0.0120 -0.2264 -0.1199
   55BDTP   C1020731   1.051  -9.408   4.796 -0.0912 -0.4003 -0.3190
   55BDTP    S220732   1.229  -9.395   4.764 -0.1270 -0.5381 -0.5750
   56FTM     S120733   1.587  -9.688   4.757 -0.2927  0.3021  0.1154
   56FTM     C120734   1.715  -9.575   4.700 -0.6340  0.5479 -0.1691
   56FTM     C220735   1.687  -9.449   4.742 -0.3455  0.3601  0.6254
   56FTM     C320736   1.568  -9.432   4.819  0.1466  0.0218  1.4830
   56FTM     C420737   1.502  -9.550   4.837  0.2380 -0.0519  1.3408
   56FTM     F120738   1.768  -9.340   4.712 -0.5100  0.4835  0.6232
   56FTM     C520739   1.842  -9.633   4.621 -0.0195 -0.7395 -0.0404
   56FTM     C620740   1.968  -9.561   4.670  0.2726  0.2990 -0.5839
   56FTM     C720741   2.087  -9.619   4.582  0.6818  0.6005 -0.5131
   56FTM     C820742   2.165  -9.544   4.493 -0.5173  0.2602  1.0305
   56FTM     C920743   2.095  -9.471   4.393  1.4236 -0.1005  0.0733
   56FTM    C1020744   2.157  -9.411   4.273 -0.6946 -1.0221  0.4462
   56FTM    C1120745   1.992  -9.563   4.827 -0.1085  0.6404 -0.6137
   56FTM    C1220746   2.047  -9.693   4.903  0.7352 -0.3880  1.5268
   57FTM     S120747   0.960  -9.889   5.108 -0.6290  0.0400  0.0892
   57FTM     C120748   0.821  -9.853   5.216 -0.6572  0.8733 -0.2114
   57FTM     C220749   0.820  -9.721   5.248 -0.1107  0.9408 -0.4562
   57FTM     C320750   0.925  -9.641   5.191  0.3521  0.3627 -0.4255
   57FTM     C420751   1.009  -9.715   5.114  0.1535 -0.1648 -0.1483
   57FTM     F120752   0.724  -9.664   5.330  0.0030  1.5301 -0.7225
   57FTM     C520753   0.743  -9.976   5.256  0.8064 -0.4451 -0.7110
   57FTM     C620754   0.599 -10.012   5.230  0.1414  1.2074  0.1742
   57FTM     C720755   0.566 -10.151   5.276  0.6032 -0.0266  0.8375
   57FTM     C820756   0.648 -10.276   5.231  1.8863  0.1031  0.4843
   57FTM     C920757   0.573 -10.400   5.289  0.0647 -0.4227 -0.6130
   57FTM    C1020758   0.648 -10.536   5.241  0.0836  0.4782 -1.1511
   57FTM    C1120759   0.503  -9.890   5.276 -0.6401  1.9087  0.4045
   57FTM    C1220760   0.353  -9.899   5.297 -0.9965  0.8088 -1.0262
   58TPM     C120761   0.977  -9.293   4.786 -0.3551 -0.2168  0.6506
   58TPM     C220762   1.027  -9.170   4.817 -0.2254 -0.3345  0.9180
   58TPM     C320763   0.928  -9.066   4.822 -0.0672 -0.1749  0.7875
   58TPM     C420764   0.801  -9.110   4.795 -0.0763  0.0645  0.4205
   58TPM     S120765   0.798  -9.287   4.762 -0.2871  0.1072  0.2097
   59BDD     C120766   0.563  -8.805   4.764  0.3860 -0.0721  0.2390
   59BDD     C220767   0.500  -8.894   4.847  0.2870 -0.0673  0.1699
   59BDD     C320768   0.577  -9.015   4.870  0.1623 -0.1609  0.0941
   59BDD     C420769   0.697  -9.016   4.804  0.1681 -0.2358  0.1064
   59BDD     S120770   0.722  -8.866   4.709  0.3300 -0.1943  0.2137
   59BDD     C520771   0.368  -8.870   4.908  0.3033  0.0235  0.1713
   59BDD     C620772   0.529  -9.124   4.956  0.0420 -0.1727  0.0124
   59BDD     O120773   0.595  -9.229   4.976 -0.0655 -0.2534 -0.0530
   59BDD     O220774   0.302  -8.766   4.888  0.4107  0.1042  0.2364
   59BDD     C720775   0.396  -9.101   5.017  0.0583 -0.0819  0.0136
   59BDD     C820776   0.319  -8.980   4.994  0.1829  0.0117  0.0894
   59BDD     C920777   0.200  -8.978   5.060  0.1772  0.0865  0.0770
   59BDD     S220778   0.175  -9.128   5.155  0.0153  0.0451 -0.0304
   59BDD    C1020779   0.334  -9.190   5.100 -0.0407 -0.0771 -0.0554
   59BDD    C1120780   0.371  -9.323   5.131 -0.5530  1.5445  0.0128
   59BDD    C1220781   0.295  -9.453   5.087  1.1040  0.1306 -0.3382
   59BDD    C1320782   0.347  -9.549   4.973 -0.5670 -1.1559 -0.3304
   59BDD    C1420783   0.508  -9.569   4.995  0.1635 -0.2449  0.5448
   59BDD    C1520784   0.592  -9.651   4.903 -0.5276 -0.4163 -0.4754
   59BDD    C1620785   0.586  -9.575   4.767  0.2550 -0.4218  0.9032
   59BDD    C1720786   0.147  -9.449   5.124  0.3846  0.3503  1.4133
   59BDD    C1820787   0.102  -9.479   5.269 -0.8156  0.4380 -0.4391
   59BDD    C1920788   0.082  -8.889   5.057 -0.9571 -0.2739 -0.5008
   59BDD    C2020789   0.005  -8.888   4.915  0.4411 -0.5296 -0.9263
   59BDD    C2120790  -0.031  -9.008   4.846  0.4275  0.4650  0.6754
   59BDD    C2220791  -0.130  -9.104   4.922  0.5580  0.1388  0.0195
   59BDD    C2320792  -0.164  -9.213   4.821 -0.9940 -0.1499  1.7916
   59BDD    C2420793  -0.252  -9.322   4.850  0.3563 -0.5318 -0.5549
   59BDD    C2520794  -0.118  -8.796   4.922 -0.7867  1.0262  1.0172
   59BDD    C2620795  -0.224  -8.756   5.029 -0.2270 -0.6521  0.1133
   60TPM     C120796   0.508  -8.692   4.685 -0.3190 -0.1234  0.1131
   60TPM     C220797   0.509  -8.699   4.549  0.3002  0.4460  0.0770
   60TPM     C320798   0.424  -8.602   4.485  0.9875  1.0578  0.0615
   60TPM     C420799   0.358  -8.521   4.572  0.8924  0.9550  0.0858
   60TPM     S120800   0.398  -8.561   4.743 -0.0801  0.0704  0.1305
    1BDTP    C120801   9.412  10.559   9.156 -0.0894  0.2363  0.0241
    1BDTP    C220802   9.471  10.657   9.071 -0.1221 -0.0222 -0.2985
    1BDTP    C320803   9.608  10.674   9.060 -0.1256 -0.0656 -0.4194
    1BDTP    C420804   9.691  10.592   9.138 -0.0954  0.1554 -0.2129
    1BDTP    C520805   9.633  10.494   9.223 -0.0625  0.4139  0.1092
    1BDTP    C620806   9.495  10.476   9.234 -0.0588  0.4577  0.2302
    1BDTP    C720807   9.836  10.591   9.144 -0.0922  0.1596 -0.2844
    1BDTP    C820808   9.888  10.499   9.228 -0.0594  0.4051 -0.0343
    1BDTP    S120809   9.761  10.400   9.312 -0.0269  0.6664  0.3266
    1BDTP    C920810   9.267  10.560   9.150 -0.0923  0.2325  0.0954
    1BDTP   C1020811   9.215  10.652   9.066 -0.1254 -0.0134 -0.1550
    1BDTP    S220812   9.342  10.751   8.982 -0.1576 -0.2743 -0.5159
    2FTM     S120813   9.664  10.774   8.800  0.2115  0.0724  0.4772
    2FTM     C120814   9.715  10.947   8.791  0.6566 -0.0445  0.7125
    2FTM     C220815   9.719  11.000   8.916  0.2899 -0.0827  0.7432
    2FTM     C320816   9.684  10.912   9.023 -0.3440 -0.0248  0.5896
    2FTM     C420817   9.652  10.788   8.979 -0.4666  0.0607  0.4359
    2FTM     F120818   9.756  11.132   8.940  0.5066 -0.1726  0.9129
    2FTM     C520819   9.750  11.015   8.663 -1.4696  0.4439 -0.0957
    2FTM     C620820   9.648  11.023   8.556  1.8999  0.2817 -0.0327
    2FTM     C720821   9.631  10.925   8.435  0.2407 -1.2803  0.0681
    2FTM     C820822   9.749  10.887   8.343  1.3655 -0.0579  0.8932
    2FTM     C920823   9.868  10.805   8.403 -0.8187  0.2129 -0.4410
    2FTM    C1020824   9.928  10.674   8.334 -0.3030 -0.0431  0.7701
    2FTM    C1120825   9.500  11.072   8.569 -0.0695  0.1572 -0.2916
    2FTM    C1220826   9.495  11.220   8.602 -0.2060 -0.0571 -1.0208
    3FTM     S120827   9.474  10.193   9.267  0.1909  0.3269  0.0328
    3FTM     C120828   9.388  10.130   9.412  0.2746  0.7025  0.2472
    3FTM     C220829   9.340  10.234   9.486  0.4652  0.8986  0.0980
    3FTM     C320830   9.366  10.365   9.435  0.5558  0.7725 -0.1853
    3FTM     C420831   9.437  10.362   9.319  0.4303  0.4691 -0.2559
    3FTM     F120832   9.268  10.216   9.603  0.5691  1.2047  0.2091
    3FTM     C520833   9.366   9.987   9.427 -1.3821 -0.3310 -0.5919
    3FTM     C620834   9.479   9.895   9.477  0.1109 -0.4669 -1.6069
    3FTM     C720835   9.421   9.787   9.574  0.2505  1.1506 -0.4173
    3FTM     C820836   9.281   9.800   9.656 -0.6494 -0.1693 -0.3787
    3FTM     C920837   9.296   9.915   9.767  0.1697 -2.3140  0.9826
    3FTM    C1020838   9.400   9.908   9.866  0.2941  0.5556  0.8025
    3FTM    C1120839   9.622   9.895   9.437  0.4239  0.4376  1.0753
    3FTM    C1220840   9.731   9.865   9.537 -1.0253  0.2457  1.0107
    4TPM     C120841   9.087  10.685   9.024 -0.3543 -0.5868 -0.2555
    4TPM     C220842   9.018  10.646   8.913 -0.8578 -0.2494 -0.0668
    4TPM     C320843   8.881  10.692   8.911 -0.6180  0.5233  0.2644
    4TPM     C420844   8.846  10.764   9.021  0.0684  0.7755  0.3281
    4TPM     S120845   8.984  10.781   9.136  0.4682  0.0504 -0.0279
    5BDD     C120846   8.511  10.948   8.919 -0.0707  0.2321 -0.0781
    5BDD     C220847   8.508  10.947   9.055 -0.0849  0.2005 -0.0787
    5BDD     C320848   8.625  10.885   9.115 -0.1080  0.1545 -0.0813
    5BDD     C420849   8.715  10.839   9.024 -0.1107  0.1519 -0.0829
    5BDD     S120850   8.661  10.871   8.856 -0.0849  0.2067 -0.0811
    5BDD     C520851   8.398  11.003   9.136 -0.0777  0.2110 -0.0763
    5BDD     C620852   8.642  10.873   9.262 -0.1261  0.1149 -0.0820
    5BDD     O120853   8.743  10.820   9.314 -0.1462  0.0751 -0.0844
    5BDD     O220854   8.297  11.057   9.084 -0.0579  0.2508 -0.0739
    5BDD     C720855   8.532  10.930   9.342 -0.1190  0.1256 -0.0801
    5BDD     C820856   8.415  10.992   9.282 -0.0958  0.1717 -0.0775
    5BDD     C920857   8.325  11.037   9.374 -0.0930  0.1740 -0.0761
    5BDD     S220858   8.379  11.006   9.542 -0.1189  0.1193 -0.0775
    5BDD    C1020859   8.529  10.929   9.479 -0.1333  0.0937 -0.0808
    5BDD    C1120860   8.618  10.874   9.583  0.5133  1.6943 -1.4965
    5BDD    C1220861   8.629  10.715   9.602 -0.1247  0.6304  1.8426
    5BDD    C1320862   8.766  10.678   9.674  0.0876  0.0167 -0.5352
    5BDD    C1420863   8.849  10.561   9.605  0.2326 -1.6225  0.1065
    5BDD    C1520864   8.970  10.506   9.672 -0.8580 -0.7671 -1.3173
    5BDD    C1620865   9.130  10.527   9.632  0.4207 -0.0910  1.2353
    5BDD    C1720866   8.502  10.644   9.642 -0.3173  1.7013 -0.2577
    5BDD    C1820867   8.434  10.674   9.779  0.3628  0.9968 -0.7464
    5BDD    C1920868   8.186  11.114   9.374  0.6171 -0.5004  0.0402
    5BDD    C2020869   8.046  11.024   9.391 -0.6989  1.5386  0.5287
    5BDD    C2120870   8.063  10.928   9.262 -1.3264 -0.5307 -0.6738
    5BDD    C2220871   7.953  10.831   9.210  0.9730  0.4181 -1.2491
    5BDD    C2320872   7.926  10.713   9.307 -1.6316  0.5655 -1.2250
    5BDD    C2420873   7.812  10.617   9.268 -0.8845 -0.6508  0.3570
    5BDD    C2520874   7.925  11.098   9.415  2.1784  0.0901  0.1887
    5BDD    C2620875   7.902  11.176   9.544 -0.7414 -0.2903  0.3055
    6TPM     C120876   8.412  10.999   8.825 -0.7117  0.7522 -0.0011
    6TPM     C220877   8.398  11.131   8.793 -0.8583  0.6468 -0.3800
    6TPM     C320878   8.289  11.157   8.702 -0.8214  0.2539 -0.5414
    6TPM     C420879   8.220  11.045   8.665 -0.6469  0.0594 -0.2854
    6TPM     S120880   8.288  10.897   8.743 -0.5143  0.3600  0.1825
    7BDTP    C120881   7.780  11.058   8.217  0.1090 -0.5684  0.0846
    7BDTP    C220882   7.720  10.978   8.319 -0.0546 -0.3271  0.1795
    7BDTP    C320883   7.783  10.948   8.438 -0.2433 -0.0517  0.3514
    7BDTP    C420884   7.913  10.999   8.459 -0.2723 -0.0122  0.4344
    7BDTP    C520885   7.973  11.079   8.358 -0.1086 -0.2532  0.3393
    7BDTP    C620886   7.910  11.109   8.239  0.0799 -0.5284  0.1674
    7BDTP    C720887   7.998  10.981   8.575 -0.4539  0.2522  0.6117
    7BDTP    C820888   8.118  11.043   8.566 -0.4349  0.2217  0.6533
    7BDTP    S120889   8.140  11.133   8.409 -0.1841 -0.1459  0.4747
    7BDTP    C920890   7.695  11.076   8.102  0.2908 -0.8323 -0.0927
    7BDTP   C1020891   7.575  11.014   8.111  0.2717 -0.8018 -0.1347
    7BDTP    S220892   7.553  10.924   8.268  0.0208 -0.4343  0.0441
    8FTM     S120893   7.596  10.736   8.516  0.0924  0.1883 -0.0211
    8FTM     C120894   7.542  10.741   8.688 -0.3721  0.6278 -0.1754
    8FTM     C220895   7.608  10.841   8.753 -0.3439  0.6166 -0.1867
    8FTM     C320896   7.701  10.917   8.676  0.0316  0.2739 -0.0782
    8FTM     C420897   7.707  10.874   8.547  0.2996  0.0143  0.0188
    8FTM     F120898   7.587  10.869   8.887 -0.6565  0.9162 -0.2956
    8FTM     C520899   7.421  10.649   8.727 -0.9730  0.0744  0.3724
    8FTM     C620900   7.427  10.497   8.731  0.0277  0.3245  1.2955
    8FTM     C720901   7.547  10.451   8.798  0.2816  0.9279 -0.4185
    8FTM     C820902   7.629  10.360   8.701  1.1178  0.9070 -1.1410
    8FTM     C920903   7.760  10.278   8.733 -0.6617 -1.5162 -1.3030
    8FTM    C1020904   7.860  10.371   8.790  0.7930  0.2868  0.5631
    8FTM    C1120905   7.291  10.450   8.772  0.6474  1.0030  0.2312
    8FTM    C1220906   7.276  10.297   8.788 -0.6565 -0.0318 -0.4263
    9FTM     S120907   7.943  11.355   8.098  0.0181  0.3967  0.3568
    9FTM     C120908   8.062  11.349   7.962 -0.4450  0.0661 -0.0403
    9FTM     C220909   8.127  11.230   7.963 -0.9396 -0.2139 -0.4075
    9FTM     C320910   8.090  11.138   8.066 -0.9878 -0.1888 -0.4022
    9FTM     C420911   7.993  11.189   8.147 -0.5142  0.1203 -0.0189
    9FTM     F120912   8.224  11.197   7.870 -1.3783 -0.5095 -0.7697
    9FTM     C520913   8.088  11.466   7.897 -0.8607  0.1488  0.9413
    9FTM     C620914   8.141  11.463   7.749 -0.0467  1.1423 -0.2050
    9FTM     C720915   8.054  11.398   7.631 -0.1137  0.9329  1.2170
    9FTM     C820916   7.919  11.325   7.641 -0.6785  0.6219  0.6626
    9FTM     C920917   7.807  11.390   7.710  1.1072 -0.1791 -1.0523
    9FTM    C1020918   7.686  11.281   7.692  0.5173  0.2729  0.1113
    9FTM    C1120919   8.275  11.539   7.703  1.4643  1.8604  0.0648
    9FTM    C1220920   8.317  11.638   7.796 -1.3953 -0.5535  0.6106
   10TPM     C120921   7.454  11.016   8.026 -0.5844 -0.0482  0.6506
   10TPM     C220922   7.419  11.094   7.920 -0.5311  0.7041  1.1687
   10TPM     C320923   7.294  11.055   7.860 -0.5322  1.1647  0.8692
   10TPM     C420924   7.234  10.948   7.920 -0.5861  0.7642  0.1226
   10TPM     S120925   7.332  10.887   8.058 -0.6402 -0.2343 -0.2633
   11BDD     C120926   7.034  10.649   7.759 -0.4480 -0.1931  0.1884
   11BDD     C220927   6.965  10.761   7.724 -0.2552 -0.1276  0.0137
   11BDD     C320928   7.023  10.883   7.777  0.1142 -0.1140 -0.4083
   11BDD     C420929   7.135  10.862   7.851  0.1976 -0.1693 -0.5488
   11BDD     S120930   7.177  10.688   7.860 -0.1804 -0.2425 -0.1628
   11BDD     C520931   6.843  10.761   7.640 -0.4035 -0.0749  0.2279
   11BDD     C620932   6.964  11.017   7.751  0.3709 -0.0465 -0.6565
   11BDD     O120933   7.014  11.122   7.797  0.6894 -0.0348 -1.0203
   11BDD     O220934   6.793  10.655   7.594 -0.7221 -0.0865  0.5916
   11BDD     C720935   6.842  11.016   7.668  0.2227  0.0067 -0.4423
   11BDD     C820936   6.785  10.894   7.615 -0.1467 -0.0069 -0.0204
   11BDD     C920937   6.672  10.915   7.540 -0.2301  0.0486  0.1203
   11BDD     S220938   6.631  11.089   7.531  0.1480  0.1216 -0.2658
   11BDD    C1020939   6.773  11.129   7.633  0.4156  0.0722 -0.6170
   11BDD    C1120940   6.791  11.282   7.667  0.1784 -0.0076  1.5461
   11BDD    C1220941   6.717  11.350   7.780  0.4494 -0.5062  0.1777
   11BDD    C1320942   6.827  11.446   7.844 -0.0813  1.0636 -0.5286
   11BDD    C1420943   6.798  11.505   7.994 -0.9509 -0.2602  1.6458
   11BDD    C1520944   6.928  11.536   8.076  1.0644  0.5760 -0.6171
   11BDD    C1620945   6.901  11.533   8.226 -0.4224 -0.5925 -1.0504
   11BDD    C1720946   6.561  11.380   7.763 -0.6107 -0.0437 -1.5068
   11BDD    C1820947   6.468  11.362   7.896 -0.3514 -0.1274  0.3837
   11BDD    C1920948   6.572  10.819   7.483  0.8210  0.5397  0.7685
   11BDD    C2020949   6.442  10.767   7.572 -0.4129  0.4993  1.2042
   11BDD    C2120950   6.488  10.721   7.713  1.6402  0.1886 -1.2704
   11BDD    C2220951   6.368  10.688   7.802  0.0433  0.3848 -1.3382
   11BDD    C2320952   6.439  10.652   7.939 -0.1377  0.0637  0.4164
   11BDD    C2420953   6.347  10.558   8.024 -0.5418  0.4802  0.1118
   11BDD    C2520954   6.321  10.854   7.562 -0.3334 -0.4409  0.2769
   11BDD    C2620955   6.250  10.854   7.426 -0.8481 -0.9250  0.5903
   12TPM     C120956   7.019  10.506   7.724  0.3403  0.1012 -0.5793
   12TPM     C220957   7.031  10.489   7.589  0.5161 -0.5567 -0.4910
   12TPM     C320958   7.068  10.356   7.550  0.4188 -0.7925  0.1967
   12TPM     C420959   7.083  10.270   7.655  0.1691 -0.3148  0.6328
   12TPM     S120960   7.053  10.352   7.813  0.0360  0.4765  0.2056
   13BDTP    C120961   7.247   9.676   7.566  0.1848  0.0117  0.1231
   13BDTP    C220962   7.322   9.714   7.681  0.0819  0.1655  0.1384
   13BDTP    C320963   7.310   9.840   7.739 -0.2474  0.1173  0.1829
   13BDTP    C420964   7.221   9.932   7.681 -0.4873 -0.0932  0.2136
   13BDTP    C520965   7.147   9.893   7.566 -0.3844 -0.2470  0.1984
   13BDTP    C620966   7.158   9.768   7.508 -0.0552 -0.1985  0.1540
   13BDTP    C720967   7.192  10.068   7.723 -0.8424 -0.1808  0.2612
   13BDTP    C820968   7.101  10.132   7.646 -1.0092 -0.3908  0.2823
   13BDTP    S120969   7.039  10.029   7.509 -0.7398 -0.5066  0.2445
   13BDTP    C920970   7.276   9.540   7.524  0.5400  0.0997  0.0756
   13BDTP   C1020971   7.367   9.476   7.601  0.7068  0.3095  0.0547
   13BDTP    S220972   7.429   9.578   7.737  0.4374  0.4254  0.0923
   14FTM     S120973   7.532   9.948   7.896 -0.3985 -0.0361 -0.6755
   14FTM     C120974   7.509   9.959   8.074 -0.2305  0.4539 -0.6814
   14FTM     C220975   7.393   9.898   8.110 -0.0464  0.2828 -0.3684
   14FTM     C320976   7.317   9.839   8.003 -0.0254 -0.2275 -0.1106
   14FTM     C420977   7.377   9.857   7.882 -0.1989 -0.4539 -0.2305
   14FTM     F120978   7.349   9.890   8.241  0.1140  0.5782 -0.2964
   14FTM     C520979   7.625  10.012   8.163 -0.5907  0.0319 -0.1262
   14FTM     C620980   7.708  10.144   8.125  0.2301 -0.1571  0.5765
   14FTM     C720981   7.675  10.274   8.198  0.7042  0.0892  1.8050
   14FTM     C820982   7.597  10.372   8.102 -0.4218  0.3939  0.3696
   14FTM     C920983   7.442  10.341   8.106 -0.3369 -1.6390 -0.7928
   14FTM    C1020984   7.373  10.481   8.118 -0.1894  0.2995  0.8032
   14FTM    C1120985   7.859  10.127   8.168  0.3317 -1.0375 -0.0875
   14FTM    C1220986   7.924  10.007   8.104 -0.4806 -0.4699  0.1503
   15FTM     S120987   7.171   9.646   7.250  0.0702 -0.4065 -0.2558
   15FTM     C120988   7.016   9.602   7.168  0.0881  0.3282 -0.7091
   15FTM     C220989   6.911   9.656   7.235  0.1096  0.2255 -0.5910
   15FTM     C320990   6.944   9.734   7.351  0.1134 -0.4148 -0.1514
   15FTM     C420991   7.078   9.739   7.374  0.0942 -0.8162  0.0743
   15FTM     F120992   6.780   9.639   7.196  0.1272  0.7057 -0.8740
   15FTM     C520993   7.046   9.584   7.021  0.1556 -0.7215  1.3529
   15FTM     C620994   6.989   9.452   6.937  0.7453 -0.5519  0.4274
   15FTM     C720995   6.836   9.438   6.930  0.7537  1.6540  0.5140
   15FTM     C820996   6.777   9.308   6.861 -0.3031  0.3963 -0.7418
   15FTM     C920997   6.649   9.370   6.815  1.1439  0.5669  0.5612
   15FTM    C1020998   6.555   9.282   6.734  1.2913  0.2240 -0.1617
   15FTM    C1120999   7.034   9.481   6.784  1.1314  1.0845  0.0633
   15FTM    C1221000   7.182   9.477   6.719  0.9852  0.9218 -0.7676
   16TPM     C121001   7.392   9.339   7.580  0.2519 -0.5521 -0.2439
   16TPM     C221002   7.442   9.254   7.675 -0.0758 -0.6771 -0.1812
   16TPM     C321003   7.415   9.115   7.648 -0.2828 -0.6185 -0.2785
   16TPM     C421004   7.344   9.094   7.533 -0.1126 -0.4486 -0.4155
   16TPM     S121005   7.307   9.249   7.449  0.3252 -0.3488 -0.4321
   17BDD     C121006   7.307   8.709   7.484  0.1410  0.0699 -0.0025
   17BDD     C221007   7.373   8.753   7.373  0.0846 -0.0434 -0.0820
   17BDD     C321008   7.394   8.897   7.372  0.0859 -0.0441 -0.2382
   17BDD     C421009   7.343   8.960   7.482  0.1431  0.0678 -0.2755
   17BDD     S121010   7.266   8.844   7.595  0.1993  0.1824 -0.1177
   17BDD     C521011   7.420   8.665   7.264  0.0275 -0.1545 -0.0172
   17BDD     C621012   7.464   8.966   7.262  0.0304 -0.1564 -0.3445
   17BDD     O121013   7.482   9.090   7.261  0.0316 -0.1574 -0.4791
   17BDD     O221014   7.402   8.541   7.265  0.0265 -0.1535  0.1174
   17BDD     C721015   7.511   8.878   7.153 -0.0266 -0.2673 -0.2798
   17BDD     C821016   7.490   8.735   7.154 -0.0280 -0.2666 -0.1236
   17BDD     C921017   7.541   8.672   7.044 -0.0854 -0.3788 -0.0861
   17BDD     S221018   7.618   8.788   6.931 -0.1414 -0.4933 -0.2438
   17BDD    C1021019   7.577   8.923   7.042 -0.0830 -0.3805 -0.3589
   17BDD    C1121020   7.611   9.063   6.996  0.0441  0.0048  1.2077
   17BDD    C1221021   7.551   9.114   6.855  0.5177  0.0145  1.0312
   17BDD    C1321022   7.594   9.245   6.782 -1.4192  0.1444 -0.1488
   17BDD    C1421023   7.558   9.386   6.820 -0.2850 -0.1838 -0.8154
   17BDD    C1521024   7.584   9.422   6.975 -0.4748 -0.8044  0.8605
   17BDD    C1621025   7.451   9.460   7.037 -0.6163 -0.5618  1.5314
   17BDD    C1721026   7.419   9.061   6.790  1.0512 -0.4458  1.2985
   17BDD    C1821027   7.281   9.103   6.849  1.2632  0.4299  0.5724
   17BDD    C1921028   7.570   8.524   7.011  0.3188 -0.8835  0.9282
   17BDD    C2021029   7.717   8.480   6.972 -0.1663  0.3910  0.4746
   17BDD    C2121030   7.756   8.342   7.029 -0.2977 -1.0363 -0.4466
   17BDD    C2221031   7.701   8.217   6.973 -0.6997 -0.7702  1.0392
   17BDD    C2321032   7.746   8.093   7.040  0.7270  1.3727  0.4537
   17BDD    C2421033   7.722   7.983   6.929 -0.4454  0.0602 -1.4456
   17BDD    C2521034   7.764   8.525   6.845 -1.4481  0.8299  0.9409
   17BDD    C2621035   7.691   8.516   6.708 -0.2425 -0.1519 -0.9139
   18TPM     C121036   7.238   8.577   7.530 -0.2608  0.2341 -0.6345
   18TPM     C221037   7.271   8.528   7.653 -0.0288  1.2393 -0.2728
   18TPM     C321038   7.174   8.436   7.706  0.3434  1.2305  0.4171
   18TPM     C421039   7.067   8.415   7.623  0.3953  0.2184  0.5817
   18TPM     S121040   7.081   8.510   7.471 -0.0252 -0.8099 -0.1281
   19BDTP    C121041   6.544   8.198   7.885  0.0887  0.1247  0.5348
   19BDTP    C221042   6.639   8.097   7.915  0.0792  0.0005  0.1539
   19BDTP    C321043   6.770   8.101   7.868  0.0046  0.0241 -0.0550
   19BDTP    C421044   6.808   8.210   7.788 -0.0640  0.1769  0.1196
   19BDTP    C521045   6.713   8.311   7.758 -0.0544  0.3006  0.5004
   19BDTP    C621046   6.582   8.307   7.805  0.0203  0.2772  0.7094
   19BDTP    C721047   6.938   8.236   7.729 -0.1472  0.2293 -0.0399
   19BDTP    C821048   6.944   8.350   7.656 -0.2000  0.3848  0.1999
   19BDTP    S121049   6.787   8.442   7.654 -0.1514  0.4864  0.6614
   19BDTP    C921050   6.414   8.172   7.945  0.1723  0.0718  0.6942
   19BDTP   C1021051   6.408   8.058   8.017  0.2248 -0.0837  0.4544
   19BDTP    S221052   6.565   7.967   8.019  0.1762 -0.1853 -0.0069
   20FTM     S121053   6.998   7.956   7.758 -0.3751  0.0470 -0.2377
   20FTM     C121054   7.082   7.849   7.876 -0.1951  0.3330 -0.1033
   20FTM     C221055   7.009   7.839   7.990 -0.1695  0.3686 -0.0843
   20FTM     C321056   6.886   7.912   7.993 -0.2855  0.1802 -0.1708
   20FTM     C421057   6.864   7.981   7.877 -0.4037 -0.0058 -0.2590
   20FTM     F121058   7.049   7.763   8.099 -0.0396  0.5741  0.0131
   20FTM     C521059   7.228   7.788   7.840  0.1943 -0.6324 -0.4656
   20FTM     C621060   7.348   7.857   7.904  0.1223  2.8817  0.2015
   20FTM     C721061   7.358   7.900   8.052  1.0938 -0.6745 -1.5594
   20FTM     C821062   7.276   8.025   8.084  0.1345  0.3083 -0.0017
   20FTM     C921063   7.315   8.078   8.229 -0.0069 -0.3583  0.1745
   20FTM    C1021064   7.187   8.074   8.322  0.2549  0.1671 -0.7675
   20FTM    C1121065   7.482   7.782   7.892  0.0782 -0.2386 -0.1260
   20FTM    C1221066   7.537   7.716   7.768 -0.2979 -0.2160  0.2054
   21FTM     S121067   6.534   8.586   7.825 -0.6046 -0.3023 -0.4350
   21FTM     C121068   6.412   8.663   7.717 -0.0625  0.2052 -0.6966
   21FTM     C221069   6.350   8.567   7.642 -0.0296  0.5012 -1.1103
   21FTM     C321070   6.393   8.432   7.664 -0.4145  0.3552 -1.2460
   21FTM     C421071   6.490   8.424   7.759 -0.7531 -0.0667 -0.9255
   21FTM     F121072   6.252   8.597   7.549  0.3510  0.9222 -1.3911
   21FTM     C521073   6.431   8.803   7.739  0.8292  0.2932 -1.2272
   21FTM     C621074   6.321   8.927   7.767  0.4692  0.8193  0.9411
   21FTM     C721075   6.374   9.050   7.844  0.3503 -0.2023  0.4152
   21FTM     C821076   6.459   9.157   7.779 -0.1971 -1.1262  0.4201
   21FTM     C921077   6.528   9.266   7.864  0.3849 -0.8262 -1.6177
   21FTM    C1021078   6.611   9.194   7.971 -0.7773  0.3359 -0.0996
   21FTM    C1121079   6.177   8.874   7.807 -0.4017  0.4030  0.3303
   21FTM    C1221080   6.104   8.792   7.693  0.6851  0.6500 -2.2663
   22TPM     C121081   6.290   7.982   8.075 -0.2306 -0.1787 -0.8210
   22TPM     C221082   6.163   8.030   8.080 -0.3650 -0.4816 -1.2000
   22TPM     C321083   6.067   7.936   8.131 -0.1253 -0.4007 -0.5817
   22TPM     C421084   6.121   7.815   8.165  0.1917 -0.0353  0.2689
   22TPM     S121085   6.299   7.812   8.134  0.2125  0.2364  0.3553
   23BDD     C121086   5.954   7.453   8.129 -0.3282  0.2994 -0.0174
   23BDD     C221087   5.900   7.509   8.242 -0.2992  0.3152 -0.0110
   23BDD     C321088   5.944   7.645   8.266 -0.3402  0.3400 -0.0749
   23BDD     C421089   6.032   7.691   8.171 -0.3998  0.3426 -0.1290
   23BDD     S121090   6.065   7.568   8.046 -0.4089  0.3144 -0.1040
   23BDD     C521091   5.806   7.439   8.331 -0.2326  0.3082  0.0539
   23BDD     C621092   5.898   7.724   8.382 -0.3186  0.3600 -0.0803
   23BDD     O121093   5.936   7.842   8.402 -0.3539  0.3812 -0.1354
   23BDD     O221094   5.767   7.322   8.310 -0.1972  0.2868  0.1090
   23BDD     C721095   5.804   7.654   8.471 -0.2520  0.3531 -0.0153
   23BDD     C821096   5.760   7.518   8.447 -0.2110  0.3282  0.0486
   23BDD     C921097   5.672   7.472   8.541 -0.1514  0.3256  0.1028
   23BDD     S221098   5.639   7.596   8.667 -0.1422  0.3539  0.0772
   23BDD    C1021099   5.749   7.710   8.584 -0.2232  0.3688 -0.0091
   23BDD    C1121100   5.768   7.846   8.654 -0.4546  0.5886 -0.5865
   23BDD    C1221101   5.876   7.874   8.765 -0.0498  0.3681 -0.4719
   23BDD    C1321102   5.919   7.780   8.877 -0.3210  0.7355  0.4608
   23BDD    C1421103   5.981   7.825   9.001  0.2937 -1.0350  0.4117
   23BDD    C1521104   6.035   7.708   9.070 -0.9556  0.8783 -0.1604
   23BDD    C1621105   6.108   7.769   9.186 -1.1552 -1.2586  0.4078
   23BDD    C1721106   6.000   7.955   8.711 -0.3881 -1.5836 -0.9774
   23BDD    C1821107   5.967   8.091   8.652 -0.1248 -0.6087 -1.1494
   23BDD    C1921108   5.615   7.333   8.576  0.8564 -0.3616 -1.0326
   23BDD    C2021109   5.713   7.229   8.575  0.2652 -0.1126  0.7586
   23BDD    C2121110   5.829   7.214   8.671 -1.2305  1.1472  1.0996
   23BDD    C2221111   5.832   7.288   8.799 -0.7201 -0.3165  0.2355
   23BDD    C2321112   5.959   7.327   8.882 -0.6278 -0.2764 -0.4751
   23BDD    C2421113   5.929   7.361   9.025  1.1021 -1.0685 -0.7778
   23BDD    C2521114   5.649   7.085   8.548 -0.8719  0.2510  0.5064
   23BDD    C2621115   5.702   6.984   8.446 -0.1798  0.3483 -0.8231
   24TPM     C121116   5.947   7.317   8.046 -0.7487  0.6067 -0.7441
   24TPM     C221117   5.859   7.215   8.065 -1.1642  0.8364 -1.3466
   24TPM     C321118   5.885   7.100   7.983 -0.9788  0.8184 -1.2640
   24TPM     C421119   5.993   7.114   7.900 -0.4220  0.5751 -0.5985
   24TPM     S121120   6.070   7.276   7.921 -0.0860  0.3481 -0.0201
   25BDTP    C121121   6.295   6.699   7.542  0.1497 -0.2872 -0.0752
   25BDTP    C221122   6.254   6.618   7.652  0.4913 -0.1861  0.1302
   25BDTP    C321123   6.178   6.668   7.757  0.7280 -0.1150  0.2704
   25BDTP    C421124   6.140   6.803   7.754  0.6239 -0.1452  0.2052
   25BDTP    C521125   6.181   6.884   7.644  0.2825 -0.2464 -0.0004
   25BDTP    C621126   6.258   6.835   7.539  0.0455 -0.3173 -0.1404
   25BDTP    C721127   6.062   6.876   7.851  0.8236 -0.0854  0.3226
   25BDTP    C821128   6.042   7.007   7.820  0.6509 -0.1360  0.2166
   25BDTP    S121129   6.120   7.055   7.663  0.2110 -0.2667 -0.0468
   25BDTP    C921130   6.374   6.626   7.445 -0.0499 -0.3471 -0.1928
   25BDTP   C1021131   6.393   6.496   7.476  0.1229 -0.2966 -0.0867
   25BDTP    S221132   6.315   6.447   7.633  0.5626 -0.1659  0.1767
   26FTM     S121133   6.018   6.554   7.972 -0.3502  0.3650  0.4673
   26FTM     C121134   6.111   6.491   8.113 -0.1286 -0.6408 -0.1069
   26FTM     C221135   6.244   6.505   8.089 -0.1299 -1.3461 -0.5972
   26FTM     C321136   6.281   6.563   7.964 -0.2990 -1.1519 -0.5572
   26FTM     C421137   6.172   6.595   7.888 -0.4316 -0.2692 -0.0184
   26FTM     F121138   6.341   6.465   8.181  0.0221 -2.2093 -1.1113
   26FTM     C521139   6.022   6.441   8.210  0.2561 -0.8422 -0.1274
   26FTM     C621140   6.053   6.476   8.352 -0.1780  0.0352 -1.1715
   26FTM     C721141   6.046   6.616   8.417  0.0915  0.5388 -0.2893
   26FTM     C821142   5.906   6.685   8.414  0.5825  1.0077  0.1524
   26FTM     C921143   5.802   6.631   8.517  0.3255  0.6903  0.7992
   26FTM    C1021144   5.819   6.647   8.659 -0.8891 -1.7011 -0.8119
   26FTM    C1121145   6.125   6.352   8.429  0.8544 -0.5266  0.5361
   26FTM    C1221146   6.220   6.371   8.547 -0.1273  0.5543 -0.6095
   27FTM     S121147   6.470   7.019   7.472 -0.2469  0.0868  0.1373
   27FTM     C121148   6.463   7.083   7.304  0.0136  0.1125  0.1341
   27FTM     C221149   6.354   7.032   7.240  0.0508  0.2080 -0.0069
   27FTM     C321150   6.272   6.943   7.317 -0.1171  0.2656 -0.1184
   27FTM     C421151   6.319   6.925   7.443 -0.2882  0.2126 -0.0609
   27FTM     F121152   6.322   7.063   7.109  0.2389  0.2488 -0.0434
   27FTM     C521153   6.552   7.179   7.238 -0.1564 -0.6585  0.9211
   27FTM     C621154   6.704   7.220   7.264  0.0765  0.6520  0.4327
   27FTM     C721155   6.717   7.310   7.368 -1.3048 -0.4180 -0.6260
   27FTM     C821156   6.657   7.447   7.379 -0.9134  0.6583 -0.6206
   27FTM     C921157   6.729   7.525   7.503  1.5073 -0.5023 -1.2672
   27FTM    C1021158   6.658   7.672   7.515 -0.5664  0.6880 -0.7181
   27FTM    C1121159   6.815   7.125   7.284 -0.0844  0.2092  0.9976
   27FTM    C1221160   6.817   7.030   7.171 -1.3136  0.0449  0.7388
   28TPM     C121161   6.431   6.390   7.389  0.8028 -0.4191  0.4443
   28TPM     C221162   6.396   6.258   7.392  1.1214 -0.5111  0.2238
   28TPM     C321163   6.430   6.187   7.272  0.7854 -0.0918 -0.1284
   28TPM     C421164   6.491   6.264   7.178  0.2106  0.3197 -0.1764
   28TPM     S121165   6.511   6.434   7.234  0.0478  0.2090  0.2227
   29BDD     C121166   6.582   6.289   6.799  0.4188 -0.1405 -0.0095
   29BDD     C221167   6.563   6.155   6.816  0.3182 -0.1265 -0.0106
   29BDD     C321168   6.532   6.119   6.953  0.2791 -0.1030 -0.0135
   29BDD     C421169   6.528   6.226   7.038  0.3505 -0.0995 -0.0143
   29BDD     S121170   6.562   6.380   6.952  0.4715 -0.1253 -0.0114
   29BDD     C521171   6.573   6.055   6.708  0.2544 -0.1342 -0.0095
   29BDD     C621172   6.507   5.979   6.995  0.1724 -0.0850 -0.0154
   29BDD     O121173   6.480   5.948   7.113  0.1386 -0.0648 -0.0179
   29BDD     O221174   6.600   6.086   6.590  0.2882 -0.1545 -0.0073
   29BDD     C721175   6.517   5.879   6.887  0.1084 -0.0927 -0.0142
   29BDD     C821176   6.549   5.916   6.750  0.1476 -0.1162 -0.0113
   29BDD     C921177   6.553   5.808   6.665  0.0761 -0.1197 -0.0106
   29BDD     S221178   6.518   5.655   6.750 -0.0450 -0.0941 -0.0134
   29BDD    C1021179   6.498   5.745   6.904  0.0076 -0.0788 -0.0154
   29BDD    C1121180   6.469   5.644   7.013  0.3396  0.7301 -0.9377
   29BDD    C1221181   6.573   5.596   7.112  0.4847 -0.0955 -0.3811
   29BDD    C1321182   6.728   5.577   7.073  0.5182  0.2723  1.6001
   29BDD    C1421183   6.759   5.454   6.983  1.5155 -0.7178 -0.2981
   29BDD    C1521184   6.881   5.440   6.898 -1.4739 -0.0341 -0.8211
   29BDD    C1621185   7.021   5.465   6.940 -0.5690 -0.7404 -1.0837
   29BDD    C1721186   6.507   5.486   7.196  0.1521 -0.7243 -0.4726
   29BDD    C1821187   6.551   5.495   7.342  0.7233 -0.1225 -0.0532
   29BDD    C1921188   6.588   5.802   6.511 -0.3456  0.2736  0.0948
   29BDD    C2021189   6.495   5.825   6.394 -0.1941  0.9807  0.9931
   29BDD    C2121190   6.339   5.808   6.419 -0.4014 -1.4166 -0.9188
   29BDD    C2221191   6.259   5.708   6.354  0.2027  0.6113  0.5251
   29BDD    C2321192   6.106   5.687   6.410 -0.5510 -0.5841 -1.1160
   29BDD    C2421193   6.029   5.560   6.377 -0.5600 -0.2825  1.7664
   29BDD    C2521194   6.551   5.878   6.254  0.5466  0.6795 -0.1123
   29BDD    C2621195   6.683   5.819   6.208 -1.1189  0.0865 -0.0343
   30TPM     C121196   6.597   6.382   6.673 -0.4983  0.3298  0.3528
   30TPM     C221197   6.673   6.495   6.672 -0.3561  0.2332  0.1388
   30TPM     C321198   6.652   6.578   6.556 -0.0477 -0.0955 -0.1578
   30TPM     C421199   6.560   6.528   6.469  0.0454 -0.2494 -0.1696
   30TPM     S121200   6.492   6.371   6.527 -0.2515  0.0109  0.1954
   31BDTP    C121201   6.422   6.782   5.912  0.0551 -0.2137 -0.1922
   31BDTP    C221202   6.407   6.643   5.886  0.1353 -0.2242 -0.1807
   31BDTP    C321203   6.428   6.546   5.984 -0.0464 -0.1913 -0.1092
   31BDTP    C421204   6.464   6.588   6.113 -0.3201 -0.1460 -0.0459
   31BDTP    C521205   6.479   6.728   6.138 -0.4003 -0.1355 -0.0571
   31BDTP    C621206   6.458   6.825   6.041 -0.2186 -0.1683 -0.1287
   31BDTP    C721207   6.491   6.507   6.229 -0.5447 -0.1063  0.0335
   31BDTP    C821208   6.524   6.577   6.340 -0.7864 -0.0670  0.0817
   31BDTP    S121209   6.526   6.757   6.312 -0.7638 -0.0747  0.0334
   31BDTP    C921210   6.396   6.864   5.795  0.2797 -0.2536 -0.2713
   31BDTP   C1021211   6.362   6.793   5.684  0.5214 -0.2928 -0.3197
   31BDTP    S221212   6.360   6.613   5.712  0.4988 -0.2851 -0.2713
   32FTM     S121213   6.516   6.345   5.801  0.7223 -0.1854  0.2576
   32FTM     C121214   6.469   6.175   5.837  0.7566 -0.2436  0.0244
   32FTM     C221215   6.396   6.169   5.951  0.5876 -0.3911 -0.0890
   32FTM     C321216   6.372   6.295   6.017  0.4252 -0.4659 -0.0039
   32FTM     C421217   6.429   6.399   5.951  0.4714 -0.3727  0.1811
   32FTM     F121218   6.346   6.051   6.003  0.5701 -0.4669 -0.2770
   32FTM     C521219   6.532   6.059   5.769  0.2811  0.2576 -0.2016
   32FTM     C621220   6.638   6.074   5.656  0.6972  0.4969  0.1543
   32FTM     C721221   6.576   6.166   5.538 -0.0605  1.0952  0.1489
   32FTM     C821222   6.445   6.149   5.469  0.8349  0.9244 -0.4902
   32FTM     C921223   6.394   6.259   5.405 -0.0013 -0.8763  0.3267
   32FTM    C1021224   6.445   6.257   5.266 -0.6770 -0.5303 -0.5156
   32FTM    C1121225   6.780   6.108   5.705  0.2497 -0.8133 -0.9650
   32FTM    C1221226   6.830   6.031   5.826 -0.2003 -0.4979 -0.6007
   33FTM     S121227   6.640   7.046   6.085  0.5813 -0.1139  0.3015
   33FTM     C121228   6.562   7.204   6.119  0.7728  0.1463 -0.4380
   33FTM     C221229   6.426   7.192   6.113  0.7658  0.3953 -0.8553
   33FTM     C321230   6.376   7.061   6.082  0.6145  0.3994 -0.6311
   33FTM     C421231   6.477   6.971   6.064  0.5021  0.1446 -0.0219
   33FTM     F121232   6.340   7.298   6.134  0.8959  0.6349 -1.4653
   33FTM     C521233   6.625   7.340   6.125  0.2456  0.9055  0.5236
   33FTM     C621234   6.689   7.387   6.256  1.9236 -0.1041  1.4274
   33FTM     C721235   6.723   7.303   6.380 -0.2859 -0.0624  0.2053
   33FTM     C821236   6.785   7.161   6.361 -0.3683  0.6102 -0.1049
   33FTM     C921237   6.861   7.119   6.488 -0.0974  0.8689 -0.5064
   33FTM    C1021238   6.832   6.957   6.494 -0.2543  0.8419  1.1763
   33FTM    C1121239   6.738   7.531   6.264 -0.3086  0.2540  0.2367
   33FTM    C1221240   6.635   7.642   6.219 -0.5853  0.3088  0.5585
   34TPM     C121241   6.312   6.833   5.563 -0.0606  0.0722  0.1627
   34TPM     C221242   6.216   6.922   5.527 -0.2143  0.0781  0.5739
   34TPM     C321243   6.182   6.917   5.387 -0.6167  0.2689  0.6623
   34TPM     C421244   6.252   6.824   5.317 -0.7699  0.4088  0.3187
   34TPM     S121245   6.368   6.734   5.423 -0.4149  0.3094 -0.1468
   35BDD     C121246   6.175   6.651   4.970 -0.0610 -0.0493 -0.1544
   35BDD     C221247   6.265   6.751   4.945 -0.0036 -0.0907 -0.1147
   35BDD     C321248   6.299   6.829   5.062 -0.0595 -0.0730 -0.1103
   35BDD     C421249   6.234   6.789   5.175 -0.1585 -0.0183 -0.1469
   35BDD     S121250   6.127   6.649   5.143 -0.1887  0.0149 -0.1893
   35BDD     C521251   6.323   6.777   4.811  0.1048 -0.1483 -0.0792
   35BDD     C621252   6.395   6.942   5.057 -0.0123 -0.1111 -0.0699
   35BDD     O121253   6.424   7.010   5.158 -0.0606 -0.0957 -0.0662
   35BDD     O221254   6.294   6.709   4.710  0.1529 -0.1636 -0.0830
   35BDD     C721255   6.453   6.969   4.924  0.0958 -0.1686 -0.0343
   35BDD     C821256   6.419   6.890   4.807  0.1516 -0.1863 -0.0387
   35BDD     C921257   6.483   6.931   4.693  0.2511 -0.2410 -0.0021
   35BDD     S221258   6.591   7.070   4.725  0.2813 -0.2742  0.0403
   35BDD    C1021259   6.543   7.068   4.898  0.1534 -0.2100  0.0056
   35BDD    C1121260   6.629   7.166   4.983 -0.4978 -1.2739 -0.8295
   35BDD    C1221261   6.776   7.213   4.945  0.4301  0.4930  0.3394
   35BDD    C1321262   6.792   7.355   4.981 -0.4657 -0.8134 -0.0225
   35BDD    C1421263   6.896   7.443   4.918  0.1829  0.7392 -1.5556
   35BDD    C1521264   6.873   7.477   4.777 -0.8953  0.3911 -1.1287
   35BDD    C1621265   6.970   7.574   4.723 -0.1472 -0.3008  0.4982
   35BDD    C1721266   6.880   7.114   4.998  0.4247  1.1655  0.2728
   35BDD    C1821267   7.037   7.130   4.982  0.6725  0.5173  0.6106
   35BDD    C1921268   6.483   6.880   4.541  0.0827 -0.4224 -0.3989
   35BDD    C2021269   6.350   6.909   4.468 -0.1500 -1.4488  0.2322
   35BDD    C2121270   6.351   6.845   4.333  0.3536  0.5648 -1.2426
   35BDD    C2221271   6.337   6.695   4.312  0.0033  1.7661 -1.2907
   35BDD    C2321272   6.448   6.601   4.355 -0.1937 -0.0577  0.6963
   35BDD    C2421273   6.443   6.456   4.302 -0.0726 -0.0830  0.6631
   35BDD    C2521274   6.321   7.068   4.436 -2.6079 -0.0144  1.0894
   35BDD    C2621275   6.446   7.154   4.377  0.2092  0.8136 -0.3395
   36TPM     C121276   6.112   6.534   4.907 -0.9157  0.4589  0.6541
   36TPM     C221277   6.057   6.544   4.783 -1.5339  0.9109  0.9526
   36TPM     C321278   5.989   6.425   4.740 -1.4558  0.9480  0.7234
   36TPM     C421279   5.992   6.324   4.831 -0.7779  0.5242  0.2498
   36TPM     S121280   6.082   6.372   4.980 -0.1813  0.0416  0.0553
   37BDTP    C121281   5.637   5.797   4.758 -0.5077 -0.0787 -0.0346
   37BDTP    C221282   5.634   5.817   4.899 -0.0640 -0.1953 -0.0033
   37BDTP    C321283   5.698   5.923   4.961  0.3324 -0.3824 -0.0899
   37BDTP    C421284   5.770   6.013   4.881  0.2903 -0.4584 -0.2137
   37BDTP    C521285   5.774   5.993   4.740 -0.1533 -0.3418 -0.2449
   37BDTP    C621286   5.709   5.887   4.678 -0.5500 -0.1545 -0.1582
   37BDTP    C721287   5.845   6.130   4.923  0.6512 -0.6482 -0.3194
   37BDTP    C821288   5.904   6.198   4.821  0.5021 -0.6791 -0.4274
   37BDTP    S121289   5.873   6.123   4.659 -0.1169 -0.4724 -0.4100
   37BDTP    C921290   5.563   5.680   4.716 -0.8688  0.1110  0.0713
   37BDTP   C1021291   5.504   5.612   4.818 -0.7193  0.1421  0.1791
   37BDTP    S221292   5.535   5.687   4.981 -0.1007 -0.0647  0.1619
   38FTM     S121293   5.550   5.870   5.206 -0.3491 -0.1382  0.0663
   38FTM     C121294   5.626   5.929   5.358 -0.2525  0.3037 -0.1494
   38FTM     C221295   5.741   5.995   5.330 -0.6188  0.8271 -0.4668
   38FTM     C321296   5.777   6.004   5.192 -0.9880  0.9141 -0.5594
   38FTM     C421297   5.686   5.942   5.111 -0.9016  0.4422 -0.3045
   38FTM     F121298   5.822   6.052   5.428 -0.6416  1.2581 -0.6925
   38FTM     C521299   5.575   5.900   5.507  1.1467  0.0105  0.4659
   38FTM     C621300   5.446   5.939   5.564  0.0825  0.8425 -0.5026
   38FTM     C721301   5.419   5.927   5.719 -1.0804 -0.7193 -1.1441
   38FTM     C821302   5.463   5.801   5.806 -0.4991  1.2354  0.3167
   38FTM     C921303   5.446   5.821   5.947  0.5535 -0.8423 -0.5549
   38FTM    C1021304   5.501   5.934   6.029 -0.1562  0.9321 -0.4821
   38FTM    C1121305   5.353   6.029   5.488 -1.2873  0.1823  1.2300
   38FTM    C1221306   5.280   6.005   5.352 -0.4895 -0.2888  0.0097
   39FTM     S121307   5.614   6.009   4.446 -0.4443  0.1205 -0.1191
   39FTM     C121308   5.710   5.973   4.298 -0.6017  0.1193 -0.2217
   39FTM     C221309   5.804   5.879   4.325 -0.6230  0.0626 -0.3409
   39FTM     C321310   5.807   5.830   4.460 -0.5207  0.0179 -0.3591
   39FTM     C421311   5.712   5.889   4.538 -0.4178  0.0410 -0.2502
   39FTM     F121312   5.893   5.831   4.230 -0.7362  0.0480 -0.4402
   39FTM     C521313   5.659   6.022   4.159 -0.4405  0.4496 -0.3173
   39FTM     C621314   5.738   6.121   4.082  0.2801 -0.0137 -0.5713
   39FTM     C721315   5.830   6.220   4.151  0.3897  0.7970  0.3637
   39FTM     C821316   5.806   6.307   4.284  0.4488  0.9262  1.0733
   39FTM     C921317   5.670   6.366   4.295  0.4287 -0.1956 -0.7585
   39FTM    C1021318   5.664   6.437   4.424  0.5642 -0.8755  1.3811
   39FTM    C1121319   5.668   6.169   3.953 -0.4857  0.5982 -0.3746
   39FTM    C1221320   5.728   6.172   3.815 -0.1471 -1.3738 -0.9331
   40TPM     C121321   5.416   5.505   4.801 -0.4470  0.4937 -0.6143
   40TPM     C221322   5.303   5.478   4.871 -0.8473  0.4431 -1.2603
   40TPM     C321323   5.244   5.351   4.839 -0.2545  0.1364 -1.1663
   40TPM     C421324   5.312   5.281   4.743  0.5979 -0.0469 -0.4486
   40TPM     S121325   5.458   5.372   4.687  0.7190  0.1555  0.1689
   41BDD     C121326   5.187   4.919   4.705 -0.2772 -0.0709 -0.3305
   41BDD     C221327   5.219   4.959   4.578 -0.3116 -0.0029 -0.3177
   41BDD     C321328   5.271   5.094   4.572 -0.5749  0.1004 -0.2936
   41BDD     C421329   5.278   5.156   4.694 -0.7376  0.1094 -0.2881
   41BDD     S121330   5.220   5.048   4.825 -0.5721 -0.0106 -0.3130
   41BDD     C521331   5.203   4.874   4.458 -0.1036 -0.0300 -0.3271
   41BDD     C621332   5.311   5.158   4.445 -0.6558  0.1863 -0.2768
   41BDD     O121333   5.356   5.275   4.439 -0.8829  0.2753 -0.2559
   41BDD     O221334   5.158   4.757   4.464  0.1236 -0.1191 -0.3480
   41BDD     C721335   5.295   5.073   4.325 -0.4478  0.1590 -0.2861
   41BDD     C821336   5.243   4.938   4.331 -0.1844  0.0558 -0.3102
   41BDD     C921337   5.236   4.876   4.209 -0.0217  0.0466 -0.3155
   41BDD     S221338   5.294   4.984   4.078 -0.1871  0.1669 -0.2908
   41BDD    C1021339   5.327   5.113   4.198 -0.4821  0.2271 -0.2735
   41BDD    C1121340   5.358   5.250   4.132  0.9976 -0.1528 -0.3737
   41BDD    C1221341   5.275   5.370   4.181 -1.6573 -0.3011 -0.4829
   41BDD    C1321342   5.142   5.342   4.122 -0.8379 -0.2812  0.6143
   41BDD    C1421343   5.022   5.423   4.166  0.0875 -0.4968 -1.3643
   41BDD    C1521344   5.015   5.570   4.182 -0.5731 -0.3430  1.0670
   41BDD    C1621345   5.008   5.651   4.050 -0.4183  0.7846 -0.4394
   41BDD    C1721346   5.373   5.488   4.154 -1.1135 -0.3874 -1.7245
   41BDD    C1821347   5.376   5.617   4.233 -0.0069 -0.7676 -0.0714
   41BDD    C1921348   5.211   4.725   4.167  0.3291 -1.0046 -1.1948
   41BDD    C2021349   5.116   4.696   4.053 -0.0249  0.7585 -0.7357
   41BDD    C2121350   5.180   4.610   3.956 -0.0922  0.4421  0.7688
   41BDD    C2221351   5.307   4.661   3.883  0.2499  0.7093 -0.3497
   41BDD    C2321352   5.400   4.546   3.837  0.1491  0.2202  0.4507
   41BDD    C2421353   5.530   4.611   3.794  0.8089 -0.9504 -0.1115
   41BDD    C2521354   4.975   4.673   4.085 -0.6198 -0.6186  0.5188
   41BDD    C2621355   4.879   4.664   3.956  0.4014  0.0201 -0.9026
   42TPM     C121356   5.142   4.796   4.766  0.0191 -0.2832  0.2607
   42TPM     C221357   5.014   4.769   4.804  0.1791 -0.4504  0.6827
   42TPM     C321358   4.997   4.637   4.860  0.5058 -0.5229  0.6168
   42TPM     C421359   5.111   4.563   4.863  0.5949 -0.4108  0.1446
   42TPM     S121360   5.251   4.655   4.796  0.2708 -0.2037 -0.2566
   43BDTP    C121361   5.137   3.934   4.919 -0.1752  0.0907 -0.2731
   43BDTP    C221362   5.020   3.967   4.993 -0.2369  0.1422 -0.3936
   43BDTP    C321363   4.977   4.098   5.010 -0.1866  0.1625 -0.4220
   43BDTP    C421364   5.053   4.201   4.952 -0.0699  0.1307 -0.3268
   43BDTP    C521365   5.170   4.168   4.878 -0.0082  0.0792 -0.2060
   43BDTP    C621366   5.213   4.037   4.861 -0.0586  0.0588 -0.1779
   43BDTP    C721367   5.028   4.344   4.956  0.0005  0.1431 -0.3335
   43BDTP    C821368   5.120   4.418   4.890  0.1106  0.1040 -0.2254
   43BDTP    S121369   5.251   4.318   4.813  0.1408  0.0458 -0.0995
   43BDTP    C921370   5.162   3.791   4.915 -0.2456  0.0783 -0.2661
   43BDTP   C1021371   5.070   3.717   4.981 -0.3558  0.1173 -0.3743
   43BDTP    S221372   4.939   3.817   5.058 -0.3858  0.1754 -0.5004
   44FTM     S121373   4.701   4.041   4.989 -0.2194 -0.0486 -0.5401
   44FTM     C121374   4.600   4.107   5.123  0.2537  0.2964 -0.3506
   44FTM     C221375   4.678   4.178   5.209  0.6344  0.1427 -0.5658
   44FTM     C321376   4.818   4.185   5.177  0.5831 -0.2434 -0.8832
   44FTM     C421377   4.848   4.117   5.063  0.1485 -0.3902 -0.9122
   44FTM     F121378   4.628   4.241   5.322  1.0523  0.3425 -0.4878
   44FTM     C521379   4.451   4.081   5.118 -0.7983  0.0684  1.3658
   44FTM     C621380   4.401   3.994   5.230 -0.5277  0.2935  0.5054
   44FTM     C721381   4.270   4.046   5.277  0.1963 -0.6359 -0.3438
   44FTM     C821382   4.252   4.192   5.341  0.3151  1.1322  1.2545
   44FTM     C921383   4.364   4.248   5.420 -0.3582  0.6868 -0.9319
   44FTM    C1021384   4.280   4.362   5.474 -0.8875 -0.5599 -1.9085
   44FTM    C1121385   4.396   3.836   5.232 -0.2457  0.8221 -0.0405
   44FTM    C1221386   4.338   3.768   5.101 -0.5787  0.0504  0.1104
   45FTM     S121387   5.308   3.886   4.632 -0.6716  0.0870 -0.0320
   45FTM     C121388   5.473   3.931   4.575 -0.4945 -0.2853  0.1758
   45FTM     C221389   5.530   4.018   4.663  0.1057 -1.3833  0.9192
   45FTM     C321390   5.451   4.053   4.777  0.4561 -1.9875  1.3618
   45FTM     C421391   5.329   3.992   4.777  0.1128 -1.3307  0.9438
   45FTM     F121392   5.657   4.070   4.645  0.3736 -1.9064  1.2431
   45FTM     C521393   5.521   3.885   4.452 -0.3970 -0.9317  1.3946
   45FTM     C621394   5.628   3.789   4.458 -0.4773  1.2564  0.1833
   45FTM     C721395   5.745   3.799   4.361 -0.2499  0.3691 -0.4498
   45FTM     C821396   5.714   3.797   4.215 -1.1019 -0.2949  0.0797
   45FTM     C921397   5.714   3.675   4.141 -0.8117 -0.7439  0.4551
   45FTM    C1021398   5.803   3.560   4.180 -0.5725 -0.2723  1.2135
   45FTM    C1121399   5.689   3.717   4.586  1.8998  0.3627  0.3167
   45FTM    C1221400   5.763   3.789   4.698 -1.9850 -0.6405  0.5964
   46TPM     C121401   5.067   3.574   4.982 -0.3192  0.3013  0.6985
   46TPM     C221402   5.172   3.487   4.990 -0.5215  0.0869  1.1008
   46TPM     C321403   5.133   3.352   5.022 -0.9710  0.0723  0.5188
   46TPM     C421404   4.998   3.336   5.038 -1.1113  0.2756 -0.3273
   46TPM     S121405   4.910   3.492   5.015 -0.6836  0.5029 -0.4557
   47BDD     C121406   4.897   2.991   5.204 -0.3383  0.4909  0.2050
   47BDD     C221407   4.806   3.010   5.103 -0.1764  0.3367  0.0281
   47BDD     C321408   4.829   3.132   5.027  0.1453  0.0541 -0.3384
   47BDD     C421409   4.937   3.204   5.072  0.2238 -0.0033 -0.4359
   47BDD     S121410   5.017   3.123   5.211 -0.0993  0.2926 -0.0753
   47BDD     C521411   4.695   2.917   5.072 -0.3114  0.4438  0.1897
   47BDD     C621412   4.744   3.173   4.914  0.3631 -0.1488 -0.5789
   47BDD     O121413   4.764   3.278   4.849  0.6405 -0.3926 -0.8951
   47BDD     O221414   4.675   2.812   5.137 -0.5888  0.6874  0.5057
   47BDD     C721415   4.633   3.080   4.884  0.2282 -0.0420 -0.4176
   47BDD     C821416   4.610   2.958   4.959 -0.0936  0.2407 -0.0508
   47BDD     C921417   4.502   2.886   4.915 -0.1720  0.2980  0.0465
   47BDD     S221418   4.422   2.966   4.776  0.1513  0.0022 -0.3141
   47BDD    C1021419   4.542   3.099   4.783  0.3903 -0.1960 -0.5944
   47BDD    C1121420   4.471   3.217   4.735 -0.2346  0.5808  2.2671
   47BDD    C1221421   4.535   3.347   4.676 -0.2325 -0.1970 -0.6456
   47BDD    C1321422   4.646   3.344   4.565  0.7622 -1.4701 -0.7237
   47BDD    C1421423   4.720   3.226   4.523 -0.3421  0.7551  0.0560
   47BDD    C1521424   4.820   3.260   4.420 -0.3446 -0.1276 -0.8916
   47BDD    C1621425   4.851   3.148   4.331 -1.4565 -0.2832 -0.3065
   47BDD    C1721426   4.449   3.480   4.672  0.0913  0.6754 -1.1094
   47BDD    C1821427   4.345   3.506   4.783  0.1141  0.5452 -0.2048
   47BDD    C1921428   4.423   2.777   4.976 -0.5980  0.0171  0.3409
   47BDD    C2021429   4.333   2.833   5.120  0.6669 -0.0152  0.0246
   47BDD    C2121430   4.401   2.917   5.223 -0.8537 -0.1719 -1.1527
   47BDD    C2221431   4.320   3.034   5.289  0.4308 -0.3292  0.9631
   47BDD    C2321432   4.199   3.007   5.362 -0.5253  0.4136 -0.3424
   47BDD    C2421433   4.126   3.124   5.420  0.1261 -0.3226 -1.5681
   47BDD    C2521434   4.211   2.738   5.142  0.8128  0.1377 -0.1268
   47BDD    C2621435   4.161   2.660   5.013  0.3759  0.2058 -1.8957
   48TPM     C121436   4.884   2.911   5.317  0.3759  0.3666 -0.1678
   48TPM     C221437   4.930   2.784   5.296  1.2996  0.7826 -0.8034
   48TPM     C321438   5.011   2.732   5.403  0.9065  0.5141 -0.6307
   48TPM     C421439   5.027   2.820   5.506 -0.3171 -0.1066  0.1362
   48TPM     S121440   4.941   2.975   5.476 -1.0735 -0.4026  0.7046
   49BDTP    C121441   5.398   2.820   6.019 -0.0205  0.0125 -0.0597
   49BDTP    C221442   5.413   2.954   5.973 -0.2483  0.0848  0.0728
   49BDTP    C321443   5.350   3.002   5.859 -0.4189  0.1240  0.1824
   49BDTP    C421444   5.268   2.913   5.786 -0.3631  0.0907  0.1603
   49BDTP    C521445   5.253   2.779   5.832 -0.1357  0.0184  0.0277
   49BDTP    C621446   5.316   2.732   5.946  0.0352 -0.0209 -0.0820
   49BDTP    C721447   5.193   2.939   5.665 -0.5110  0.1204  0.2578
   49BDTP    C821448   5.123   2.833   5.619 -0.4069  0.0747  0.2056
   49BDTP    S121449   5.143   2.685   5.722 -0.1066 -0.0128  0.0253
   49BDTP    C921450   5.473   2.794   6.140  0.1274 -0.0173 -0.1575
   49BDTP   C1021451   5.542   2.900   6.186  0.0231  0.0286 -0.1051
   49BDTP    S221452   5.523   3.049   6.083 -0.2771  0.1159  0.0752
   50FTM     S121453   5.456   3.219   5.691 -0.5068  0.0134  0.0949
   50FTM     C121454   5.407   3.385   5.743 -0.7175 -0.0189  0.0006
   50FTM     C221455   5.321   3.377   5.848 -0.5414 -0.0626  0.1414
   50FTM     C321456   5.289   3.244   5.894 -0.2398 -0.0733  0.3268
   50FTM     C421457   5.352   3.148   5.821 -0.1828 -0.0367  0.3278
   50FTM     F121458   5.266   3.488   5.910 -0.6433 -0.0956  0.1109
   50FTM     C521459   5.463   3.512   5.682 -0.1834  0.4269  0.7474
   50FTM     C621460   5.480   3.518   5.530 -0.2427  0.0977 -0.7799
   50FTM     C721461   5.567   3.634   5.484 -1.2184 -0.1835 -1.1678
   50FTM     C821462   5.713   3.590   5.454 -0.2315  0.0447  0.3636
   50FTM     C921463   5.708   3.457   5.386 -1.6193 -0.4941 -0.3106
   50FTM    C1021464   5.737   3.480   5.240 -1.0442 -0.7594 -0.2814
   50FTM    C1121465   5.353   3.523   5.443  0.4369  0.1831 -1.6240
   50FTM    C1221466   5.329   3.377   5.422  0.1712  0.0671  0.4367
   51FTM     S121467   5.409   2.494   6.061 -0.2107  0.0854  0.0242
   51FTM     C121468   5.294   2.402   6.164  0.1289 -0.0368  0.2967
   51FTM     C221469   5.171   2.459   6.159  0.0134 -0.2681  0.4491
   51FTM     C321470   5.158   2.575   6.076 -0.3375 -0.3622  0.3653
   51FTM     C421471   5.276   2.608   6.016 -0.4961 -0.1976  0.1414
   51FTM     F121472   5.061   2.409   6.229  0.2189 -0.4085  0.6735
   51FTM     C521473   5.331   2.287   6.250 -0.7126  0.0892 -0.3961
   51FTM     C621474   5.483   2.281   6.281 -0.6182 -0.7589 -0.6890
   51FTM     C721475   5.562   2.155   6.240  0.6987 -0.6004 -0.9523
   51FTM     C821476   5.529   2.104   6.095  0.6766 -0.2757  0.7155
   51FTM     C921477   5.628   2.007   6.010 -0.0450 -0.4034 -2.3050
   51FTM    C1021478   5.635   1.884   6.087 -0.8414  0.4201  0.7182
   51FTM    C1121479   5.545   2.299   6.421 -0.4689 -0.8571 -1.0882
   51FTM    C1221480   5.501   2.397   6.524  0.3060 -0.7857 -0.8806
   52TPM     C121481   5.624   2.917   6.303 -0.0014 -0.1289  0.1040
   52TPM     C221482   5.583   2.969   6.422 -0.2221  0.4473 -0.2171
   52TPM     C321483   5.688   2.980   6.519 -0.3047  1.3352 -0.2118
   52TPM     C421484   5.809   2.936   6.475 -0.1472  1.4358  0.1134
   52TPM     S121485   5.800   2.877   6.305  0.1200  0.4092  0.4406
   53BDD     C121486   6.146   3.009   6.651 -0.0150 -0.3933 -0.4484
   53BDD     C221487   6.106   2.886   6.696 -0.0536 -0.3420 -0.3414
   53BDD     C321488   5.981   2.841   6.638 -0.0645 -0.3564 -0.3074
   53BDD     C421489   5.927   2.930   6.550 -0.0339 -0.4185 -0.3888
   53BDD     S121490   6.029   3.077   6.533  0.0106 -0.4632 -0.5136
   53BDD     C521491   6.182   2.806   6.795 -0.0820 -0.2777 -0.2669
   53BDD     C621492   5.920   2.711   6.673 -0.1045 -0.3080 -0.1955
   53BDD     O121493   5.812   2.672   6.622 -0.1138 -0.3204 -0.1663
   53BDD     O221494   6.290   2.845   6.845 -0.0727 -0.2653 -0.2964
   53BDD     C721495   5.995   2.631   6.771 -0.1330 -0.2438 -0.1209
   53BDD     C821496   6.120   2.676   6.829 -0.1222 -0.2294 -0.1550
   53BDD     C921497   6.174   2.587   6.918 -0.1528 -0.1672 -0.0739
   53BDD     S221498   6.072   2.440   6.935 -0.1973 -0.1226  0.0509
   53BDD    C1021499   5.956   2.508   6.816 -0.1717 -0.1924 -0.0143
   53BDD    C1121500   5.848   2.403   6.780 -0.1003 -1.0531  0.1392
   53BDD    C1221501   5.874   2.288   6.671 -0.1845 -1.3881 -1.8771
   53BDD    C1321502   5.929   2.362   6.539  0.3347  1.5735  0.1307
   53BDD    C1421503   5.980   2.260   6.448  0.9268 -0.2198  1.2520
   53BDD    C1521504   5.951   2.286   6.292 -0.1738 -1.0261  0.2417
   53BDD    C1621505   6.073   2.379   6.243 -0.3685  0.5911 -0.7389
   53BDD    C1721506   5.761   2.192   6.672 -0.2042 -0.5364  0.6991
   53BDD    C1821507   5.775   2.050   6.621 -0.5006  0.0637 -0.3839
   53BDD    C1921508   6.287   2.605   7.014 -1.4629  0.5320 -1.4672
   53BDD    C2021509   6.438   2.589   6.967  0.0756 -1.1889 -0.3524
   53BDD    C2121510   6.460   2.460   6.883  0.5634  0.9796  0.7119
   53BDD    C2221511   6.464   2.313   6.925 -0.1921  0.2590 -0.5023
   53BDD    C2321512   6.468   2.222   6.804 -1.1878  0.7255  0.5587
   53BDD    C2421513   6.457   2.071   6.822 -0.6336  0.1792  0.2012
   53BDD    C2521514   6.545   2.614   7.074 -0.2058  0.4071  0.2730
   53BDD    C2621515   6.704   2.560   7.058  0.6048 -0.4481  0.4723
   54TPM     C121516   6.278   3.074   6.646  0.2190 -0.5710  0.2937
   54TPM     C221517   6.298   3.199   6.696  0.0914 -0.6158  0.4622
   54TPM     C321518   6.426   3.255   6.660 -0.0799 -0.3246  0.2953
   54TPM     C421519   6.503   3.172   6.584 -0.0829 -0.0576 -0.0002
   54TPM     S121520   6.419   3.016   6.550  0.1319 -0.1542 -0.0916
   55BDTP    C121521   7.043   3.473   6.476  0.2648 -0.0514 -0.3864
   55BDTP    C221522   6.946   3.543   6.398  0.1116 -0.0778 -0.2220
   55BDTP    C321523   6.814   3.503   6.389  0.1142 -0.1347 -0.0232
   55BDTP    C421524   6.774   3.388   6.460  0.2759 -0.1669  0.0157
   55BDTP    C521525   6.870   3.318   6.538  0.4292 -0.1405 -0.1484
   55BDTP    C621526   7.003   3.358   6.547  0.4264 -0.0836 -0.3471
   55BDTP    C721527   6.642   3.328   6.466  0.3112 -0.2265  0.2087
   55BDTP    C821528   6.635   3.217   6.543  0.4815 -0.2456  0.1974
   55BDTP    S121529   6.794   3.174   6.620  0.6210 -0.1912 -0.0592
   55BDTP    C921530   7.174   3.533   6.470  0.2295  0.0081 -0.5792
   55BDTP   C1021531   7.181   3.644   6.392  0.0594  0.0273 -0.5680
   55BDTP    S221532   7.022   3.687   6.316 -0.0804 -0.0272 -0.3113
   56FTM     S121533   6.657   3.741   6.422  0.7940  0.8645 -0.3218
   56FTM     C121534   6.558   3.790   6.280  0.2099  0.3078 -0.1125
   56FTM     C221535   6.573   3.699   6.179 -0.4435 -0.2531  0.2754
   56FTM     C321536   6.661   3.589   6.206 -0.5276 -0.2831  0.4296
   56FTM     C421537   6.715   3.596   6.331  0.0810  0.2726  0.1509
   56FTM     F121538   6.509   3.711   6.057 -1.0041 -0.7724  0.5136
   56FTM     C521539   6.439   3.881   6.281  0.7836 -0.6277  0.0400
   56FTM     C621540   6.404   4.018   6.201  0.6168  0.0594 -0.6719
   56FTM     C721541   6.424   4.038   6.045  1.1014  0.5271 -0.1163
   56FTM     C821542   6.565   4.005   5.977  0.5091 -0.0507  0.6957
   56FTM     C921543   6.683   4.105   6.019  0.2806  0.0287 -0.2458
   56FTM    C1021544   6.675   4.243   6.074  0.2639 -0.4982  1.2432
   56FTM    C1121545   6.273   4.075   6.259  0.1701  1.2158 -0.2147
   56FTM    C1221546   6.212   4.200   6.211  0.9191 -2.3756 -0.1952
   57FTM     S121547   7.188   3.156   6.528 -0.2129  0.5261 -0.3006
   57FTM     C121548   7.274   3.100   6.677 -0.8180 -0.6047 -0.3523
   57FTM     C221549   7.236   3.176   6.783 -0.8010 -1.0216 -0.0432
   57FTM     C321550   7.141   3.280   6.756 -0.3277 -0.4997  0.2459
   57FTM     C421551   7.104   3.283   6.625  0.0291  0.3444  0.1552
   57FTM     F121552   7.286   3.156   6.911 -1.2126 -1.9004 -0.0038
   57FTM     C521553   7.351   2.969   6.671 -0.9304 -0.4853  0.3158
   57FTM     C621554   7.488   2.951   6.743 -0.0605  0.5344 -0.3248
   57FTM     C721555   7.548   2.818   6.686 -1.1304 -1.9197  0.1375
   57FTM     C821556   7.618   2.725   6.790  1.9618  0.3143  1.2799
   57FTM     C921557   7.709   2.631   6.733 -0.2123  1.0325  0.5386
   57FTM    C1021558   7.702   2.495   6.784  0.1500  0.1979  0.7966
   57FTM    C1121559   7.592   3.056   6.770 -1.3500 -0.3106  0.8563
   57FTM    C1221560   7.694   3.124   6.660 -0.6329  0.6799 -1.8190
   58TPM     C121561   7.298   3.724   6.382  0.6670 -0.5518  0.1250
   58TPM     C221562   7.376   3.753   6.490  0.9378 -0.8078  0.0029
   58TPM     C321563   7.500   3.818   6.456  0.6883 -0.3943 -0.1336
   58TPM     C421564   7.517   3.838   6.322  0.2273  0.1769 -0.1153
   58TPM     S121565   7.376   3.775   6.228  0.0712  0.2375  0.0770
   59BDD     C121566   7.739   4.046   6.074  0.0946 -0.3875 -0.1398
   59BDD     C221567   7.813   4.041   6.188  0.0119 -0.1915 -0.0767
   59BDD     C321568   7.753   3.961   6.293 -0.2662  0.3253  0.1677
   59BDD     C421569   7.634   3.905   6.257 -0.3914  0.5162  0.2876
   59BDD     S121570   7.588   3.950   6.089 -0.1698  0.0618  0.1026
   59BDD     C521571   7.943   4.110   6.205  0.1854 -0.4725 -0.2390
   59BDD     C621572   7.817   3.942   6.425 -0.3976  0.6114  0.2737
   59BDD     O121573   7.765   3.873   6.515 -0.6373  1.0573  0.4846
   59BDD     O221574   7.995   4.180   6.114  0.4250 -0.9185 -0.4498
   59BDD     C721575   7.947   4.011   6.442 -0.2242  0.3304  0.1115
   59BDD     C821576   8.007   4.092   6.337  0.0541 -0.1867 -0.1330
   59BDD     C921577   8.126   4.147   6.373  0.1791 -0.3774 -0.2528
   59BDD     S221578   8.172   4.102   6.540 -0.0423  0.0771 -0.0678
   59BDD    C1021579   8.021   4.006   6.556 -0.3068  0.5263  0.1746
   59BDD    C1121580   7.960   3.986   6.695  0.9850 -0.3304 -0.5979
   59BDD    C1221581   7.981   4.055   6.837  0.0032 -1.0482  0.5071
   59BDD    C1321582   8.117   4.002   6.884  1.0516  0.6869 -0.9049
   59BDD    C1421583   8.135   4.015   7.043 -0.1946  1.0884  0.5599
   59BDD    C1521584   8.019   3.979   7.139  0.0173 -0.8997 -0.7403
   59BDD    C1621585   7.966   3.839   7.122  0.3247 -0.6777 -1.1456
   59BDD    C1721586   7.939   4.205   6.838  0.1649  0.3284  1.0451
   59BDD    C1821587   8.027   4.291   6.767 -1.0584 -0.3093 -0.5416
   59BDD    C1921588   8.211   4.248   6.299 -0.7831 -0.2766 -0.4927
   59BDD    C2021589   8.218   4.385   6.374  0.1366 -1.7382  0.4250
   59BDD    C2121590   8.339   4.474   6.362 -0.3711 -0.4076 -0.2086
   59BDD    C2221591   8.471   4.427   6.434  0.2380 -0.2079 -0.1135
   59BDD    C2321592   8.601   4.506   6.410 -0.0986 -0.4418 -0.3614
   59BDD    C2421593   8.635   4.609   6.521  0.0480 -0.6431  0.0791
   59BDD    C2521594   8.094   4.468   6.435 -1.1619 -0.6664  1.1374
   59BDD    C2621595   8.038   4.582   6.364  0.7321  0.1046 -0.2116
   60TPM     C121596   7.742   4.111   5.941  0.0083  0.2246  0.5256
   60TPM     C221597   7.624   4.135   5.876 -0.0024  0.2871  0.5671
   60TPM     C321598   7.641   4.203   5.750  0.0337 -0.1667  0.3202
   60TPM     C421599   7.770   4.231   5.720  0.0720 -0.5751  0.0905
   60TPM     S121600   7.883   4.173   5.848  0.0651 -0.4172  0.1688
    1BDTP    C121601   7.866   0.334   0.675 -0.4313  0.0481  0.4349
    1BDTP    C221602   8.003   0.340   0.638 -0.4542 -0.1536  0.3142
    1BDTP    C321603   8.094   0.426   0.700 -0.3319 -0.0922  0.0526
    1BDTP    C421604   8.047   0.509   0.803 -0.1800  0.1809 -0.0973
    1BDTP    C521605   7.909   0.503   0.839 -0.1576  0.3826  0.0234
    1BDTP    C621606   7.819   0.418   0.778 -0.2798  0.3211  0.2849
    1BDTP    C721607   8.121   0.606   0.881 -0.0356  0.2933 -0.3713
    1BDTP    C821608   8.047   0.671   0.973  0.0925  0.5661 -0.4609
    1BDTP    S121609   7.873   0.621   0.974  0.0486  0.7190 -0.2110
    1BDTP    C921610   7.791   0.238   0.597 -0.5758 -0.0643  0.7088
    1BDTP   C1021611   7.865   0.172   0.504 -0.7042 -0.3371  0.7985
    1BDTP    S221612   8.039   0.223   0.503 -0.6605 -0.4900  0.5485
    2FTM     S121613   8.271   0.439   0.474 -0.0726 -0.1043 -0.4742
    2FTM     C121614   8.441   0.496   0.497 -0.2293  0.2508 -0.1918
    2FTM     C221615   8.461   0.529   0.627 -0.5553  0.4271 -0.1826
    2FTM     C321616   8.349   0.512   0.715 -0.6995  0.2999 -0.3896
    2FTM     C421617   8.240   0.464   0.650 -0.4769  0.0169 -0.5629
    2FTM     F121618   8.582   0.577   0.674 -0.7422  0.7142  0.0137
    2FTM     C521619   8.554   0.512   0.391  0.9613  1.5970 -0.0257
    2FTM     C621620   8.677   0.422   0.332  1.1000 -0.5071 -0.5118
    2FTM     C721621   8.764   0.483   0.221  0.0970  0.9820  0.7753
    2FTM     C821622   8.864   0.597   0.245 -0.5281 -0.4975 -1.6185
    2FTM     C921623   8.941   0.634   0.118 -0.0121  0.4358  1.8468
    2FTM    C1021624   9.077   0.595   0.144 -2.2274  0.9475  0.0786
    2FTM    C1121625   8.633   0.276   0.317 -0.0851  0.9751 -1.6489
    2FTM    C1221626   8.672   0.155   0.398 -0.3113  1.1383 -1.8797
    3FTM     S121627   7.590   0.585   0.792 -0.0148  0.0266 -0.6478
    3FTM     C121628   7.440   0.507   0.853  0.2002 -0.3042 -0.5362
    3FTM     C221629   7.463   0.375   0.879  0.3901 -0.3593 -0.9779
    3FTM     C321630   7.596   0.328   0.853  0.3802 -0.1527 -1.4192
    3FTM     C421631   7.677   0.427   0.806  0.1758  0.0678 -1.3121
    3FTM     F121632   7.365   0.289   0.927  0.5842 -0.6001 -1.0086
    3FTM     C521633   7.297   0.558   0.841 -0.6085 -0.9928 -1.3062
    3FTM     C621634   7.215   0.690   0.905  0.7951  2.0981 -0.3337
    3FTM     C721635   7.102   0.659   1.012 -1.1869 -0.4532 -0.0708
    3FTM     C821636   7.135   0.584   1.142  0.9261  0.0009  0.7189
    3FTM     C921637   7.229   0.586   1.249  0.5510 -0.8417  0.0220
    3FTM    C1021638   7.304   0.707   1.294  0.8077 -0.0673  0.0857
    3FTM    C1121639   7.312   0.807   0.939 -0.6690 -0.4458  0.1966
    3FTM    C1221640   7.272   0.948   0.963 -1.0483  0.1629  0.7139
    4TPM     C121641   7.833   0.080   0.392 -0.7831 -0.7002 -0.3465
    4TPM     C221642   7.709   0.028   0.368 -0.7548 -0.5094 -0.9628
    4TPM     C321643   7.688  -0.012   0.232 -0.3070 -0.0410 -1.1765
    4TPM     C421644   7.796   0.010   0.151  0.0062  0.1252 -0.7232
    4TPM     S121645   7.933   0.083   0.242 -0.2421 -0.3001  0.0145
    5BDD     C121646   7.709  -0.153  -0.198  0.1943 -0.3908  0.4058
    5BDD     C221647   7.845  -0.165  -0.183  0.2395 -0.1647  0.1988
    5BDD     C321648   7.894  -0.105  -0.060  0.4073  0.4141 -0.1421
    5BDD     C421649   7.796  -0.049   0.016  0.4879  0.6217 -0.1906
    5BDD     S121650   7.634  -0.066  -0.060  0.3591  0.1059  0.1876
    5BDD     C521651   7.933  -0.232  -0.280  0.1297 -0.4735  0.3076
    5BDD     C621652   8.037  -0.107  -0.023  0.4818  0.7410 -0.4077
    5BDD     O121653   8.080  -0.055   0.083  0.6268  1.2403 -0.7017
    5BDD     O221654   7.891  -0.283  -0.386 -0.0151 -0.9725  0.6018
    5BDD     C721655   8.126  -0.173  -0.120  0.3722  0.4323 -0.2992
    5BDD     C821656   8.076  -0.233  -0.243  0.2041 -0.1469  0.0420
    5BDD     C921657   8.175  -0.290  -0.320  0.1237 -0.3543  0.0906
    5BDD     S221658   8.336  -0.272  -0.243  0.2526  0.1615 -0.2876
    5BDD    C1021659   8.261  -0.185  -0.105  0.4172  0.6580 -0.5057
    5BDD    C1121660   8.352  -0.120  -0.016  1.0687 -0.3664 -1.3071
    5BDD    C1221661   8.376   0.024  -0.067  1.6449 -2.5819 -0.2438
    5BDD    C1321662   8.481   0.003  -0.184  0.0677 -0.4909  0.8410
    5BDD    C1421663   8.418   0.040  -0.314 -0.4118  0.4966  1.0698
    5BDD    C1521664   8.404   0.190  -0.335 -0.9532  0.1426  0.4536
    5BDD    C1621665   8.265   0.231  -0.312  0.0711  0.0349 -1.1357
    5BDD    C1721666   8.436   0.111   0.049 -1.0255 -0.5708 -1.0749
    5BDD    C1821667   8.337   0.206   0.126 -1.0331 -0.2667  0.6986
    5BDD    C1921668   8.162  -0.358  -0.466  1.4187 -0.1266 -1.0334
    5BDD    C2021669   8.294  -0.426  -0.523 -0.4378 -0.1815  0.2924
    5BDD    C2121670   8.364  -0.530  -0.420  0.7022 -1.0005  0.0513
    5BDD    C2221671   8.306  -0.664  -0.379  0.9409  0.2540  1.2322
    5BDD    C2321672   8.370  -0.719  -0.257 -0.6728  0.0672  0.3759
    5BDD    C2421673   8.330  -0.668  -0.122  0.3752 -0.5490 -0.4413
    5BDD    C2521674   8.334  -0.452  -0.669 -0.0906 -0.5178  0.6838
    5BDD    C2621675   8.200  -0.446  -0.767  0.6107  0.5129 -0.4261
    6TPM     C121676   7.606  -0.209  -0.290 -0.2457 -0.1356 -0.8693
    6TPM     C221677   7.606  -0.197  -0.426  0.0136 -1.0419 -0.9606
    6TPM     C321678   7.480  -0.231  -0.487  0.0736 -1.2670 -0.9625
    6TPM     C421679   7.384  -0.268  -0.398 -0.1401 -0.5320 -0.8727
    6TPM     S121680   7.446  -0.264  -0.229 -0.4356  0.5088 -0.7778
    7BDTP    C121681   6.846  -0.570  -0.537  0.6549 -0.6158 -0.3054
    7BDTP    C221682   6.842  -0.568  -0.395  0.1796  0.0510 -0.3150
    7BDTP    C321683   6.943  -0.511  -0.318 -0.1355  0.5193 -0.2403
    7BDTP    C421684   7.052  -0.453  -0.385  0.0247  0.3219 -0.1521
    7BDTP    C521685   7.056  -0.455  -0.527  0.5000 -0.3452 -0.1428
    7BDTP    C621686   6.955  -0.511  -0.604  0.8153 -0.8129 -0.2173
    7BDTP    C721687   7.168  -0.388  -0.326 -0.2367  0.7181 -0.0648
    7BDTP    C821688   7.257  -0.342  -0.417  0.0160  0.3853  0.0088
    7BDTP    S121689   7.207  -0.373  -0.589  0.6208 -0.4768 -0.0222
    7BDTP    C921690   6.730  -0.634  -0.595  0.9164 -1.0121 -0.3927
    7BDTP   C1021691   6.641  -0.681  -0.504  0.6634 -0.6793 -0.4663
    7BDTP    S221692   6.691  -0.649  -0.333  0.0587  0.1831 -0.4354
    8FTM     S121693   6.983  -0.591  -0.044 -0.2261 -0.1653  0.5660
    8FTM     C121694   6.906  -0.487   0.081 -0.6177  0.1393  0.0793
    8FTM     C221695   6.849  -0.378   0.023 -0.1397  0.1771 -0.3276
    8FTM     C321696   6.862  -0.369  -0.120  0.5435 -0.0243 -0.2868
    8FTM     C421697   6.930  -0.475  -0.172  0.5905 -0.2221  0.1658
    8FTM     F121698   6.782  -0.280   0.095 -0.2927  0.3955 -0.7613
    8FTM     C521699   6.929  -0.525   0.229  0.8387  0.5237 -0.5358
    8FTM     C621700   7.071  -0.568   0.279  0.4671  1.2198  0.8141
    8FTM     C721701   7.195  -0.502   0.239  0.5010  0.9702  1.3475
    8FTM     C821702   7.213  -0.403   0.343  0.5833  0.5039 -0.0434
    8FTM     C921703   7.302  -0.310   0.257  0.0658  0.7312 -0.1535
    8FTM    C1021704   7.434  -0.315   0.332 -0.2807 -0.4619  0.6093
    8FTM    C1121705   7.085  -0.667   0.401 -0.8095  0.7150  0.1117
    8FTM    C1221706   6.967  -0.678   0.501 -0.5645  0.5426  0.5061
    9FTM     S121707   6.825  -0.481  -0.864  0.1775 -0.0861 -0.1176
    9FTM     C121708   6.917  -0.548  -1.004  0.1300 -0.0182 -0.1816
    9FTM     C221709   7.037  -0.597  -0.962  0.2449  0.1733 -0.2832
    9FTM     C321710   7.064  -0.585  -0.821  0.3737  0.2773 -0.3169
    9FTM     C421711   6.962  -0.525  -0.754  0.3571  0.1607 -0.2382
    9FTM     F121712   7.129  -0.656  -1.047  0.2403  0.2666 -0.3524
    9FTM     C521713   6.840  -0.554  -1.131  0.2980  0.6506  1.1660
    9FTM     C621714   6.828  -0.451  -1.236  1.2361 -0.5647 -1.0113
    9FTM     C721715   6.822  -0.307  -1.196  0.0291 -1.5847  0.4454
    9FTM     C821716   6.734  -0.233  -1.090  0.5027 -0.4385  0.6194
    9FTM     C921717   6.764  -0.078  -1.053  0.4659 -0.2252  0.1853
    9FTM    C1021718   6.652  -0.011  -0.973 -1.0189  0.1008  0.6392
    9FTM    C1121719   6.732  -0.509  -1.335  0.6350  1.1844 -0.2824
    9FTM    C1221720   6.766  -0.476  -1.479 -0.0523 -0.5923  0.0154
   10TPM     C121721   6.510  -0.735  -0.533  0.0784  0.1128 -0.1869
   10TPM     C221722   6.473  -0.855  -0.481  0.4470 -0.0567 -0.3097
   10TPM     C321723   6.338  -0.893  -0.512  0.5183 -0.3808 -0.2387
   10TPM     C421724   6.272  -0.801  -0.588  0.2042 -0.4581 -0.0615
   10TPM     S121725   6.376  -0.659  -0.626 -0.2094 -0.1249  0.0295
   11BDD     C121726   5.957  -0.846  -0.814 -0.2639  0.2576 -0.1738
   11BDD     C221727   5.909  -0.805  -0.693 -0.2129  0.2990 -0.1678
   11BDD     C321728   6.013  -0.792  -0.592 -0.1699  0.3366 -0.2170
   11BDD     C421729   6.138  -0.823  -0.638 -0.1889  0.3234 -0.2595
   11BDD     S121730   6.134  -0.871  -0.811 -0.2618  0.2625 -0.2413
   11BDD     C521731   5.767  -0.777  -0.665 -0.2017  0.3054 -0.1166
   11BDD     C621732   5.984  -0.749  -0.453 -0.1118  0.3846 -0.2196
   11BDD     O121733   6.073  -0.738  -0.366 -0.0747  0.4172 -0.2615
   11BDD     O221734   5.678  -0.788  -0.752 -0.2388  0.2730 -0.0746
   11BDD     C721735   5.842  -0.721  -0.426 -0.1004  0.3912 -0.1686
   11BDD     C821736   5.738  -0.734  -0.526 -0.1433  0.3533 -0.1194
   11BDD     C921737   5.613  -0.703  -0.480 -0.1242  0.3669 -0.0770
   11BDD     S221738   5.617  -0.655  -0.307 -0.0514  0.4274 -0.0952
   11BDD    C1021739   5.794  -0.680  -0.304 -0.0492  0.4330 -0.1626
   11BDD    C1121740   5.871  -0.635  -0.184  0.3009  0.3125  0.7136
   11BDD    C1221741   5.866  -0.494  -0.133 -0.1404 -0.0943  0.2757
   11BDD    C1321742   5.758  -0.463  -0.028 -0.2631  0.5427 -0.3327
   11BDD    C1421743   5.793  -0.480   0.119  0.2271 -0.2960  0.6507
   11BDD    C1521744   5.749  -0.358   0.216 -0.9182  0.6557  0.3985
   11BDD    C1621745   5.759  -0.420   0.352 -0.0538 -1.2016 -1.0341
   11BDD    C1721746   5.930  -0.376  -0.210  0.0923  0.8565 -0.7394
   11BDD    C1821747   5.985  -0.267  -0.118  1.1625  0.0840  0.8474
   11BDD    C1921748   5.487  -0.686  -0.562  1.0236  0.0058 -0.1168
   11BDD    C2021749   5.393  -0.818  -0.554 -0.3383 -1.1699 -1.0423
   11BDD    C2121750   5.438  -0.973  -0.567 -0.0118 -1.2483 -1.4562
   11BDD    C2221751   5.418  -1.065  -0.673 -0.8172  0.2579  0.5479
   11BDD    C2321752   5.473  -1.195  -0.623  0.3457  0.5015 -0.8258
   11BDD    C2421753   5.387  -1.307  -0.691  0.2428  0.9543  0.8322
   11BDD    C2521754   5.274  -0.788  -0.651 -0.2654  0.8019  0.1929
   11BDD    C2621755   5.147  -0.708  -0.630 -0.8034  0.5070  0.0743
   12TPM     C121756   5.898  -0.872  -0.958 -0.9860 -0.3065  0.2989
   12TPM     C221757   5.795  -0.962  -0.960 -0.7869 -0.5302 -0.0267
   12TPM     C321758   5.773  -1.021  -1.089 -0.2328 -0.6013 -0.0942
   12TPM     C421759   5.859  -0.977  -1.185 -0.0092 -0.4321  0.1802
   12TPM     S121760   5.975  -0.856  -1.120 -0.4849 -0.1677  0.5472
   13BDTP    C121761   5.730  -1.191  -1.762 -0.3586  0.1626 -0.4513
   13BDTP    C221762   5.602  -1.186  -1.698 -0.3325 -0.0443 -0.3827
   13BDTP    C321763   5.586  -1.146  -1.566 -0.3046 -0.2518 -0.3159
   13BDTP    C421764   5.701  -1.110  -1.493 -0.3026 -0.2561 -0.3169
   13BDTP    C521765   5.828  -1.114  -1.557 -0.3288 -0.0494 -0.3855
   13BDTP    C621766   5.844  -1.154  -1.689 -0.3565  0.1581 -0.4525
   13BDTP    C721767   5.709  -1.065  -1.355 -0.2762 -0.4503 -0.2557
   13BDTP    C821768   5.834  -1.037  -1.313 -0.2812 -0.4003 -0.2739
   13BDTP    S121769   5.960  -1.062  -1.442 -0.3201 -0.0997 -0.3724
   13BDTP    C921770   5.722  -1.235  -1.899 -0.3848  0.3569 -0.5131
   13BDTP   C1021771   5.596  -1.264  -1.941 -0.3798  0.3066 -0.4945
   13BDTP    S221772   5.470  -1.238  -1.812 -0.3409  0.0062 -0.3960
   14FTM     S121773   5.323  -1.014  -1.543  0.1531 -0.3653  0.3113
   14FTM     C121774   5.205  -1.113  -1.450  0.1201 -0.5829  0.0400
   14FTM     C221775   5.266  -1.226  -1.404  0.0545 -0.7823 -0.3595
   14FTM     C321776   5.404  -1.242  -1.438  0.0263 -0.7787 -0.4761
   14FTM     C421777   5.451  -1.138  -1.512  0.0723 -0.5692 -0.1557
   14FTM     F121778   5.199  -1.322  -1.329  0.0159 -0.9804 -0.6437
   14FTM     C521779   5.066  -1.047  -1.433  0.1582  2.0398 -0.6824
   14FTM     C621780   4.953  -1.015  -1.554  0.3861 -0.5827 -1.1584
   14FTM     C721781   4.865  -1.117  -1.605 -1.6252  0.2123  0.2547
   14FTM     C821782   4.761  -1.198  -1.516  0.3900  0.0989  0.9442
   14FTM     C921783   4.646  -1.245  -1.626  0.5477 -0.8551 -0.1123
   14FTM    C1021784   4.529  -1.284  -1.532 -0.7578 -1.1094 -0.1257
   14FTM    C1121785   4.977  -0.892  -1.649 -1.1165  0.1748  0.5140
   14FTM    C1221786   5.073  -0.893  -1.766 -0.9219 -0.0126  0.6042
   15FTM     S121787   6.005  -1.340  -1.809  0.0097 -0.0666  0.3175
   15FTM     C121788   6.171  -1.291  -1.858  0.0234 -0.2454  0.1833
   15FTM     C221789   6.193  -1.161  -1.826  0.0545 -0.1571 -0.1807
   15FTM     C321790   6.084  -1.093  -1.762  0.0694  0.0503 -0.3729
   15FTM     C421791   5.976  -1.174  -1.745  0.0488  0.1232 -0.1484
   15FTM     F121792   6.312  -1.095  -1.852  0.0715 -0.2587 -0.3617
   15FTM     C521793   6.246  -1.400  -1.927 -0.3133 -0.7247 -1.0448
   15FTM     C621794   6.350  -1.502  -1.862  0.3352 -1.1402 -1.6950
   15FTM     C721795   6.377  -1.635  -1.918  0.8362 -0.4659  1.1109
   15FTM     C821796   6.370  -1.664  -2.063  0.1260  0.4233 -0.5980
   15FTM     C921797   6.474  -1.766  -2.101 -0.5434 -0.6020  0.2081
   15FTM    C1021798   6.614  -1.696  -2.078  0.7655 -0.2919 -0.0431
   15FTM    C1121799   6.346  -1.496  -1.691 -0.7533  0.7406  1.0797
   15FTM    C1221800   6.324  -1.643  -1.637 -0.7746  1.8204 -0.6084
   16TPM     C121801   5.554  -1.260  -2.080  0.3090  0.4309  0.0895
   16TPM     C221802   5.614  -1.223  -2.197  0.2513  0.2096 -0.0107
   16TPM     C321803   5.522  -1.210  -2.307  0.2621 -0.4699 -0.1104
   16TPM     C421804   5.392  -1.237  -2.275  0.3279 -0.7667 -0.0863
   16TPM     S121805   5.376  -1.281  -2.101  0.3820 -0.2062  0.0658
   17BDD     C121806   5.099  -1.293  -2.528 -0.4361  0.0807  0.1187
   17BDD     C221807   5.102  -1.158  -2.502 -0.3355  0.0856  0.0806
   17BDD     C321808   5.208  -1.120  -2.410 -0.1776  0.0603 -0.0880
   17BDD     C421809   5.283  -1.226  -2.366 -0.1600  0.0369 -0.1751
   17BDD     S121810   5.227  -1.381  -2.438 -0.3400  0.0443 -0.0529
   17BDD     C521811   5.009  -1.060  -2.562 -0.3809  0.1132  0.1972
   17BDD     C621812   5.230  -0.980  -2.368 -0.0497  0.0610 -0.1559
   17BDD     O121813   5.321  -0.947  -2.288  0.0865  0.0393 -0.3011
   17BDD     O221814   4.919  -1.093  -2.641 -0.5170  0.1347  0.3421
   17BDD     C721815   5.137  -0.882  -2.427 -0.0950  0.0887 -0.0396
   17BDD     C821816   5.031  -0.920  -2.520 -0.2530  0.1135  0.1287
   17BDD     C921817   4.956  -0.815  -2.563 -0.2706  0.1371  0.2160
   17BDD     S221818   5.012  -0.660  -2.491 -0.0907  0.1297  0.0936
   17BDD    C1021819   5.140  -0.748  -2.401  0.0055  0.0935 -0.0782
   17BDD    C1121820   5.242  -0.669  -2.331 -0.6347 -0.6109 -0.2184
   17BDD    C1221821   5.185  -0.539  -2.255 -0.5789 -0.4052 -1.4483
   17BDD    C1321822   5.283  -0.422  -2.243  0.2829 -0.3913 -1.0566
   17BDD    C1421823   5.394  -0.436  -2.137 -0.9405 -0.1142  0.1742
   17BDD    C1521824   5.511  -0.339  -2.131 -0.8243  0.6182 -0.7013
   17BDD    C1621825   5.471  -0.197  -2.106  1.3226 -0.6000  0.0369
   17BDD    C1721826   5.094  -0.568  -2.141  0.0847 -0.5530 -0.2686
   17BDD    C1821827   4.975  -0.476  -2.087 -0.4922  0.3277  1.0214
   17BDD    C1921828   4.826  -0.810  -2.621  0.6438  1.7916  0.1549
   17BDD    C2021829   4.714  -0.767  -2.526 -0.5547 -1.5863 -1.3276
   17BDD    C2121830   4.687  -0.877  -2.436 -0.4441 -0.3576 -1.9927
   17BDD    C2221831   4.640  -0.877  -2.283 -0.3954 -1.0571  0.1237
   17BDD    C2321832   4.653  -1.011  -2.207 -0.1783  0.7222 -0.3160
   17BDD    C2421833   4.789  -1.074  -2.188  0.6927 -0.6833  0.3698
   17BDD    C2521834   4.601  -0.740  -2.635 -0.9642 -0.4582  0.2842
   17BDD    C2621835   4.466  -0.706  -2.573 -0.5011 -1.2396  0.0738
   18TPM     C121836   5.015  -1.377  -2.608  1.0130 -0.0183  0.8536
   18TPM     C221837   4.881  -1.399  -2.604  0.9779  0.2751  1.4582
   18TPM     C321838   4.836  -1.505  -2.691  0.3016  0.6449  1.3399
   18TPM     C421839   4.937  -1.564  -2.762 -0.1792  0.6336  0.6451
   18TPM     S121840   5.097  -1.489  -2.724  0.1881  0.1514  0.0820
   19BDTP    C121841   5.003  -2.091  -3.092 -0.1119 -0.0899 -0.0386
   19BDTP    C221842   5.077  -2.116  -2.972 -0.0844  0.0119 -0.0341
   19BDTP    C321843   5.088  -2.024  -2.869 -0.1212  0.0713 -0.0842
   19BDTP    C421844   5.022  -1.900  -2.885 -0.1885  0.0288 -0.1409
   19BDTP    C521845   4.948  -1.875  -3.004 -0.2160 -0.0727 -0.1457
   19BDTP    C621846   4.938  -1.968  -3.107 -0.1790 -0.1321 -0.0957
   19BDTP    C721847   5.018  -1.789  -2.792 -0.2365  0.0754 -0.1988
   19BDTP    C821848   4.946  -1.683  -2.835 -0.2979  0.0145 -0.2460
   19BDTP    S121849   4.873  -1.709  -3.000 -0.3035 -0.1104 -0.2236
   19BDTP    C921850   5.007  -2.203  -3.184 -0.0638 -0.1366  0.0191
   19BDTP   C1021851   5.079  -2.309  -3.141 -0.0024 -0.0758  0.0663
   19BDTP    S221852   5.153  -2.283  -2.977  0.0032  0.0496  0.0439
   20FTM     S121853   5.324  -2.004  -2.715  0.0102  0.0764  0.0581
   20FTM     C121854   5.342  -2.124  -2.582 -0.0337  0.4696  0.4226
   20FTM     C221855   5.228  -2.196  -2.569  0.1580  0.1228  0.2165
   20FTM     C321856   5.121  -2.164  -2.660  0.3463 -0.4561 -0.2263
   20FTM     C421857   5.156  -2.063  -2.745  0.2968 -0.5555 -0.3641
   20FTM     F121858   5.212  -2.297  -2.474  0.1745  0.3088  0.4170
   20FTM     C521859   5.483  -2.158  -2.534 -1.1116  0.4096 -1.6553
   20FTM     C621860   5.561  -2.105  -2.400 -0.5722  0.0050 -0.4072
   20FTM     C721861   5.577  -1.963  -2.404  0.5061  0.0062 -0.2807
   20FTM     C821862   5.451  -1.874  -2.355 -0.9801  0.6898  1.4217
   20FTM     C921863   5.358  -1.803  -2.440 -0.9300  0.0116  0.1919
   20FTM    C1021864   5.240  -1.770  -2.357  2.2487  1.1614  0.8444
   20FTM    C1121865   5.696  -2.179  -2.378 -1.0098  0.0838 -0.2951
   20FTM    C1221866   5.769  -2.131  -2.248 -0.6639  0.3043 -0.7019
   21FTM     S121867   4.666  -1.942  -3.151 -0.2793  0.0054  0.0076
   21FTM     C121868   4.603  -1.940  -3.320 -0.3995  1.3594  0.0432
   21FTM     C221869   4.707  -1.950  -3.408 -0.4802  1.8320 -0.1135
   21FTM     C321870   4.838  -1.960  -3.351 -0.4541  1.1859 -0.2668
   21FTM     C421871   4.835  -1.957  -3.214 -0.3500  0.1859 -0.2263
   21FTM     F121872   4.689  -1.952  -3.545 -0.5825  2.8780 -0.1273
   21FTM     C521873   4.466  -1.942  -3.348 -0.7174 -1.1183  0.7199
   21FTM     C621874   4.404  -1.810  -3.315  0.4881  0.2325 -0.8454
   21FTM     C721875   4.380  -1.706  -3.427 -0.1274  0.7987  0.5113
   21FTM     C821876   4.292  -1.732  -3.548  0.2526 -0.6058  0.4278
   21FTM     C921877   4.384  -1.770  -3.660 -0.2000  0.1431  0.4766
   21FTM    C1021878   4.308  -1.794  -3.789  0.3550 -0.2024  0.0424
   21FTM    C1121879   4.302  -1.804  -3.202  1.1366 -1.6807 -0.2093
   21FTM    C1221880   4.322  -1.814  -3.053 -0.7815 -1.3497 -0.8772
   22TPM     C121881   5.125  -2.412  -3.235 -0.1083  0.3183 -0.2328
   22TPM     C221882   5.210  -2.503  -3.182 -0.5233  0.5090  0.8008
   22TPM     C321883   5.218  -2.627  -3.256  0.0887  0.2375  1.2937
   22TPM     C421884   5.137  -2.629  -3.366  0.9704 -0.1609  0.6359
   22TPM     S121885   5.046  -2.475  -3.385  1.0970 -0.2235 -0.6667
   23BDD     C121886   5.209  -2.988  -3.510  0.5028 -0.2638 -0.0037
   23BDD     C221887   5.156  -2.920  -3.616  0.4854 -0.2456  0.0170
   23BDD     C321888   5.120  -2.783  -3.584  0.3076 -0.3114  0.0999
   23BDD     C421889   5.146  -2.749  -3.454  0.1920 -0.3793  0.1415
   23BDD     S121890   5.218  -2.886  -3.363  0.2975 -0.3648  0.0794
   23BDD     C521891   5.136  -2.978  -3.751  0.6319 -0.1667 -0.0389
   23BDD     C621892   5.060  -2.691  -3.683  0.2590 -0.3049  0.1351
   23BDD     O121893   5.029  -2.573  -3.655  0.1057 -0.3617  0.2066
   23BDD     O221894   5.167  -3.096  -3.778  0.7852 -0.1101 -0.1103
   23BDD     C721895   5.041  -2.749  -3.818  0.4053 -0.2263  0.0792
   23BDD     C821896   5.077  -2.886  -3.850  0.5832 -0.1605 -0.0038
   23BDD     C921897   5.051  -2.920  -3.980  0.6988 -0.0927 -0.0453
   23BDD     S221898   4.979  -2.783  -4.070  0.5931 -0.1070  0.0166
   23BDD    C1021899   4.987  -2.681  -3.923  0.3879 -0.2079  0.0997
   23BDD    C1121900   4.974  -2.524  -3.943 -0.3143 -0.4748  0.1780
   23BDD    C1221901   5.057  -2.432  -4.033 -0.1417 -0.2054 -0.4809
   23BDD    C1321902   5.163  -2.390  -3.930 -0.6078  0.7215 -0.9527
   23BDD    C1421903   5.148  -2.256  -3.863 -0.9086  0.3766 -0.1175
   23BDD    C1521904   5.032  -2.231  -3.771 -1.4603  0.1355  0.4450
   23BDD    C1621905   5.103  -2.196  -3.635  1.1362  1.2185 -0.9414
   23BDD    C1721906   5.086  -2.439  -4.195 -0.2499  0.3482 -0.9395
   23BDD    C1821907   5.209  -2.515  -4.240 -0.3606 -0.1194 -0.6702
   23BDD    C1921908   5.054  -3.063  -4.052  0.8252 -1.6432  0.6239
   23BDD    C2021909   4.917  -3.134  -4.090 -0.8799  1.4442  0.6753
   23BDD    C2121910   4.881  -3.150  -4.233  0.9151 -1.0297  0.8606
   23BDD    C2221911   4.986  -3.183  -4.327 -1.0613 -0.6537  0.9273
   23BDD    C2321912   4.971  -3.173  -4.470 -0.0581  0.0184 -0.2838
   23BDD    C2421913   4.895  -3.283  -4.515 -0.3258  0.2043 -0.0123
   23BDD    C2521914   4.788  -3.092  -4.027 -0.0318  0.3699  0.1988
   23BDD    C2621915   4.665  -3.176  -4.041 -0.4979 -1.0678 -0.8676
   24TPM     C121916   5.257  -3.123  -3.492 -0.9520 -0.3768 -1.2139
   24TPM     C221917   5.210  -3.197  -3.388 -0.2183  0.0639 -0.5445
   24TPM     C321918   5.270  -3.328  -3.379  0.7921  0.5651  0.3989
   24TPM     C421919   5.363  -3.353  -3.476  0.8291  0.5057  0.4492
   24TPM     S121920   5.382  -3.212  -3.587 -0.4194 -0.1924 -0.6999
   25BDTP    C121921   5.576  -3.938  -3.564 -0.3273 -0.0736  0.0842
   25BDTP    C221922   5.641  -3.864  -3.667 -0.2441 -0.1403  0.0885
   25BDTP    C321923   5.627  -3.727  -3.681 -0.1829 -0.1401  0.0263
   25BDTP    C421924   5.546  -3.658  -3.589 -0.2042 -0.0713 -0.0433
   25BDTP    C521925   5.481  -3.732  -3.486 -0.2871 -0.0048 -0.0476
   25BDTP    C621926   5.495  -3.870  -3.472 -0.3485 -0.0048  0.0145
   25BDTP    C721927   5.516  -3.517  -3.584 -0.1511 -0.0575 -0.1150
   25BDTP    C821928   5.434  -3.481  -3.482 -0.1898  0.0154 -0.1725
   25BDTP    S121929   5.382  -3.622  -3.380 -0.2987  0.0769 -0.1431
   25BDTP    C921930   5.606  -4.080  -3.569 -0.3802 -0.0874  0.1560
   25BDTP   C1021931   5.688  -4.115  -3.671 -0.3414 -0.1603  0.2133
   25BDTP    S221932   5.740  -3.975  -3.773 -0.2326 -0.2217  0.1840
   26FTM     S121933   5.793  -3.535  -3.840 -0.5432  0.0219 -0.2625
   26FTM     C121934   5.802  -3.590  -4.011 -0.6821  0.1302 -0.3053
   26FTM     C221935   5.714  -3.691  -4.032 -0.5631  0.0141 -0.2483
   26FTM     C321936   5.636  -3.731  -3.919 -0.3617 -0.1619 -0.1698
   26FTM     C421937   5.665  -3.658  -3.808 -0.3251 -0.1810 -0.1666
   26FTM     F121938   5.698  -3.754  -4.155 -0.6297  0.0604 -0.2636
   26FTM     C521939   5.896  -3.525  -4.102 -1.0741  0.1718  0.1976
   26FTM     C621940   6.055  -3.552  -4.090  0.0932  0.1256 -0.0310
   26FTM     C721941   6.147  -3.459  -4.173 -0.0907  0.4349  0.7380
   26FTM     C821942   6.108  -3.404  -4.306  0.4874  0.0756 -0.0947
   26FTM     C921943   6.108  -3.523  -4.404 -1.4900  0.1476  0.1251
   26FTM    C1021944   6.253  -3.556  -4.454  0.9161  0.7108  0.8545
   26FTM    C1121945   6.108  -3.696  -4.076  0.2138  0.4313  0.0047
   26FTM    C1221946   6.065  -3.818  -4.176  0.5296 -1.2605 -1.0842
   27FTM     S121947   5.285  -4.036  -3.396 -0.0014 -0.4923  0.2013
   27FTM     C121948   5.312  -4.120  -3.239 -0.6096 -0.1230  0.5128
   27FTM     C221949   5.420  -4.066  -3.176 -0.5774 -0.2732  0.5884
   27FTM     C321950   5.485  -3.958  -3.244 -0.0898 -0.6748  0.4129
   27FTM     C421951   5.426  -3.929  -3.363  0.2632 -0.8376  0.1956
   27FTM     F121952   5.465  -4.110  -3.052 -0.9878 -0.0558  0.8211
   27FTM     C521953   5.222  -4.228  -3.178 -0.5843  1.2718  1.1478
   27FTM     C621954   5.230  -4.374  -3.246 -0.5137 -0.0498 -1.2644
   27FTM     C721955   5.206  -4.496  -3.167  0.9103  1.6421  0.2894
   27FTM     C821956   5.288  -4.567  -3.053 -0.8232 -0.0549 -0.7136
   27FTM     C921957   5.308  -4.467  -2.941  0.0331 -0.4676 -0.3152
   27FTM    C1021958   5.337  -4.519  -2.799  0.4695 -0.0907  0.5592
   27FTM    C1121959   5.150  -4.386  -3.380 -0.3171 -1.5754  0.1264
   27FTM    C1221960   5.249  -4.463  -3.464 -0.8851  0.1649  1.9460
   28TPM     C121961   5.666  -4.247  -3.724  0.7774 -0.3338  0.1192
   28TPM     C221962   5.760  -4.312  -3.799  1.0116 -0.5033  0.5583
   28TPM     C321963   5.746  -4.456  -3.795  0.9449 -0.4932  0.7648
   28TPM     C421964   5.642  -4.499  -3.719  0.6593 -0.3160  0.4836
   28TPM     S121965   5.553  -4.362  -3.644  0.4512 -0.1468 -0.0686
   29BDD     C121966   5.633  -4.841  -3.522  0.2286 -0.0570  0.0299
   29BDD     C221967   5.659  -4.877  -3.651  0.1975 -0.0800  0.0302
   29BDD     C321968   5.660  -4.765  -3.743  0.1085 -0.1048 -0.0013
   29BDD     C421969   5.635  -4.645  -3.682  0.0730 -0.1001 -0.0250
   29BDD     S121970   5.608  -4.664  -3.506  0.1485 -0.0646 -0.0094
   29BDD     C521971   5.684  -5.016  -3.695  0.2486 -0.0802  0.0590
   29BDD     C621972   5.686  -4.780  -3.888  0.0621 -0.1321 -0.0069
   29BDD     O121973   5.687  -4.683  -3.967 -0.0145 -0.1533 -0.0339
   29BDD     O221974   5.683  -5.113  -3.616  0.3253 -0.0588  0.0861
   29BDD     C721975   5.711  -4.919  -3.932  0.1130 -0.1322  0.0223
   29BDD     C821976   5.710  -5.032  -3.840  0.2021 -0.1075  0.0538
   29BDD     C921977   5.735  -5.151  -3.900  0.2377 -0.1121  0.0772
   29BDD     S221978   5.762  -5.132  -4.077  0.1623 -0.1475  0.0618
   29BDD    C1021979   5.737  -4.955  -4.061  0.0823 -0.1553  0.0224
   29BDD    C1121980   5.736  -4.881  -4.196  1.6672  0.3766 -0.3058
   29BDD    C1221981   5.810  -4.766  -4.245 -0.7900 -0.2711 -1.1806
   29BDD    C1321982   5.748  -4.677  -4.349 -0.4988  0.1025 -1.0651
   29BDD    C1421983   5.821  -4.528  -4.338 -0.5898 -0.3284  0.1736
   29BDD    C1521984   5.906  -4.488  -4.455 -0.2373  0.7614  0.4328
   29BDD    C1621985   5.834  -4.445  -4.578  0.2217 -1.0387 -0.7960
   29BDD    C1721986   5.963  -4.803  -4.253 -0.2248 -0.8945  0.5464
   29BDD    C1821987   6.045  -4.850  -4.138  0.6089 -0.3620  1.3293
   29BDD    C1921988   5.750  -5.297  -3.834  1.1100 -0.5769  0.5050
   29BDD    C2021989   5.624  -5.389  -3.860  0.1864  0.6577 -1.1296
   29BDD    C2121990   5.629  -5.542  -3.891 -0.2554 -0.1454 -0.1031
   29BDD    C2221991   5.743  -5.621  -3.825 -0.0681 -0.5537  1.1712
   29BDD    C2321992   5.790  -5.749  -3.910 -0.2317 -1.1126  0.6513
   29BDD    C2421993   5.945  -5.732  -3.924  0.0581  0.0226  0.8512
   29BDD    C2521994   5.490  -5.354  -3.780 -0.1996 -0.5830  0.0099
   29BDD    C2621995   5.372  -5.435  -3.757  1.5677 -0.4982 -0.0905
   30TPM     C121996   5.610  -4.912  -3.389  0.2428 -0.7444 -0.7911
   30TPM     C221997   5.536  -4.842  -3.298  0.0894  0.0384 -1.4977
   30TPM     C321998   5.499  -4.918  -3.182 -0.0837  1.0247 -0.8829
   30TPM     C421999   5.545  -5.046  -3.183 -0.0619  0.9938  0.2925
   30TPM     S122000   5.638  -5.081  -3.334  0.1806 -0.2932  0.7174
   31BDTP    C122001   5.423  -5.431  -2.698  0.5469 -0.2311 -0.0827
   31BDTP    C222002   5.412  -5.520  -2.809  0.2635 -0.0899 -0.1698
   31BDTP    C322003   5.436  -5.481  -2.940 -0.0453  0.0708 -0.1800
   31BDTP    C422004   5.473  -5.347  -2.963 -0.0769  0.0932 -0.1001
   31BDTP    C522005   5.484  -5.258  -2.852  0.2066 -0.0483 -0.0124
   31BDTP    C622006   5.460  -5.297  -2.721  0.5154 -0.2087 -0.0028
   31BDTP    C722007   5.503  -5.283  -3.089 -0.3708  0.2475 -0.0928
   31BDTP    C822008   5.535  -5.152  -3.079 -0.3227  0.2288 -0.0060
   31BDTP    S122009   5.533  -5.091  -2.908  0.1022  0.0135  0.0796
   31BDTP    C922010   5.394  -5.495  -2.572  0.8411 -0.3853 -0.0896
   31BDTP   C1022011   5.361  -5.626  -2.582  0.7927 -0.3668 -0.1764
   31BDTP    S222012   5.364  -5.687  -2.753  0.3680 -0.1514 -0.2623
   32FTM     S122013   5.571  -5.589  -3.187  0.1458 -0.3392  0.3334
   32FTM     C122014   5.497  -5.741  -3.248 -0.6155  0.3000 -0.3811
   32FTM     C222015   5.385  -5.770  -3.178 -1.2188  0.9372 -1.0469
   32FTM     C322016   5.350  -5.678  -3.074 -1.1281  0.9663 -1.0426
   32FTM     C422017   5.439  -5.575  -3.065 -0.4326  0.3310 -0.3504
   32FTM     F122018   5.307  -5.882  -3.203 -1.8891  1.5318 -1.7004
   32FTM     C522019   5.579  -5.828  -3.333 -0.0379 -1.2326  0.6920
   32FTM     C622020   5.558  -5.844  -3.496 -0.7504  0.3215 -1.5447
   32FTM     C722021   5.637  -5.953  -3.564  0.0584  1.2147  0.1461
   32FTM     C822022   5.789  -5.966  -3.538  0.1106 -1.1357  0.5491
   32FTM     C922023   5.823  -6.074  -3.418  0.5042  0.2789 -0.6526
   32FTM    C1022024   5.970  -6.072  -3.413 -0.4820 -0.1356  1.1790
   32FTM    C1122025   5.418  -5.867  -3.555 -0.2892  0.6858  0.7174
   32FTM    C1222026   5.293  -5.778  -3.538  0.0019  0.0355  0.0650
   33FTM     S122027   5.343  -5.142  -2.509 -0.0607 -0.1509  0.4781
   33FTM     C122028   5.452  -5.019  -2.435 -0.1653 -0.0546  0.4729
   33FTM     C222029   5.578  -5.032  -2.485 -0.0613 -0.2110  0.7694
   33FTM     C322030   5.597  -5.136  -2.582  0.1023 -0.4103  1.0128
   33FTM     C422031   5.482  -5.205  -2.606  0.1241 -0.4065  0.8988
   33FTM     F122032   5.683  -4.951  -2.446 -0.1078 -0.1829  0.8378
   33FTM     C522033   5.402  -4.876  -2.399  0.7895 -0.1669  1.2909
   33FTM     C622034   5.257  -4.818  -2.428  0.4229  0.5713  0.4864
   33FTM     C722035   5.241  -4.735  -2.306 -0.8903 -0.0892 -0.2309
   33FTM     C822036   5.106  -4.645  -2.317 -0.3096  0.2871  0.7033
   33FTM     C922037   5.009  -4.660  -2.213  1.2242  1.2838  0.9006
   33FTM    C1022038   4.912  -4.784  -2.212  0.3266 -0.6726  0.4322
   33FTM    C1122039   5.225  -4.770  -2.581 -0.7764 -0.1417 -0.0285
   33FTM    C1222040   5.197  -4.859  -2.693 -0.6330  0.4579 -0.0235
   34TPM     C122041   5.304  -5.725  -2.485 -0.0770  0.5083  0.6589
   34TPM     C222042   5.344  -5.774  -2.365 -0.0306  0.0621  0.4623
   34TPM     C322043   5.253  -5.871  -2.308  0.1909 -0.4578 -0.0451
   34TPM     C422044   5.143  -5.894  -2.385  0.3134 -0.4079 -0.2359
   34TPM     S122045   5.146  -5.796  -2.537  0.1571  0.3050  0.2141
   35BDD     C122046   4.803  -6.036  -2.258 -0.2940  0.2618  0.0752
   35BDD     C222047   4.882  -6.146  -2.278 -0.1856  0.3115  0.2310
   35BDD     C322048   5.015  -6.112  -2.325 -0.0947  0.3980  0.5434
   35BDD     C422049   5.035  -5.978  -2.340 -0.1349  0.4131  0.6210
   35BDD     S122050   4.889  -5.884  -2.297 -0.2897  0.3201  0.3088
   35BDD     C522051   4.838  -6.285  -2.254 -0.1615  0.2811  0.0985
   35BDD     C622052   5.118  -6.215  -2.353  0.0292  0.4627  0.7534
   35BDD     O122053   5.232  -6.186  -2.394  0.1076  0.5374  1.0226
   35BDD     O222054   4.723  -6.313  -2.213 -0.2401  0.2065 -0.1709
   35BDD     C722055   5.074  -6.354  -2.329  0.0530  0.4323  0.6206
   35BDD     C822056   4.941  -6.388  -2.282 -0.0379  0.3457  0.3083
   35BDD     C922057   4.921  -6.522  -2.266  0.0024  0.3304  0.2308
   35BDD     S222058   5.067  -6.616  -2.310  0.1571  0.4235  0.5434
   35BDD    C1022059   5.153  -6.464  -2.349  0.1614  0.4820  0.7768
   35BDD    C1122060   5.292  -6.495  -2.405  0.6572 -0.7238  0.2987
   35BDD    C1222061   5.303  -6.523  -2.550  0.3419 -0.5999 -0.4084
   35BDD    C1322062   5.264  -6.401  -2.630 -0.6508 -0.5733  0.5198
   35BDD    C1422063   5.235  -6.453  -2.773  0.7798 -0.0601  0.5696
   35BDD    C1522064   5.241  -6.352  -2.891  0.0484 -0.9097 -0.3500
   35BDD    C1622065   5.379  -6.290  -2.911  0.6296  0.4626  0.7062
   35BDD    C1722066   5.399  -6.628  -2.568 -0.1689 -0.0693  0.9808
   35BDD    C1822067   5.555  -6.598  -2.561 -0.9308  0.6084  0.5468
   35BDD    C1922068   4.790  -6.609  -2.243 -0.6158 -1.0397  0.6258
   35BDD    C2022069   4.798  -6.745  -2.311 -0.8026  0.3054  0.4907
   35BDD    C2122070   4.853  -6.857  -2.205  0.3156  0.5224  0.5558
   35BDD    C2222071   4.752  -6.981  -2.200 -0.9150 -0.3089  0.6336
   35BDD    C2322072   4.753  -7.056  -2.069  0.4097  0.5043 -0.1254
   35BDD    C2422073   4.728  -6.971  -1.947  0.1358  1.2430 -1.0317
   35BDD    C2522074   4.815  -6.768  -2.468 -0.3939  0.3405 -0.4773
   35BDD    C2622075   4.687  -6.721  -2.541  0.4753  0.5786 -0.5577
   36TPM     C122076   4.654  -6.015  -2.255 -0.5160  1.2596 -0.0603
   36TPM     C222077   4.601  -5.953  -2.364 -0.6489  1.5616  0.1731
   36TPM     C322078   4.458  -5.966  -2.376 -0.5593  0.8050 -0.1764
   36TPM     C422079   4.402  -6.039  -2.275 -0.3582 -0.0739 -0.6765
   36TPM     S122080   4.526  -6.096  -2.157 -0.2654 -0.0137 -0.7447
   37BDTP    C122081   3.814  -6.212  -2.135 -0.3217  0.0628  0.2172
   37BDTP    C222082   3.798  -6.085  -2.198 -0.5326  0.1649  0.4752
   37BDTP    C322083   3.905  -6.010  -2.246 -0.6704  0.3601  0.4673
   37BDTP    C422084   4.034  -6.064  -2.231 -0.5972  0.4598  0.1924
   37BDTP    C522085   4.050  -6.191  -2.169 -0.3862  0.3577 -0.0653
   37BDTP    C622086   3.943  -6.265  -2.121 -0.2486  0.1625 -0.0577
   37BDTP    C722087   4.160  -6.005  -2.273 -0.7109  0.6618  0.1301
   37BDTP    C822088   4.269  -6.081  -2.245 -0.5970  0.7157 -0.1588
   37BDTP    S122089   4.227  -6.237  -2.162 -0.3299  0.5182 -0.3920
   37BDTP    C922090   3.688  -6.270  -2.094 -0.2081 -0.1392  0.2799
   37BDTP   C1022091   3.580  -6.194  -2.122 -0.3220 -0.1931  0.5686
   37BDTP    S222092   3.621  -6.038  -2.205 -0.5892  0.0045  0.8015
   38FTM     S122093   3.796  -5.913  -2.481  0.5053 -0.3817 -0.0870
   38FTM     C122094   3.808  -5.736  -2.511 -0.2538 -0.3077  0.0137
   38FTM     C222095   3.877  -5.677  -2.410 -0.3771 -0.0895 -0.0281
   38FTM     C322096   3.924  -5.763  -2.306  0.0997  0.0303 -0.1392
   38FTM     C422097   3.890  -5.893  -2.328  0.6044 -0.1004 -0.1829
   38FTM     F122098   3.902  -5.540  -2.406 -0.9289  0.0147  0.0310
   38FTM     C522099   3.753  -5.679  -2.640  0.3387  0.2456  0.7580
   38FTM     C622100   3.769  -5.545  -2.678 -0.9143 -0.0766  0.4614
   38FTM     C722101   3.748  -5.418  -2.588 -1.4854  0.9430 -0.1855
   38FTM     C822102   3.614  -5.430  -2.506  0.0783 -0.0870  0.4398
   38FTM     C922103   3.513  -5.319  -2.473  0.3753 -1.1579  0.1930
   38FTM    C1022104   3.422  -5.372  -2.357 -0.5157 -0.1432  0.4218
   38FTM    C1122105   3.822  -5.530  -2.830  0.5212  1.0453 -0.3434
   38FTM    C1222106   3.716  -5.475  -2.914 -0.6994  0.1540 -0.5234
   39FTM     S122107   4.029  -6.498  -2.241 -0.4926 -0.1267  0.1894
   39FTM     C122108   3.970  -6.653  -2.170 -0.8368  0.1266  0.4587
   39FTM     C222109   3.900  -6.628  -2.056 -0.6040  0.4638  0.5293
   39FTM     C322110   3.889  -6.490  -2.018 -0.1549  0.5440  0.3827
   39FTM     C422111   3.952  -6.407  -2.105 -0.0397  0.2586  0.1928
   39FTM     F122112   3.841  -6.728  -1.980 -0.7840  0.7203  0.7319
   39FTM     C522113   3.977  -6.777  -2.267 -0.7867 -0.6470 -0.0902
   39FTM     C622114   3.951  -6.820  -2.419  0.4017 -1.5827  0.9699
   39FTM     C722115   4.096  -6.828  -2.474  1.0089  0.1718  0.3748
   39FTM     C822116   4.132  -6.929  -2.576 -0.0511  2.0468 -0.2627
   39FTM     C922117   4.270  -6.997  -2.586 -0.9440 -1.2779 -0.1312
   39FTM    C1022118   4.380  -6.886  -2.644  0.3317  0.6704 -0.8245
   39FTM    C1122119   3.832  -6.747  -2.507 -1.1975 -1.6522 -0.7931
   39FTM    C1222120   3.706  -6.743  -2.440 -0.3644  0.0960 -1.0668
   40TPM     C122121   3.446  -6.230  -2.086 -0.7286 -0.3601 -1.0836
   40TPM     C222122   3.340  -6.176  -2.152 -0.9417 -1.2496 -1.4949
   40TPM     C322123   3.218  -6.250  -2.137 -0.6140 -1.7231 -1.1213
   40TPM     C422124   3.230  -6.361  -2.059 -0.1512 -1.1946 -0.4250
   40TPM     S122125   3.399  -6.380  -1.998 -0.0928 -0.0493 -0.1858
   41BDD     C122126   3.027  -6.698  -1.982  0.4494 -0.1831  0.0539
   41BDD     C222127   2.930  -6.603  -1.998  0.4361 -0.2197 -0.0877
   41BDD     C322128   2.982  -6.472  -2.033  0.4249 -0.2406 -0.1850
   41BDD     C422129   3.118  -6.469  -2.043  0.4297 -0.2199 -0.1160
   41BDD     S122130   3.190  -6.630  -2.010  0.4486 -0.1730  0.0753
   41BDD     C522131   2.785  -6.630  -1.982  0.4333 -0.2363 -0.1390
   41BDD     C622132   2.895  -6.355  -2.054  0.4097 -0.2803 -0.3428
   41BDD     O122133   2.940  -6.242  -2.084  0.4001 -0.2985 -0.4268
   41BDD     O222134   2.740  -6.743  -1.952  0.4430 -0.2180 -0.0551
   41BDD     C722135   2.750  -6.381  -2.038  0.4069 -0.2968 -0.3939
   41BDD     C822136   2.698  -6.512  -2.003  0.4182 -0.2759 -0.2966
   41BDD     C922137   2.562  -6.515  -1.993  0.4134 -0.2967 -0.3653
   41BDD     S222138   2.489  -6.355  -2.026  0.3945 -0.3436 -0.5569
   41BDD    C1022139   2.653  -6.286  -2.053  0.3937 -0.3334 -0.5352
   41BDD    C1122140   2.660  -6.141  -2.080  1.1359 -0.0685  0.3343
   41BDD    C1222141   2.661  -6.086  -2.227  1.1384  0.0088 -0.8871
   41BDD    C1322142   2.515  -6.036  -2.269 -0.7129 -0.1110  0.5594
   41BDD    C1422143   2.378  -6.102  -2.270 -1.3869  0.1837  0.3961
   41BDD    C1522144   2.287  -6.060  -2.156  0.9060 -0.2865 -0.5653
   41BDD    C1622145   2.163  -6.143  -2.137 -0.6193  1.0710 -1.6994
   41BDD    C1722146   2.775  -5.975  -2.250 -0.0393  0.5025 -0.2445
   41BDD    C1822147   2.832  -5.966  -2.380 -0.4044  0.2719  0.1366
   41BDD    C1922148   2.466  -6.621  -1.956 -0.1596  0.4307 -0.2600
   41BDD    C2022149   2.437  -6.636  -1.806 -0.6611 -1.5394  0.0556
   41BDD    C2122150   2.346  -6.510  -1.781  0.4820  0.9143 -0.1792
   41BDD    C2222151   2.188  -6.549  -1.794  0.4497 -0.6718  0.3340
   41BDD    C2322152   2.094  -6.454  -1.714  0.2515  0.6659  0.2853
   41BDD    C2422153   2.133  -6.309  -1.696 -0.8217  0.2436  0.8487
   41BDD    C2522154   2.418  -6.769  -1.759  0.8314  0.5926 -0.2499
   41BDD    C2622155   2.423  -6.808  -1.616  0.0909  0.4741 -0.7554
   42TPM     C122156   3.034  -6.844  -1.982 -0.1575  0.0465 -0.0386
   42TPM     C222157   3.152  -6.905  -1.951 -0.1417  0.3327  0.4790
   42TPM     C322158   3.151  -7.048  -1.969  0.2860  0.3281  0.4666
   42TPM     C422159   3.032  -7.096  -2.015  0.5963  0.0384 -0.0604
   42TPM     S122160   2.911  -6.964  -2.038  0.3706 -0.2534 -0.5857
   43BDTP    C122161   2.895  -7.703  -2.103  0.4887 -0.0117  0.2010
   43BDTP    C222162   2.765  -7.646  -2.088  0.4181 -0.1507  0.1276
   43BDTP    C322163   2.745  -7.510  -2.065  0.2538 -0.1510 -0.0105
   43BDTP    C422164   2.858  -7.427  -2.057  0.1541 -0.0077 -0.0799
   43BDTP    C522165   2.988  -7.484  -2.072  0.2246  0.1312 -0.0064
   43BDTP    C622166   3.008  -7.620  -2.095  0.3890  0.1316  0.1315
   43BDTP    C722167   2.863  -7.284  -2.034 -0.0192  0.0207 -0.2223
   43BDTP    C822168   2.988  -7.232  -2.032 -0.0814  0.1725 -0.2592
   43BDTP    S122169   3.117  -7.357  -2.058  0.0708  0.3006 -0.1185
   43BDTP    C922170   2.890  -7.846  -2.126  0.6619 -0.0401  0.3436
   43BDTP   C1022171   2.766  -7.898  -2.128  0.7241 -0.1919  0.3803
   43BDTP    S222172   2.636  -7.774  -2.102  0.5720 -0.3200  0.2398
   44FTM     S122173   2.498  -7.423  -2.178  0.6175  0.7106  0.3907
   44FTM     C122174   2.380  -7.358  -2.057  0.1154 -0.5913  0.6296
   44FTM     C222175   2.433  -7.366  -1.932 -0.1168 -1.2829  0.6919
   44FTM     C322176   2.565  -7.422  -1.923  0.0770 -0.8528  0.5605
   44FTM     C422177   2.615  -7.457  -2.044  0.4702  0.2023  0.3926
   44FTM     F122178   2.365  -7.324  -1.819 -0.5184 -2.3463  0.8717
   44FTM     C522179   2.243  -7.308  -2.098 -0.7491 -0.7345 -0.1256
   44FTM     C622180   2.217  -7.202  -2.205  0.7028  0.3597 -1.2250
   44FTM     C722181   2.328  -7.107  -2.251  0.8882  0.5029 -0.8975
   44FTM     C822182   2.363  -7.133  -2.413  1.4663 -0.4352 -0.6217
   44FTM     C922183   2.254  -7.057  -2.488  0.1358  0.6938 -0.5222
   44FTM    C1022184   2.303  -6.910  -2.536  0.1280  0.3560 -0.4391
   44FTM    C1122185   2.081  -7.133  -2.194 -0.3054 -0.6567  0.0701
   44FTM    C1222186   1.967  -7.215  -2.259  0.9362 -0.9034 -1.1469
   45FTM     S122187   3.168  -7.799  -2.260 -0.2016 -0.0590  0.4515
   45FTM     C122188   3.343  -7.802  -2.215 -0.2557 -0.3121  0.6518
   45FTM     C222189   3.367  -7.714  -2.115 -0.1242  0.1376  0.2301
   45FTM     C322190   3.254  -7.640  -2.068  0.0231  0.6928 -0.2620
   45FTM     C422191   3.139  -7.673  -2.134  0.0037  0.6676 -0.2163
   45FTM     F122192   3.493  -7.694  -2.060 -0.1293  0.0730  0.2649
   45FTM     C522193   3.463  -7.867  -2.288 -0.8792 -1.1141  0.1629
   45FTM     C622194   3.441  -7.982  -2.397 -0.8261  0.6251 -1.1473
   45FTM     C722195   3.400  -8.111  -2.314  0.1883 -0.9258  0.9843
   45FTM     C822196   3.245  -8.124  -2.270 -1.0005 -0.3371 -0.5791
   45FTM     C922197   3.179  -8.245  -2.336  0.3297  0.3216 -0.9162
   45FTM    C1022198   3.029  -8.226  -2.376 -0.4189 -0.1810 -0.7907
   45FTM    C1122199   3.565  -8.026  -2.477 -0.6393 -0.6338 -0.1580
   45FTM    C1222200   3.526  -8.036  -2.621 -0.1883 -0.3608 -0.4937
   46TPM     C122201   2.728  -8.035  -2.137  0.0890  0.2417 -0.0998
   46TPM     C222202   2.652  -8.098  -2.230  0.6662  0.4222 -0.7081
   46TPM     C322203   2.643  -8.240  -2.212  0.7670  0.3501 -1.2019
   46TPM     C422204   2.713  -8.286  -2.105  0.2668  0.1145 -0.9707
   46TPM     S122205   2.796  -8.152  -2.017 -0.3755 -0.0356 -0.1046
   47BDD     C122206   2.791  -8.625  -1.928 -0.2242 -0.1159  0.2649
   47BDD     C222207   2.708  -8.659  -2.031 -0.1394 -0.1823  0.2184
   47BDD     C322208   2.665  -8.546  -2.111  0.0436 -0.2514  0.0191
   47BDD     C422209   2.716  -8.426  -2.067  0.0957 -0.2364 -0.0831
   47BDD     S122210   2.822  -8.448  -1.924 -0.0808 -0.1350  0.0629
   47BDD     C522211   2.665  -8.797  -2.060 -0.2235 -0.1849  0.3550
   47BDD     C622212   2.575  -8.560  -2.227  0.1602 -0.3296 -0.0629
   47BDD     O122213   2.537  -8.462  -2.295  0.3180 -0.3890 -0.2346
   47BDD     O222214   2.702  -8.895  -1.991 -0.3814 -0.1254  0.5269
   47BDD     C722215   2.532  -8.698  -2.255  0.0761 -0.3321  0.0739
   47BDD     C822216   2.575  -8.811  -2.176 -0.1070 -0.2630  0.2732
   47BDD     C922217   2.523  -8.931  -2.219 -0.1591 -0.2780  0.3753
   47BDD     S222218   2.418  -8.909  -2.362  0.0174 -0.3793  0.2291
   47BDD    C1022219   2.448  -8.732  -2.358  0.1609 -0.3985  0.0269
   47BDD    C1122220   2.381  -8.654  -2.484  1.3016  0.2904 -1.1824
   47BDD    C1222221   2.226  -8.623  -2.490 -1.2836 -0.0487 -0.5818
   47BDD    C1322222   2.182  -8.498  -2.414 -0.9572  0.9608  0.5903
   47BDD    C1422223   2.180  -8.527  -2.270 -1.2025  0.6834 -2.0313
   47BDD    C1522224   2.118  -8.439  -2.176  0.1771  0.6714 -0.0219
   47BDD    C1622225   2.143  -8.291  -2.177  1.0594 -0.2929  0.1090
   47BDD    C1722226   2.158  -8.661  -2.620  0.4026  1.1134  0.9471
   47BDD    C1822227   2.217  -8.585  -2.736  0.0543 -0.7649 -0.0442
   47BDD    C1922228   2.522  -9.066  -2.163 -0.7304  0.5443  0.0460
   47BDD    C2022229   2.623  -9.165  -2.211 -0.3944  0.7622  1.8694
   47BDD    C2122230   2.614  -9.211  -2.364  0.4354  0.7897 -0.8284
   47BDD    C2222231   2.640  -9.143  -2.487 -0.4620 -0.5699 -0.1831
   47BDD    C2322232   2.726  -9.205  -2.598 -0.1620 -0.6959  0.2653
   47BDD    C2422233   2.641  -9.226  -2.735  0.7549 -1.0966 -1.0264
   47BDD    C2522234   2.619  -9.299  -2.136  0.8245  0.2651  0.2936
   47BDD    C2622235   2.646  -9.283  -1.990 -0.0625 -1.6286 -1.3084
   48TPM     C122236   2.877  -8.703  -1.832  0.4169  0.2551  0.0206
   48TPM     C222237   3.012  -8.710  -1.852  0.5170  0.5063  0.5608
   48TPM     C322238   3.073  -8.826  -1.793  0.4404  0.4490  0.5279
   48TPM     C422239   2.985  -8.907  -1.727  0.2818  0.1540 -0.0377
   48TPM     S122240   2.816  -8.842  -1.736  0.2165 -0.0761 -0.5764
   49BDTP    C122241   2.964  -9.519  -1.585 -0.6655 -0.0657  0.1926
   49BDTP    C222242   2.960  -9.458  -1.456 -0.2584  0.0449  0.1547
   49BDTP    C322243   2.966  -9.320  -1.439  0.0507  0.0488  0.0346
   49BDTP    C422244   2.976  -9.239  -1.553 -0.0457 -0.0615 -0.0532
   49BDTP    C522245   2.980  -9.300  -1.682 -0.4528 -0.1721 -0.0155
   49BDTP    C622246   2.974  -9.438  -1.699 -0.7617 -0.1760  0.1047
   49BDTP    C722247   2.984  -9.094  -1.559  0.2229 -0.0800 -0.1825
   49BDTP    C822248   2.993  -9.045  -1.685  0.0394 -0.1978 -0.2439
   49BDTP    S122249   2.993  -9.174  -1.813 -0.4992 -0.3016 -0.1454
   49BDTP    C922250   2.956  -9.663  -1.579 -0.9339 -0.0471  0.3221
   49BDTP   C1022251   2.947  -9.713  -1.453 -0.7506  0.0706  0.3831
   49BDTP    S222252   2.947  -9.584  -1.325 -0.2119  0.1744  0.2847
   50FTM     S122253   3.091  -9.151  -1.242 -0.0793 -0.7296 -0.0696
   50FTM     C122254   3.000  -9.123  -1.089 -0.6178 -0.0203 -0.5048
   50FTM     C222255   2.883  -9.193  -1.091 -0.6146 -0.0228 -0.5937
   50FTM     C322256   2.858  -9.271  -1.209 -0.2031 -0.5634 -0.3352
   50FTM     C422257   2.959  -9.259  -1.300  0.1192 -0.9888 -0.0382
   50FTM     F122258   2.792  -9.191  -0.987 -0.9840  0.4643 -0.9148
   50FTM     C522259   3.063  -9.023  -1.004  0.3863  0.4093 -0.4084
   50FTM     C622260   3.013  -8.905  -0.925  0.1119  0.2773  0.3946
   50FTM     C722261   3.129  -8.842  -0.854  1.3652  1.1242  0.4937
   50FTM     C822262   3.114  -8.815  -0.701  2.1275 -0.1500  0.6276
   50FTM     C922263   2.999  -8.767  -0.628  0.0942 -1.3084 -0.2768
   50FTM    C1022264   2.945  -8.637  -0.684  1.5368 -0.5346  0.1370
   50FTM    C1122265   2.924  -8.798  -0.996 -0.7826  1.1850 -1.0261
   50FTM    C1222266   2.801  -8.846  -1.056  1.1257  1.0809  0.3397
   51FTM     S122267   3.145  -9.617  -1.854 -0.0290 -0.3833 -1.3197
   51FTM     C122268   3.151  -9.579  -2.030  0.1209  0.1792 -1.1980
   51FTM     C222269   3.063  -9.479  -2.059  0.6417  0.7529 -0.8430
   51FTM     C322270   2.988  -9.427  -1.948  0.9485  0.7892 -0.6492
   51FTM     C422271   3.019  -9.490  -1.831  0.6530  0.2249 -0.8621
   51FTM     F122272   3.045  -9.429  -2.186  0.8715  1.2793 -0.6726
   51FTM     C522273   3.255  -9.660  -2.094 -1.1907  0.5172 -0.9709
   51FTM     C622274   3.381  -9.617  -2.173  0.7576  0.2241  0.4964
   51FTM     C722275   3.506  -9.589  -2.090  0.4466 -0.8966 -0.0321
   51FTM     C822276   3.565  -9.735  -2.030  1.0462 -0.7019  0.8554
   51FTM     C922277   3.686  -9.706  -1.946 -0.2205 -0.2062 -1.0859
   51FTM    C1022278   3.659  -9.750  -1.803  1.2707 -0.5766  0.0737
   51FTM    C1122279   3.372  -9.525  -2.299 -0.2628  0.2219  0.6945
   51FTM    C1222280   3.263  -9.541  -2.406 -0.4279  0.8091  1.3129
   52TPM     C122281   2.938  -9.860  -1.432 -0.1782  0.2170  0.3392
   52TPM     C222282   2.836  -9.933  -1.377 -0.2689  0.5118  0.5705
   52TPM     C322283   2.856 -10.075  -1.385 -0.6798  0.4513  0.5610
   52TPM     C422284   2.973 -10.111  -1.445 -0.9024  0.1105  0.3227
   52TPM     S122285   3.068  -9.967  -1.497 -0.6081 -0.1628  0.0903
   53BDD     C122286   3.026 -10.500  -1.455 -0.4732 -0.0352 -0.0576
   53BDD     C222287   3.035 -10.461  -1.586 -0.2886 -0.0198 -0.0412
   53BDD     C322288   3.014 -10.319  -1.606  0.1078  0.0429 -0.0126
   53BDD     C422289   2.990 -10.251  -1.490  0.2196  0.0744 -0.0073
   53BDD     S122290   2.991 -10.360  -1.348 -0.1636  0.0277 -0.0384
   53BDD     C522291   3.062 -10.554  -1.698 -0.4699 -0.0622 -0.0510
   53BDD     C622292   3.020 -10.256  -1.739  0.3611  0.0693  0.0086
   53BDD     O122293   3.002 -10.133  -1.756  0.7029  0.1234  0.0331
   53BDD     O222294   3.080 -10.677  -1.681 -0.8116 -0.1162 -0.0756
   53BDD     C722295   3.047 -10.348  -1.851  0.1799  0.0270 -0.0014
   53BDD     C822296   3.067 -10.491  -1.831 -0.2165 -0.0357 -0.0300
   53BDD     C922297   3.091 -10.559  -1.947 -0.3283 -0.0672 -0.0348
   53BDD     S222298   3.090 -10.450  -2.089  0.0548 -0.0205 -0.0039
   53BDD    C1022299   3.056 -10.310  -1.982  0.3645  0.0424  0.0150
   53BDD    C1122300   3.029 -10.180  -2.047  0.1538  0.5105  0.8682
   53BDD    C1222301   3.162 -10.132  -2.097 -1.3185  0.5742  0.0324
   53BDD    C1322302   3.145 -10.081  -2.242 -0.0585  0.2352 -0.8150
   53BDD    C1422303   3.267 -10.097  -2.326  0.2179  0.4464  0.9804
   53BDD    C1522304   3.262 -10.002  -2.441 -0.6112  0.2763  0.5155
   53BDD    C1622305   3.403  -9.985  -2.496 -0.3338  1.1944  0.5997
   53BDD    C1722306   3.254 -10.063  -1.986  1.2627  0.0302 -0.3237
   53BDD    C1822307   3.200  -9.948  -1.891  0.4722 -0.8671 -0.9305
   53BDD    C1922308   3.121 -10.707  -1.986  0.4888  0.6325 -0.1055
   53BDD    C2022309   3.277 -10.755  -1.977  0.5502 -1.1098  0.7355
   53BDD    C2122310   3.361 -10.696  -1.856  0.2931  0.2091  0.8451
   53BDD    C2222311   3.422 -10.565  -1.833 -0.2641 -0.1442 -0.2021
   53BDD    C2322312   3.557 -10.520  -1.845  0.0587 -0.6764  1.5845
   53BDD    C2422313   3.574 -10.365  -1.861  1.0842  0.4522 -0.2520
   53BDD    C2522314   3.336 -10.696  -2.110  0.0588  1.6811  0.2132
   53BDD    C2622315   3.451 -10.767  -2.169  0.5383 -0.1776  0.1086
   54TPM     C122316   3.040 -10.629  -1.383  0.4678 -0.2597  0.6223
   54TPM     C222317   2.944 -10.653  -1.290  0.7464 -0.1262  0.9472
   54TPM     C322318   2.936 -10.791  -1.249  0.3594 -0.2072  0.6011
   54TPM     C422319   3.025 -10.872  -1.312 -0.2145 -0.4025  0.0120
   54TPM     S122320   3.128 -10.780  -1.428 -0.3111 -0.5000 -0.1525
   55BDTP    C122321   3.044 -11.496  -1.312  0.6207 -0.1757 -0.0105
   55BDTP    C222322   3.088 -11.460  -1.443  0.3029 -0.1185 -0.1032
   55BDTP    C322323   3.092 -11.328  -1.486  0.1427 -0.1036 -0.0772
   55BDTP    C422324   3.052 -11.227  -1.397  0.3033 -0.1474  0.0463
   55BDTP    C522325   3.008 -11.264  -1.266  0.6213 -0.2047  0.1390
   55BDTP    C622326   3.003 -11.396  -1.223  0.7814 -0.2195  0.1132
   55BDTP    C722327   3.048 -11.084  -1.419  0.1866 -0.1425  0.0951
   55BDTP    C822328   3.004 -11.013  -1.313  0.3989 -0.1927  0.2189
   55BDTP    S122329   2.961 -11.116  -1.170  0.7764 -0.2533  0.2906
   55BDTP    C922330   3.047 -11.639  -1.289  0.7374 -0.1805 -0.0594
   55BDTP   C1022331   3.092 -11.711  -1.395  0.5252 -0.1304 -0.1831
   55BDTP    S222332   3.135 -11.608  -1.539  0.1476 -0.0698 -0.2546
   56FTM     S122333   3.268 -11.205  -1.684 -0.0079 -0.0372 -0.3313
   56FTM     C122334   3.215 -11.221  -1.856  0.1919 -0.6177 -0.3422
   56FTM     C222335   3.099 -11.293  -1.862  0.0929 -0.4689 -0.2167
   56FTM     C322336   3.046 -11.338  -1.737 -0.1387  0.0922 -0.1070
   56FTM     C422337   3.124 -11.300  -1.631 -0.2197  0.3824 -0.1498
   56FTM     F122338   3.034 -11.321  -1.981  0.2063 -0.8318 -0.1931
   56FTM     C522339   3.295 -11.146  -1.968 -0.2094  1.0056 -0.0901
   56FTM     C622340   3.383 -11.233  -2.048 -1.8318  0.1067 -0.6469
   56FTM     C722341   3.523 -11.253  -1.979 -1.4002  0.9813 -0.1096
   56FTM     C822342   3.596 -11.375  -2.034  1.2960  0.1323  0.6887
   56FTM     C922343   3.742 -11.402  -2.005  0.3363 -1.7006 -0.0497
   56FTM    C1022344   3.746 -11.490  -1.877  0.5795  0.7877  0.5213
   56FTM    C1122345   3.406 -11.186  -2.196 -0.4151  0.3742  0.0100
   56FTM    C1222346   3.300 -11.140  -2.289  0.7524 -0.0554 -1.0649
   57FTM     S122347   2.774 -11.398  -1.037 -0.1276 -0.1511 -0.2433
   57FTM     C122348   2.811 -11.463  -0.873 -0.7404 -1.1113 -0.4697
   57FTM     C222349   2.941 -11.500  -0.866 -0.8313 -1.4028 -0.2792
   57FTM     C322350   3.019 -11.481  -0.985 -0.4395 -0.9087  0.0467
   57FTM     C422351   2.945 -11.427  -1.086 -0.0355 -0.2165  0.1077
   57FTM     F122352   2.998 -11.554  -0.752 -1.2748 -2.1342 -0.3884
   57FTM     C522353   2.719 -11.470  -0.752  1.0333 -0.5018  0.5432
   57FTM     C622354   2.630 -11.600  -0.736 -0.1697  0.3653  0.3547
   57FTM     C722355   2.541 -11.634  -0.849 -0.0409 -1.4244 -0.7111
   57FTM     C822356   2.393 -11.605  -0.831  0.5738  0.1987  0.1314
   57FTM     C922357   2.383 -11.437  -0.826  0.9975  0.9889  0.5272
   57FTM    C1022358   2.242 -11.382  -0.840  1.2123 -0.9002  0.3583
   57FTM    C1122359   2.695 -11.737  -0.681  0.4093  0.0325  0.1405
   57FTM    C1222360   2.758 -11.698  -0.551 -0.5632 -0.0532 -0.0360
   58TPM     C122361   3.083 -11.861  -1.413  0.3352 -0.1063 -0.1404
   58TPM     C222362   2.982 -11.951  -1.431  0.4269 -0.1898 -0.2391
   58TPM     C322363   3.026 -12.088  -1.431  0.5611 -0.1471 -0.3476
   58TPM     C422364   3.160 -12.103  -1.413  0.5716 -0.0309 -0.3313
   58TPM     S122365   3.242 -11.943  -1.395  0.4118  0.0336 -0.1765
   59BDD     C122366   3.361 -12.369  -1.611 -0.4987 -0.3239 -0.2509
   59BDD     C222367   3.319 -12.430  -1.496 -0.3274 -0.2177 -0.1309
   59BDD     C322368   3.244 -12.342  -1.408  0.1312 -0.0312  0.0787
   59BDD     C422369   3.230 -12.215  -1.457  0.3030  0.0020  0.1158
   59BDD     S122370   3.310 -12.197  -1.617 -0.0977 -0.1974 -0.1094
   59BDD     C522371   3.346 -12.571  -1.463 -0.5791 -0.2842 -0.2046
   59BDD     C622372   3.189 -12.387  -1.279  0.3825  0.1066  0.2351
   59BDD     O122373   3.125 -12.311  -1.203  0.7780  0.2675  0.4158
   59BDD     O222374   3.410 -12.647  -1.539 -0.9746 -0.4449 -0.3853
   59BDD     C722375   3.216 -12.528  -1.246  0.1308  0.0403  0.1612
   59BDD     C822376   3.291 -12.616  -1.334 -0.3278 -0.1462 -0.0486
   59BDD     C922377   3.305 -12.743  -1.285 -0.4996 -0.1798 -0.0851
   59BDD     S222378   3.225 -12.761  -1.125 -0.0990  0.0196  0.1399
   59BDD    C1022379   3.174 -12.589  -1.131  0.3021  0.1462  0.2813
   59BDD    C1122380   3.115 -12.545  -1.010  0.2875 -0.9274 -2.0167
   59BDD    C1222381   2.989 -12.617  -0.952  0.3574 -1.9154  0.7530
   59BDD    C1322382   2.860 -12.620  -1.049  0.3407 -0.6535  0.9941
   59BDD    C1422383   2.771 -12.502  -1.072 -0.3613 -0.7100 -1.6222
   59BDD    C1522384   2.698 -12.506  -1.210 -0.0619 -0.2213 -0.5413
   59BDD    C1622385   2.622 -12.369  -1.235 -1.2048 -1.6244 -0.1297
   59BDD    C1722386   2.941 -12.569  -0.804  0.2662  0.0048 -0.8759
   59BDD    C1822387   3.008 -12.642  -0.690 -0.7226  0.8298  0.2322
   59BDD    C1922388   3.374 -12.861  -1.342 -1.0356  0.8710  0.7296
   59BDD    C2022389   3.293 -12.971  -1.404 -0.1108 -0.9282  1.5205
   59BDD    C2122390   3.163 -12.910  -1.491 -0.6350 -0.5787  0.3967
   59BDD    C2222391   3.017 -12.965  -1.502 -0.2100  0.2233  0.0698
   59BDD    C2322392   3.021 -13.114  -1.539 -1.6918 -0.2923  0.0331
   59BDD    C2422393   2.923 -13.198  -1.451 -0.4276  0.3824  0.4723
   59BDD    C2522394   3.357 -13.124  -1.444  0.8615 -1.2135 -0.0247
   59BDD    C2622395   3.431 -13.196  -1.330  0.4728  0.3538  0.5265
   60TPM     C122396   3.447 -12.398  -1.730 -0.2647  0.1119  0.2915
   60TPM     C222397   3.421 -12.358  -1.857 -0.1417  0.7844  0.4714
   60TPM     C322398   3.518 -12.404  -1.953 -0.2614  0.9608  0.2651
   60TPM     C422399   3.618 -12.479  -1.899 -0.4756  0.4233 -0.0717
   60TPM     S122400   3.597 -12.498  -1.721 -0.5434 -0.3540 -0.1556
    1BDTP    C122401   3.191   1.915   4.243 -0.0504 -0.1047  0.1079
    1BDTP    C222402   3.081   1.992   4.290 -0.0579  0.0296 -0.1283
    1BDTP    C322403   2.949   1.949   4.281 -0.0753  0.1055 -0.2369
    1BDTP    C422404   2.925   1.823   4.222 -0.0856  0.0463 -0.1069
    1BDTP    C522405   3.035   1.746   4.175 -0.0780 -0.0880  0.1293
    1BDTP    C622406   3.167   1.790   4.185 -0.0607 -0.1639  0.2380
    1BDTP    C722407   2.798   1.758   4.201 -0.1039  0.1051 -0.1817
    1BDTP    C822408   2.807   1.636   4.142 -0.1103  0.0225 -0.0154
    1BDTP    S122409   2.978   1.588   4.104 -0.0941 -0.1414  0.2598
    1BDTP    C922410   3.319   1.981   4.264 -0.0321 -0.1635  0.1830
    1BDTP   C1022411   3.310   2.102   4.324 -0.0257 -0.0809  0.0165
    1BDTP    S222412   3.138   2.150   4.362 -0.0419  0.0829 -0.2586
    2FTM     S122413   2.853   2.079   4.519 -0.4085  0.1049  0.0566
    2FTM     C122414   2.712   2.189   4.495 -0.5526 -0.2610 -0.8425
    2FTM     C222415   2.672   2.184   4.365 -0.1360 -0.8737 -0.9592
    2FTM     C322416   2.746   2.097   4.279  0.3098 -1.0909 -0.3709
    2FTM     C422417   2.846   2.032   4.345  0.2320 -0.6293  0.2156
    2FTM     F122418   2.565   2.258   4.317 -0.1338 -1.2745 -1.6057
    2FTM     C522419   2.665   2.246   4.623  0.1479 -0.8970  0.9141
    2FTM     C622420   2.746   2.357   4.707  1.4696  0.6194 -0.3050
    2FTM     C722421   2.746   2.491   4.650 -0.3397 -0.5805  1.3529
    2FTM     C822422   2.622   2.570   4.682  0.2979 -0.3987  0.3796
    2FTM     C922423   2.600   2.690   4.606  1.4652  0.6452  0.2450
    2FTM    C1022424   2.451   2.738   4.628 -0.2709  0.1781  0.6107
    2FTM    C1122425   2.860   2.324   4.804 -0.4557 -0.4294 -1.2259
    2FTM    C1222426   2.832   2.241   4.923  0.5234 -0.7417  1.2894
    3FTM     S122427   3.405   1.768   4.039  0.2761 -0.1529 -0.7153
    3FTM     C122428   3.504   1.621   4.073  0.6523  0.3327  0.3794
    3FTM     C222429   3.445   1.548   4.172  0.8618  0.9247  0.9558
    3FTM     C322430   3.323   1.601   4.226  0.7454  1.0341  0.5902
    3FTM     C422431   3.287   1.718   4.166  0.4367  0.5088 -0.2952
    3FTM     F122432   3.498   1.429   4.220  1.1715  1.4026  1.8487
    3FTM     C522433   3.623   1.582   3.992 -0.4281 -0.1409 -0.9690
    3FTM     C622434   3.726   1.695   3.976 -0.2731  1.3691 -0.7501
    3FTM     C722435   3.781   1.781   4.103 -0.7494  0.9963  0.9800
    3FTM     C822436   3.777   1.933   4.116 -0.9181  1.5812  0.6927
    3FTM     C922437   3.753   2.016   3.986 -0.2707 -1.5857 -0.3898
    3FTM    C1022438   3.782   2.167   4.027  0.8917  1.4604 -0.0698
    3FTM    C1122439   3.830   1.607   3.889 -0.5233 -1.6613  0.0625
    3FTM    C1222440   3.936   1.710   3.829 -0.1954  0.2202 -0.4713
    4TPM     C122441   3.413   2.186   4.367  0.4736  1.1075 -0.1963
    4TPM     C222442   3.405   2.309   4.425  1.1639  1.7670 -1.3944
    4TPM     C322443   3.532   2.369   4.453  1.5138  1.2315 -1.8026
    4TPM     C422444   3.639   2.292   4.416  1.0904  0.1638 -0.9155
    4TPM     S122445   3.585   2.136   4.342  0.2100 -0.2513  0.5151
    5BDD     C122446   4.001   2.380   4.533  0.0430  0.2375  0.0610
    5BDD     C222447   3.988   2.433   4.408 -0.0238  0.2596  0.0774
    5BDD     C322448   3.858   2.409   4.349 -0.1561  0.5229  0.2601
    5BDD     C422449   3.773   2.339   4.430 -0.1880  0.6974  0.3804
    5BDD     S122450   3.851   2.297   4.586 -0.0549  0.5444  0.2732
    5BDD     C522451   4.095   2.507   4.338  0.0312  0.0398 -0.0744
    5BDD     C622452   3.822   2.458   4.214 -0.2459  0.5915  0.3088
    5BDD     O122453   3.709   2.438   4.163 -0.3599  0.8183  0.4663
    5BDD     O222454   4.208   2.527   4.389  0.1452 -0.1871 -0.2319
    5BDD     C722455   3.929   2.532   4.144 -0.1907  0.3716  0.1569
    5BDD     C822456   4.059   2.556   4.203 -0.0585  0.1085 -0.0257
    5BDD     C922457   4.144   2.626   4.122 -0.0266 -0.0662 -0.1460
    5BDD     S222458   4.066   2.668   3.966 -0.1597  0.0868 -0.0390
    5BDD    C1022459   3.916   2.585   4.019 -0.2577  0.3937  0.1733
    5BDD    C1122460   3.810   2.581   3.917 -0.2160  0.3361 -0.4817
    5BDD    C1222461   3.697   2.673   3.923  0.6631 -0.5658  0.6087
    5BDD    C1322462   3.599   2.691   4.042 -0.5184 -0.6023  0.5520
    5BDD    C1422463   3.469   2.606   4.069 -0.3962 -0.3141 -0.2698
    5BDD    C1522464   3.410   2.497   3.975  0.4622  0.0317  1.0667
    5BDD    C1622465   3.268   2.438   4.021 -0.0080  0.9447 -1.1277
    5BDD    C1722466   3.707   2.795   3.827 -0.3440 -0.8548  0.4340
    5BDD    C1822467   3.777   2.797   3.685 -1.7537  0.1019  1.4575
    5BDD    C1922468   4.291   2.663   4.138 -0.5173 -0.0050  0.1378
    5BDD    C2022469   4.392   2.623   4.019  0.8342 -1.5910 -1.3642
    5BDD    C2122470   4.370   2.490   3.952 -0.9710  0.0479 -2.1232
    5BDD    C2222471   4.369   2.368   4.052 -0.2023  0.8678  2.2859
    5BDD    C2322472   4.348   2.225   3.989 -0.8559 -1.2038 -0.9607
    5BDD    C2422473   4.209   2.180   4.016 -0.7132 -1.7652 -0.9250
    5BDD    C2522474   4.540   2.679   4.020  0.2860 -0.4586  0.4347
    5BDD    C2622475   4.586   2.728   3.876  0.3780  0.5364 -0.3574
    6TPM     C122476   4.111   2.357   4.631 -0.4555  1.1081  0.7109
    6TPM     C222477   4.087   2.284   4.744 -0.8479  2.2544  1.3934
    6TPM     C322478   4.205   2.258   4.823 -0.8773  1.8342  1.3021
    6TPM     C422479   4.319   2.311   4.769 -0.5070  0.3675  0.5501
    6TPM     S122480   4.285   2.398   4.614 -0.0894 -0.6042 -0.1065
    7BDTP    C122481   4.901   2.265   4.985 -0.2549  0.0650 -0.1872
    7BDTP    C222482   4.827   2.305   5.100 -0.2655  0.0927 -0.2033
    7BDTP    C322483   4.690   2.329   5.097 -0.2751  0.0371 -0.2090
    7BDTP    C422484   4.623   2.313   4.975 -0.2743 -0.0500 -0.1979
    7BDTP    C522485   4.697   2.273   4.859 -0.2638 -0.0776 -0.1817
    7BDTP    C622486   4.834   2.249   4.863 -0.2542 -0.0219 -0.1761
    7BDTP    C722487   4.482   2.332   4.947 -0.2831 -0.1194 -0.2008
    7BDTP    C822488   4.447   2.308   4.818 -0.2797 -0.1968 -0.1879
    7BDTP    S122489   4.588   2.259   4.714 -0.2650 -0.1926 -0.1701
    7BDTP    C922490   5.042   2.246   5.013 -0.2462  0.1345 -0.1842
    7BDTP   C1022491   5.077   2.270   5.142 -0.2496  0.2118 -0.1971
    7BDTP    S222492   4.936   2.319   5.246 -0.2643  0.2078 -0.2151
    8FTM     S122493   4.666   2.306   5.391  0.1223  0.1886  0.0713
    8FTM     C122494   4.575   2.441   5.467  0.7206  0.7128 -0.1278
    8FTM     C222495   4.523   2.522   5.371  0.5463  0.4435 -0.2611
    8FTM     C322496   4.549   2.484   5.236 -0.0486 -0.1720 -0.2173
    8FTM     C422497   4.625   2.371   5.228 -0.3395 -0.3809 -0.0451
    8FTM     F122498   4.447   2.634   5.401  0.9152  0.7384 -0.4305
    8FTM     C522499   4.540   2.432   5.617  0.0120  0.2915 -0.3596
    8FTM     C622500   4.633   2.368   5.722 -0.9656 -1.1819  0.4832
    8FTM     C722501   4.675   2.218   5.732 -1.3799  0.2877  0.3007
    8FTM     C822502   4.577   2.117   5.768 -0.1738  0.7318  0.1998
    8FTM     C922503   4.502   2.063   5.635 -1.0559  0.7960  0.3732
    8FTM    C1022504   4.599   1.999   5.529  0.6255 -0.2677  0.6449
    8FTM    C1122505   4.765   2.465   5.718 -0.0796  0.7595 -0.6080
    8FTM    C1222506   4.895   2.416   5.654 -0.3173  0.0642 -0.4677
    9FTM     S122507   5.057   2.175   4.691 -0.1538  0.0392  0.2120
    9FTM     C122508   5.031   2.028   4.589 -0.5826  0.3143 -0.0820
    9FTM     C222509   4.909   1.975   4.615 -0.5462  0.3466  0.1594
    9FTM     C322510   4.830   2.042   4.713 -0.1915  0.1637  0.5776
    9FTM     C422511   4.893   2.152   4.764  0.0519 -0.0143  0.6589
    9FTM     F122512   4.861   1.861   4.551 -0.8323  0.5436  0.0160
    9FTM     C522513   5.153   1.987   4.501 -0.6794  0.5728 -1.0254
    9FTM     C622514   5.210   1.843   4.465  0.0405  0.8817 -1.3306
    9FTM     C722515   5.334   1.874   4.371  0.7717  0.8953  1.0018
    9FTM     C822516   5.296   1.873   4.215  0.6519  0.5717 -0.2822
    9FTM     C922517   5.213   1.737   4.179 -0.3734 -0.5445 -0.2030
    9FTM    C1022518   5.208   1.723   4.021 -0.2414 -0.5830 -0.5321
    9FTM    C1122519   5.219   1.715   4.559 -0.4138  1.0809 -0.3076
    9FTM    C1222520   5.210   1.584   4.484  0.5251 -0.0717 -0.3706
   10TPM     C122521   5.200   2.211   5.183 -0.1969  0.1818  0.2578
   10TPM     C222522   5.313   2.161   5.125 -0.5305 -0.1382 -0.1220
   10TPM     C322523   5.405   2.102   5.219 -0.3852 -0.4089 -0.4318
   10TPM     C422524   5.363   2.107   5.348  0.0588 -0.2954 -0.2883
   10TPM     S122525   5.202   2.188   5.362  0.3302  0.1658  0.2535
   11BDD     C122526   5.395   1.857   5.649 -0.1067  0.3450  0.2875
   11BDD     C222527   5.523   1.893   5.617 -0.1192  0.3385  0.2302
   11BDD     C322528   5.531   1.985   5.505 -0.1508  0.1536  0.0750
   11BDD     C422529   5.409   2.018   5.454 -0.1620  0.0218  0.0161
   11BDD     S122530   5.276   1.936   5.542 -0.1335  0.1202  0.1512
   11BDD     C522531   5.643   1.844   5.688 -0.1025  0.5020  0.3160
   11BDD     C622532   5.659   2.037   5.453 -0.1688  0.1143 -0.0094
   11BDD     O122533   5.666   2.116   5.357 -0.1961 -0.0451 -0.1432
   11BDD     O222534   5.637   1.764   5.785 -0.0752  0.6615  0.4499
   11BDD     C722535   5.779   1.988   5.524 -0.1522  0.2778  0.0764
   11BDD     C822536   5.772   1.896   5.636 -0.1205  0.4628  0.2316
   11BDD     C922537   5.894   1.863   5.688 -0.1093  0.5945  0.2905
   11BDD     S222538   6.027   1.945   5.600 -0.1378  0.4962  0.1556
   11BDD    C1022539   5.907   2.024   5.492 -0.1646  0.2713  0.0192
   11BDD    C1122540   5.965   2.112   5.378 -1.4680  0.2803 -0.1579
   11BDD    C1222541   5.996   2.267   5.423 -0.4783  0.4306  0.5432
   11BDD    C1322542   6.119   2.272   5.526  0.6102 -1.1544  0.5974
   11BDD    C1422543   6.107   2.386   5.617  0.7844 -0.0692 -0.4930
   11BDD    C1522544   6.203   2.358   5.730 -0.5620 -0.0354  0.0736
   11BDD    C1622545   6.176   2.434   5.865 -0.7568  0.3981  0.4161
   11BDD    C1722546   5.991   2.368   5.305 -0.0711  0.2857 -1.1473
   11BDD    C1822547   6.068   2.356   5.174 -0.1222 -0.5174 -0.9537
   11BDD    C1922548   5.925   1.769   5.793 -0.3520  0.1044 -0.8912
   11BDD    C2022549   6.043   1.781   5.905 -0.5205  0.5406  1.6142
   11BDD    C2122550   6.083   1.655   5.979  1.1523 -1.6221 -0.2775
   11BDD    C2222551   6.117   1.518   5.908  1.2807 -0.6729  0.1895
   11BDD    C2322552   6.246   1.480   5.846 -1.3689 -0.0450  0.2878
   11BDD    C2422553   6.388   1.495   5.918  0.3209  0.8399 -0.1468
   11BDD    C2522554   6.011   1.915   5.995  0.7176 -0.3910  1.4183
   11BDD    C2622555   6.105   1.947   6.117 -0.3843 -0.7810  0.4524
   12TPM     C122556   5.327   1.770   5.748  0.1003 -0.3963 -0.0119
   12TPM     C222557   5.326   1.634   5.739 -0.3877 -0.3937 -0.0788
   12TPM     C322558   5.282   1.568   5.859 -0.2884 -0.3016  0.0083
   12TPM     C422559   5.249   1.654   5.960  0.2754 -0.2340  0.1416
   12TPM     S122560   5.271   1.826   5.910  0.7279 -0.2818  0.1678
   13BDTP    C122561   5.088   1.543   6.555 -0.2719  0.0903 -0.1955
   13BDTP    C222562   4.992   1.466   6.483 -0.1336 -0.1066 -0.1684
   13BDTP    C322563   4.994   1.455   6.345  0.0122 -0.3239 -0.1510
   13BDTP    C422564   5.094   1.523   6.274  0.0222 -0.3487 -0.1607
   13BDTP    C522565   5.189   1.601   6.346 -0.1162 -0.1518 -0.1879
   13BDTP    C622566   5.188   1.612   6.484 -0.2620  0.0655 -0.2052
   13BDTP    C722567   5.115   1.527   6.131  0.1600 -0.5561 -0.1465
   13BDTP    C822568   5.220   1.603   6.092  0.1323 -0.5249 -0.1614
   13BDTP    S122569   5.308   1.680   6.232 -0.0722 -0.2283 -0.1955
   13BDTP    C922570   5.067   1.540   6.699 -0.4098  0.2978 -0.2097
   13BDTP   C1022571   4.961   1.464   6.737 -0.3821  0.2666 -0.1949
   13BDTP    S222572   4.874   1.387   6.598 -0.1775 -0.0300 -0.1607
   14FTM     S122573   4.945   1.179   6.295 -0.0317 -0.2165  0.2176
   14FTM     C122574   4.778   1.135   6.245  0.0849 -0.9871  0.4830
   14FTM     C222575   4.704   1.248   6.225 -0.4055 -1.3182  0.3933
   14FTM     C322576   4.771   1.372   6.248 -0.8903 -1.0006  0.1194
   14FTM     C422577   4.901   1.354   6.286 -0.7669 -0.4069 -0.0046
   14FTM     F122578   4.571   1.244   6.186 -0.4449 -1.9287  0.5538
   14FTM     C522579   4.720   0.987   6.262 -0.6739 -0.0556 -0.7328
   14FTM     C622580   4.652   0.937   6.383  0.9360 -0.5130  0.0229
   14FTM     C722581   4.525   1.027   6.405 -0.0176  0.2615 -0.4631
   14FTM     C822582   4.394   0.951   6.446  0.4995  1.1857  0.0791
   14FTM     C922583   4.276   0.953   6.343  0.3338  0.7758 -0.8782
   14FTM    C1022584   4.284   0.889   6.203 -0.3581 -1.0046  1.5437
   14FTM    C1122585   4.736   0.912   6.514  0.1694  0.0316  0.6552
   14FTM    C1222586   4.886   0.870   6.489  0.1249 -0.1532 -0.3202
   15FTM     S122587   5.340   1.752   6.696 -0.3801 -0.2085  0.2460
   15FTM     C122588   5.516   1.716   6.701 -0.2897  0.2903  1.0075
   15FTM     C222589   5.549   1.632   6.599  0.4648  0.7086  0.8937
   15FTM     C322590   5.442   1.593   6.512  1.0054  0.6678  0.2238
   15FTM     C422591   5.323   1.647   6.550  0.6533  0.2029 -0.1893
   15FTM     F122592   5.678   1.587   6.577  0.7105  1.1534  1.3895
   15FTM     C522593   5.616   1.735   6.809 -0.2768  0.4652 -0.7881
   15FTM     C622594   5.589   1.727   6.962  0.7685  0.6209 -0.6898
   15FTM     C722595   5.504   1.601   7.004 -0.5929 -0.0124  0.7749
   15FTM     C822596   5.361   1.608   7.079 -0.9231 -1.3953  0.1473
   15FTM     C922597   5.375   1.709   7.194  0.4043 -1.7394 -1.3108
   15FTM    C1022598   5.323   1.675   7.348 -0.7094  0.7375  1.0850
   15FTM    C1122599   5.701   1.770   7.046  1.3894 -0.4016 -0.6946
   15FTM    C1222600   5.785   1.686   7.146  0.3375 -1.0091  0.5078
   16TPM     C122601   4.902   1.459   6.863  0.2602 -0.1438 -0.4044
   16TPM     C222602   4.782   1.515   6.894  0.1334 -0.2981 -0.6053
   16TPM     C322603   4.746   1.502   7.033 -0.1740 -0.5126 -0.7038
   16TPM     C422604   4.838   1.435   7.107 -0.2813 -0.5219 -0.5780
   16TPM     S122605   4.979   1.383   7.007 -0.0007 -0.2583 -0.3234
   17BDD     C122606   4.875   1.306   7.477  0.2912  0.2000 -0.3061
   17BDD     C222607   4.799   1.419   7.488  0.3335  0.2266 -0.2851
   17BDD     C322608   4.777   1.487   7.361  0.4913  0.3454 -0.2497
   17BDD     C422609   4.836   1.424   7.255  0.5666  0.4077 -0.2441
   17BDD     S122610   4.924   1.277   7.307  0.4457  0.3219 -0.2829
   17BDD     C522611   4.743   1.469   7.616  0.2307  0.1437 -0.2968
   17BDD     C622612   4.697   1.611   7.350  0.5612  0.3928 -0.2226
   17BDD     O122613   4.678   1.669   7.241  0.6973  0.4953 -0.1919
   17BDD     O222614   4.762   1.411   7.725  0.0948  0.0412 -0.3273
   17BDD     C722615   4.642   1.661   7.478  0.4585  0.3099 -0.2345
   17BDD     C822616   4.664   1.594   7.604  0.3008  0.1911 -0.2698
   17BDD     C922617   4.604   1.656   7.710  0.2253  0.1288 -0.2755
   17BDD     S222618   4.516   1.804   7.659  0.3464  0.2146 -0.2367
   17BDD    C1022619   4.566   1.774   7.489  0.5009  0.3365 -0.2136
   17BDD    C1122620   4.488   1.860   7.400  0.5959 -0.9724 -0.4337
   17BDD    C1222621   4.338   1.849   7.404  0.3894 -1.0717  0.7757
   17BDD    C1322622   4.252   1.977   7.434 -0.2147  0.4027  1.1002
   17BDD    C1422623   4.159   2.000   7.556  0.5363 -0.1190 -0.3170
   17BDD    C1522624   4.051   1.916   7.607  0.6459 -1.2920 -0.6612
   17BDD    C1622625   4.093   1.770   7.611 -0.5562 -1.6804  0.6882
   17BDD    C1722626   4.261   1.743   7.330 -0.8447  0.3974  0.3748
   17BDD    C1822627   4.293   1.722   7.178  0.5259  0.5795 -0.2852
   17BDD    C1922628   4.604   1.619   7.863  0.9421  0.1116  0.8919
   17BDD    C2022629   4.459   1.564   7.907 -1.4621 -0.2676 -0.7163
   17BDD    C2122630   4.333   1.659   7.921  0.1140  0.0636  0.9837
   17BDD    C2222631   4.371   1.806   7.972  1.3764  0.3117  0.2354
   17BDD    C2322632   4.491   1.855   8.060  0.8114 -0.5034 -0.6404
   17BDD    C2422633   4.458   1.831   8.209  0.8697 -0.2013  1.9685
   17BDD    C2522634   4.447   1.416   7.860 -0.0908  0.3089  1.0715
   17BDD    C2622635   4.324   1.357   7.903  1.5082  0.2665  0.6554
   18TPM     C122636   4.900   1.176   7.559 -0.0287  0.4815  0.4158
   18TPM     C222637   4.985   1.079   7.516 -0.4112  0.4039 -0.1807
   18TPM     C322638   5.012   0.978   7.615 -0.2146  0.0967 -0.5445
   18TPM     C422639   4.949   0.999   7.733  0.3179 -0.0598 -0.2259
   18TPM     S122640   4.848   1.148   7.730  0.6144  0.1703  0.5651
   19BDTP    C122641   4.995   0.690   8.279  0.1526  0.1348  0.2871
   19BDTP    C222642   4.864   0.747   8.282  0.1248  0.0749  0.2244
   19BDTP    C322643   4.815   0.826   8.179  0.0906 -0.0515  0.1426
   19BDTP    C422644   4.898   0.851   8.068  0.0836 -0.1222  0.1216
   19BDTP    C522645   5.028   0.794   8.065  0.1112 -0.0623  0.1843
   19BDTP    C622646   5.078   0.714   8.168  0.1453  0.0640  0.2661
   19BDTP    C722647   4.869   0.930   7.950  0.0504 -0.2542  0.0412
   19BDTP    C822648   4.970   0.934   7.860  0.0517 -0.2957  0.0404
   19BDTP    S122649   5.116   0.840   7.912  0.0954 -0.1735  0.1414
   19BDTP    C922650   5.024   0.611   8.397  0.1857  0.2668  0.3669
   19BDTP   C1022651   4.923   0.606   8.487  0.1843  0.3083  0.3681
   19BDTP    S222652   4.776   0.701   8.435  0.1406  0.1861  0.2671
   20FTM     S122653   4.542   0.766   8.123  0.0877  0.0149  1.3599
   20FTM     C122654   4.424   0.865   8.216  0.3193  0.8053  0.8355
   20FTM     C222655   4.489   0.959   8.289  0.5006  1.4738 -0.1516
   20FTM     C322656   4.632   0.961   8.277  0.4710  1.4137 -0.5515
   20FTM     C422657   4.677   0.864   8.193  0.2605  0.6750  0.1533
   20FTM     F122658   4.423   1.050   8.371  0.7038  2.1800 -0.7527
   20FTM     C522659   4.274   0.857   8.195  1.2155  0.6275  1.4267
   20FTM     C622660   4.205   0.745   8.260  1.4656 -0.4197 -1.3079
   20FTM     C722661   4.192   0.764   8.420 -0.2237 -0.3888  0.2280
   20FTM     C822662   4.131   0.637   8.480 -0.3023 -0.1180  0.3058
   20FTM     C922663   4.230   0.546   8.541  0.7934  0.0062 -0.0358
   20FTM    C1022664   4.190   0.420   8.604  0.1663  1.1815  0.1794
   20FTM    C1122665   4.103   0.662   8.175 -0.8493 -0.0236  1.0196
   20FTM    C1222666   4.175   0.552   8.087  0.6245 -0.3954 -0.7861
   21FTM     S122667   5.244   0.483   8.178 -0.2442  0.2677  0.2362
   21FTM     C122668   5.418   0.518   8.146 -0.1379 -0.2080  0.2730
   21FTM     C222669   5.434   0.651   8.122  0.2625 -0.2174  0.4811
   21FTM     C322670   5.316   0.731   8.127  0.5052  0.1362  0.6218
   21FTM     C422671   5.205   0.658   8.156  0.2834  0.4258  0.5172
   21FTM     F122672   5.558   0.707   8.094  0.4330 -0.5467  0.5572
   21FTM     C522673   5.507   0.413   8.192 -1.0725 -0.4174  2.1310
   21FTM     C622674   5.539   0.398   8.338  0.6506 -1.1373  0.2015
   21FTM     C722675   5.532   0.247   8.393 -0.1263  0.2721 -0.0865
   21FTM     C822676   5.396   0.199   8.435  1.9832 -0.5762 -0.1580
   21FTM     C922677   5.322   0.290   8.543  0.4421  0.4027 -0.9309
   21FTM    C1022678   5.187   0.221   8.573 -0.1941 -0.8497 -0.3146
   21FTM    C1122679   5.681   0.448   8.390  1.5705  0.0639 -0.1688
   21FTM    C1222680   5.721   0.603   8.407  0.1209 -0.3696 -0.4650
   22TPM     C122681   4.910   0.534   8.604 -0.1679 -0.4590  0.6016
   22TPM     C222682   4.806   0.490   8.680 -0.0287 -0.3523  0.8576
   22TPM     C322683   4.846   0.437   8.808  0.1851  0.0528  0.9632
   22TPM     C422684   4.980   0.440   8.830  0.2087  0.2550  0.7883
   22TPM     S122685   5.068   0.511   8.689 -0.0388 -0.0530  0.4738
   23BDD     C122686   5.170   0.444   9.169  0.0252  0.5378  0.4585
   23BDD     C222687   5.089   0.334   9.170  0.1234  0.4636  0.3419
   23BDD     C322688   5.008   0.321   9.050  0.1634  0.4975  0.3114
   23BDD     C422689   5.029   0.422   8.959  0.0953  0.5971  0.4055
   23BDD     S122690   5.151   0.539   9.018 -0.0237  0.6553  0.5383
   23BDD     C522691   5.082   0.237   9.281  0.1839  0.3588  0.2544
   23BDD     C622692   4.913   0.210   9.029  0.2679  0.4299  0.1903
   23BDD     O122693   4.843   0.199   8.926  0.3024  0.4591  0.1640
   23BDD     O222694   5.152   0.248   9.384  0.1494  0.3296  0.2806
   23BDD     C722695   4.907   0.113   9.140  0.3284  0.3251  0.1028
   23BDD     C822696   4.987   0.126   9.260  0.2884  0.2912  0.1333
   23BDD     C922697   4.966   0.025   9.351  0.3567  0.1916  0.0393
   23BDD     S222698   4.844  -0.092   9.292  0.4757  0.1335 -0.0937
   23BDD    C1022699   4.825   0.003   9.141  0.4267  0.2508 -0.0141
   23BDD    C1122700   4.739  -0.079   9.038 -0.9477 -1.3416  0.0003
   23BDD    C1222701   4.601  -0.060   9.008  0.1789 -0.1800 -0.4365
   23BDD    C1322702   4.571  -0.159   8.904 -1.2591 -0.3842  0.6295
   23BDD    C1422703   4.434  -0.171   8.823 -1.7211  0.1585  0.5109
   23BDD    C1522704   4.361  -0.031   8.792  1.3188 -0.7572 -0.0139
   23BDD    C1622705   4.443   0.081   8.749 -0.3012  0.8378 -2.1726
   23BDD    C1722706   4.510  -0.068   9.138 -0.8943 -1.2630 -0.7024
   23BDD    C1822707   4.509  -0.220   9.201  0.1648 -0.6784 -1.2264
   23BDD    C1922708   5.025   0.001   9.490 -0.8615 -0.5663  0.0505
   23BDD    C2022709   4.935  -0.032   9.614  0.4802 -1.0265  1.4186
   23BDD    C2122710   4.817   0.064   9.625 -0.5504 -0.1448  1.9234
   23BDD    C2222711   4.698   0.043   9.729 -0.0147 -0.8681  0.8973
   23BDD    C2322712   4.639  -0.099   9.745 -0.5581  0.9340  0.1065
   23BDD    C2422713   4.586  -0.132   9.883 -0.2234  0.4167  0.5386
   23BDD    C2522714   5.042  -0.050   9.717 -0.1241  0.1602 -0.7454
   23BDD    C2622715   5.127  -0.186   9.704 -0.6452 -0.4346 -0.1683
   24TPM     C122716   5.255   0.504   9.268  0.5589  0.6384 -0.3111
   24TPM     C222717   5.389   0.487   9.286  0.4945  0.3410 -0.1152
   24TPM     C322718   5.443   0.561   9.397  0.4666  0.0796  0.0761
   24TPM     C422719   5.350   0.636   9.463  0.5093  0.1776  0.0264
   24TPM     S122720   5.186   0.618   9.390  0.5892  0.6111 -0.2685
   25BDTP    C122721   5.593   1.061   9.850  0.3654 -0.1755 -0.1738
   25BDTP    C222722   5.473   1.027   9.919  0.4144 -0.1872 -0.0937
   25BDTP    C322723   5.382   0.933   9.871  0.4637 -0.3044  0.0401
   25BDTP    C422724   5.411   0.870   9.749  0.4650 -0.4154  0.0978
   25BDTP    C522725   5.531   0.903   9.680  0.4159 -0.4038  0.0176
   25BDTP    C622726   5.622   0.997   9.728  0.3662 -0.2866 -0.1164
   25BDTP    C722727   5.333   0.770   9.679  0.5111 -0.5471  0.2340
   25BDTP    C822728   5.388   0.727   9.563  0.4992 -0.6337  0.2601
   25BDTP    S122729   5.546   0.808   9.525  0.4277 -0.5607  0.1154
   25BDTP    C922730   5.671   1.161   9.919  0.3189 -0.0439 -0.3102
   25BDTP   C1022731   5.616   1.203  10.036  0.3307  0.0427 -0.3364
   25BDTP    S222732   5.458   1.123  10.074  0.4023 -0.0303 -0.1915
   26FTM     S122733   5.175   0.749   9.973 -0.0937  0.5537 -0.2701
   26FTM     C122734   5.017   0.828  10.005 -0.1314  0.4636 -0.2333
   26FTM     C222735   5.028   0.963   9.991  0.0454  0.5720  0.7718
   26FTM     C322736   5.158   1.012   9.954  0.2171  0.7280  1.5559
   26FTM     C422737   5.249   0.911   9.941  0.1698  0.7394  1.1369
   26FTM     F122738   4.922   1.050  10.010  0.0626  0.5365  1.0421
   26FTM     C522739   4.894   0.751  10.058  0.4344 -0.6961  1.3899
   26FTM     C622740   4.911   0.659  10.174  0.8002  1.5473  0.0180
   26FTM     C722741   4.951   0.509  10.143 -1.2089 -0.1164  1.0477
   26FTM     C822742   4.948   0.471   9.996  0.3763 -0.2926  0.7835
   26FTM     C922743   5.022   0.341   9.965  0.0528  0.3650 -0.9773
   26FTM    C1022744   5.072   0.329   9.812  0.2846  0.0047 -0.7285
   26FTM    C1122745   4.933   0.715  10.311 -0.1298  0.3124 -0.7981
   26FTM    C1222746   4.877   0.669  10.436  1.0687 -0.0242 -0.1631
   27FTM     S122747   5.684   1.221   9.579  0.2671  0.2836  0.3628
   27FTM     C122748   5.857   1.247   9.538  0.2671 -0.0499  0.1393
   27FTM     C222749   5.930   1.137   9.571  0.0715 -0.2585 -0.1187
   27FTM     C322750   5.857   1.028   9.629 -0.0861 -0.1738 -0.1576
   27FTM     C422751   5.724   1.056   9.640 -0.0091  0.1089  0.0788
   27FTM     F122752   6.067   1.129   9.551  0.0240 -0.5386 -0.3352
   27FTM     C522753   5.911   1.367   9.460  1.0384 -0.7224 -0.8541
   27FTM     C622754   5.958   1.490   9.538  0.6270 -0.8964  0.1014
   27FTM     C722755   5.898   1.513   9.691  0.3341 -1.3648  0.1617
   27FTM     C822756   5.795   1.615   9.745 -0.0792  0.7522 -0.3515
   27FTM     C922757   5.856   1.749   9.770  0.9411 -0.3105 -0.5482
   27FTM    C1022758   5.963   1.766   9.880  0.9070  0.8850  0.4404
   27FTM    C1122759   6.097   1.547   9.515  0.0730 -0.5119  0.3870
   27FTM    C1222760   6.225   1.508   9.579  0.5096 -0.0060 -0.5921
   28TPM     C122761   5.671   1.315  10.117  1.7321 -2.0647  0.7870
   28TPM     C222762   5.797   1.362  10.099  1.7848 -1.9848  1.3323
   28TPM     C322763   5.836   1.462  10.195  0.7242 -0.7907  0.5915
   28TPM     C422764   5.739   1.490  10.287 -0.1372  0.0399 -0.5187
   28TPM     S122765   5.590   1.393  10.258  0.3278 -0.6268 -0.7164
   29BDD     C122766   5.825   1.815  10.490 -0.0626 -0.2389 -0.0670
   29BDD     C222767   5.762   1.734  10.580 -0.0348 -0.2798 -0.0842
   29BDD     C322768   5.722   1.606  10.524  0.0424 -0.2966 -0.1018
   29BDD     C422769   5.755   1.592  10.392  0.0722 -0.2683 -0.0973
   29BDD     S122770   5.838   1.737  10.329  0.0058 -0.2186 -0.0713
   29BDD     C522771   5.737   1.770  10.721 -0.0780 -0.3049 -0.0851
   29BDD     C622772   5.653   1.502  10.603  0.0840 -0.3401 -0.1218
   29BDD     O122773   5.618   1.392  10.555  0.1507 -0.3547 -0.1371
   29BDD     O222774   5.772   1.881  10.769 -0.1446 -0.2904 -0.0703
   29BDD     C722775   5.627   1.539  10.744  0.0407 -0.3652 -0.1230
   29BDD     C822776   5.668   1.667  10.800 -0.0366 -0.3484 -0.1059
   29BDD     C922777   5.635   1.681  10.932 -0.0663 -0.3767 -0.1099
   29BDD     S222778   5.551   1.536  10.996  0.0003 -0.4264 -0.1364
   29BDD    C1022779   5.565   1.458  10.834  0.0688 -0.4061 -0.1404
   29BDD    C1122780   5.518   1.309  10.833 -0.9430  0.4617 -0.8578
   29BDD    C1222781   5.589   1.183  10.770  0.3183 -0.9376 -1.2041
   29BDD    C1322782   5.736   1.166  10.823  1.4592 -0.1276 -0.4085
   29BDD    C1422783   5.841   1.264  10.793 -0.6224 -1.3864  0.7585
   29BDD    C1522784   5.984   1.227  10.853 -0.6103 -0.4243  0.1491
   29BDD    C1622785   6.052   1.115  10.765 -0.3278 -0.4281 -0.4461
   29BDD    C1722786   5.520   1.049  10.759 -0.2367  0.1072  0.1535
   29BDD    C1822787   5.470   0.990  10.893 -1.3349  0.6269 -0.1663
   29BDD    C1922788   5.643   1.777  11.040 -0.4055  0.6908 -0.5372
   29BDD    C2022789   5.521   1.853  11.065  1.0552  0.8069  0.6785
   29BDD    C2122790   5.461   1.919  10.936  1.2774  0.8468 -0.4297
   29BDD    C2222791   5.490   2.048  10.901 -0.0404 -0.7905  1.5606
   29BDD    C2322792   5.358   2.107  10.822 -0.2645 -0.7412  1.0454
   29BDD    C2422793   5.405   2.247  10.755  0.3137 -0.2404  0.7185
   29BDD    C2522794   5.533   1.943  11.194 -0.8082  0.3741 -0.5897
   29BDD    C2622795   5.568   1.860  11.329  0.0998 -0.1055  0.0149
   30TPM     C122796   5.890   1.948  10.490  0.3188  0.0112  0.0969
   30TPM     C222797   5.875   2.054  10.406  0.6799  0.0119  0.0269
   30TPM     C322798   5.950   2.170  10.444  0.5091  0.0166  0.3617
   30TPM     C422799   6.024   2.153  10.557  0.0179  0.0196  0.6869
   30TPM     S122800   6.003   1.987  10.626 -0.2693  0.0166  0.5948
   31BDTP    C122801   6.441   2.606  10.684  0.0136  0.0662  0.2689
   31BDTP    C222802   6.316   2.666  10.715 -0.0679 -0.0814  0.2279
   31BDTP    C322803   6.195   2.599  10.702  0.0155 -0.2253  0.1924
   31BDTP    C422804   6.198   2.466  10.656  0.1875 -0.2239  0.1967
   31BDTP    C522805   6.323   2.406  10.625  0.2692 -0.0763  0.2372
   31BDTP    C622806   6.444   2.473  10.638  0.1857  0.0677  0.2732
   31BDTP    C722807   6.085   2.377  10.635  0.2999 -0.3578  0.1638
   31BDTP    C822808   6.120   2.254  10.589  0.4599 -0.3182  0.1779
   31BDTP    S122809   6.300   2.234  10.568  0.4909 -0.1060  0.2346
   31BDTP    C922810   6.553   2.695  10.705 -0.0987  0.2000  0.3018
   31BDTP   C1022811   6.518   2.818  10.750 -0.2589  0.1606  0.2878
   31BDTP    S222812   6.339   2.838  10.772 -0.2898 -0.0517  0.2308
   32FTM     S122813   6.036   2.815  10.623 -0.1083 -0.2675 -0.5562
   32FTM     C122814   5.895   2.858  10.726  0.1348  0.1708 -0.4001
   32FTM     C222815   5.891   2.777  10.836  0.2018  0.4123 -0.2186
   32FTM     C322816   5.996   2.679  10.846  0.0715  0.2747 -0.1900
   32FTM     C422817   6.082   2.686  10.740 -0.1010 -0.0839 -0.3556
   32FTM     F122818   5.793   2.787  10.934  0.3853  0.7725 -0.0670
   32FTM     C522819   5.772   2.946  10.691 -0.3151  0.4801  0.6479
   32FTM     C622820   5.786   3.087  10.738 -0.6673  1.3287 -0.6541
   32FTM     C722821   5.688   3.110  10.860  0.3099 -0.6118 -0.9164
   32FTM     C822822   5.533   3.090  10.862 -1.1656  0.4353 -0.1035
   32FTM     C922823   5.446   3.182  10.767  0.6943 -0.8661 -0.5854
   32FTM    C1022824   5.328   3.102  10.713  0.1105  0.1259  0.6114
   32FTM    C1122825   5.885   3.208  10.717 -0.1573  0.6865 -0.2753
   32FTM    C1222826   6.030   3.178  10.771 -0.5761 -0.8083 -0.0047
   33FTM     S122827   6.657   2.386  10.448  0.0523  0.2391 -0.1865
   33FTM     C122828   6.792   2.293  10.523  0.5107  0.4278 -0.7595
   33FTM     C222829   6.768   2.275  10.656  1.1697  0.5125 -0.6199
   33FTM     C322830   6.646   2.331  10.706  1.3540  0.4376 -0.0718
   33FTM     C422831   6.574   2.394  10.608  0.8185  0.2907  0.2174
   33FTM     F122832   6.854   2.206  10.740  1.6452  0.6628 -0.9794
   33FTM     C522833   6.881   2.208  10.438  0.0498 -0.7016 -0.5672
   33FTM     C622834   6.919   2.237  10.286  0.8331  0.0500 -1.4456
   33FTM     C722835   6.995   2.353  10.253 -0.3543  0.7438 -0.1477
   33FTM     C822836   7.138   2.318  10.285  0.1966  0.2063 -0.1463
   33FTM     C922837   7.232   2.398  10.196  0.7719 -0.0218 -0.8330
   33FTM    C1022838   7.369   2.406  10.258  0.5354 -0.2515  1.1171
   33FTM    C1122839   6.820   2.230  10.167 -0.6397  1.1970  0.6790
   33FTM    C1222840   6.713   2.115  10.182 -0.3845 -0.7794  1.1874
   34TPM     C122841   6.611   2.931  10.753 -0.2880 -0.7600  0.1055
   34TPM     C222842   6.740   2.952  10.790 -0.3710 -0.9570  0.5169
   34TPM     C322843   6.787   3.086  10.767 -0.2552 -0.8799  1.1661
   34TPM     C422844   6.692   3.168  10.713 -0.0841 -0.6242  1.2502
   34TPM     S122845   6.536   3.081  10.686 -0.0554 -0.4595  0.5100
   35BDD     C122846   6.881   3.518  10.733 -0.4329  0.2890  0.2475
   35BDD     C222847   6.760   3.547  10.676 -0.4065  0.2776  0.1860
   35BDD     C322848   6.675   3.430  10.658 -0.2444  0.2148 -0.1872
   35BDD     C422849   6.733   3.314  10.702 -0.1493  0.1789 -0.4043
   35BDD     S122850   6.897   3.343  10.768 -0.2564  0.2217 -0.1571
   35BDD     C522851   6.718   3.683  10.636 -0.5296  0.3242  0.4680
   35BDD     C622852   6.541   3.438  10.598 -0.1895  0.1923 -0.3138
   35BDD     O122853   6.468   3.338  10.583 -0.0497  0.1381 -0.6354
   35BDD     O222854   6.791   3.783  10.652 -0.6695  0.3785  0.7896
   35BDD     C722855   6.499   3.574  10.558 -0.3126  0.2389 -0.0322
   35BDD     C822856   6.583   3.691  10.576 -0.4748  0.3018  0.3409
   35BDD     C922857   6.526   3.807  10.532 -0.5698  0.3377  0.5586
   35BDD     S222858   6.362   3.778  10.466 -0.4628  0.2949  0.3113
   35BDD    C1022859   6.378   3.603  10.501 -0.2863  0.2276 -0.0932
   35BDD    C1122860   6.253   3.520  10.457 -0.0432  1.2534  0.3811
   35BDD    C1222861   6.266   3.471  10.308 -1.6517 -0.0772  0.4046
   35BDD    C1322862   6.373   3.541  10.224  1.8263  0.0419 -0.7321
   35BDD    C1422863   6.316   3.657  10.143 -0.6054  0.1911  0.3857
   35BDD    C1522864   6.432   3.746  10.095  0.5752  0.1261  0.6835
   35BDD    C1622865   6.486   3.700   9.945  0.5315 -0.7336  0.0992
   35BDD    C1722866   6.131   3.422  10.253  0.1766 -0.0501 -0.0825
   35BDD    C1822867   6.092   3.275  10.291 -0.4958  0.2571  0.9342
   35BDD    C1922868   6.553   3.964  10.541  0.3442  0.8529  0.3711
   35BDD    C2022869   6.645   4.023  10.440 -0.4472  2.2611 -1.1214
   35BDD    C2122870   6.722   4.120  10.516  0.0673 -1.9755 -0.2760
   35BDD    C2222871   6.654   4.259  10.557 -0.3487  0.4430 -0.5424
   35BDD    C2322872   6.727   4.350  10.653 -1.2277  0.8069 -1.3812
   35BDD    C2422873   6.814   4.291  10.772 -0.3884  0.8088 -2.0951
   35BDD    C2522874   6.579   4.065  10.315 -0.8185 -0.7261  0.0050
   35BDD    C2622875   6.679   4.109  10.194  0.4727 -0.2742 -1.1069
   36TPM     C122876   6.993   3.601  10.778  0.0205  0.3605 -1.1972
   36TPM     C222877   7.119   3.568  10.738  0.1410  0.9530 -1.3311
   36TPM     C322878   7.218   3.669  10.767 -0.1419  1.0267 -0.5753
   36TPM     C422879   7.167   3.779  10.828 -0.4782  0.4904  0.1351
   36TPM     S122880   6.989   3.764  10.855 -0.4636 -0.1544 -0.0980
   37BDTP    C122881   7.538   4.149  11.164  0.1489 -0.2538 -0.0069
   37BDTP    C222882   7.416   4.149  11.237  0.1185 -0.1352 -0.0577
   37BDTP    C322883   7.301   4.086  11.190  0.1136 -0.1369 -0.0432
   37BDTP    C422884   7.308   4.019  11.066  0.1397 -0.2613  0.0250
   37BDTP    C522885   7.430   4.019  10.994  0.1702 -0.3799  0.0761
   37BDTP    C622886   7.545   4.082  11.040  0.1751 -0.3782  0.0615
   37BDTP    C722887   7.202   3.947  10.998  0.1405 -0.2879  0.0521
   37BDTP    C822888   7.240   3.893  10.880  0.1694 -0.4192  0.1204
   37BDTP    S122889   7.413   3.926  10.838  0.2000 -0.5274  0.1597
   37BDTP    C922890   7.644   4.221  11.232  0.1483 -0.2272 -0.0339
   37BDTP   C1022891   7.606   4.275  11.351  0.1193 -0.0961 -0.1018
   37BDTP    S222892   7.433   4.241  11.393  0.0887  0.0123 -0.1412
   38FTM     S122893   7.015   4.141  11.233  0.2044 -0.2673 -0.4181
   38FTM     C122894   6.945   4.042  11.366  0.3175 -0.3197 -0.3968
   38FTM     C222895   7.044   3.978  11.434  0.3474 -0.6353 -0.7348
   38FTM     C322896   7.177   4.001  11.387  0.2854 -0.8502 -1.0242
   38FTM     C422897   7.181   4.086  11.281  0.2059 -0.6943 -0.9039
   38FTM     F122898   7.019   3.894  11.542  0.4323 -0.7482 -0.8023
   38FTM     C522899   6.798   4.011  11.376  0.0308  0.2844 -0.8414
   38FTM     C622900   6.700   4.063  11.281  0.2660 -0.1300  0.5434
   38FTM     C722901   6.679   4.201  11.307 -1.5774 -0.9836 -0.3507
   38FTM     C822902   6.590   4.277  11.207 -0.0916 -1.8122 -0.1431
   38FTM     C922903   6.499   4.374  11.288 -1.5479  1.1153 -0.8159
   38FTM    C1022904   6.430   4.445  11.181 -0.6781 -0.2527  0.1802
   38FTM    C1122905   6.569   3.983  11.277 -0.2966  0.4968 -0.4206
   38FTM    C1222906   6.555   3.836  11.348  1.1365 -1.5199  1.0140
   39FTM     S122907   7.816   4.018  10.945 -0.1080 -0.6854 -0.0633
   39FTM     C122908   7.848   4.079  10.779  0.8647  0.2208  0.4391
   39FTM     C222909   7.747   4.162  10.740  0.9041  0.1398  0.1640
   39FTM     C322910   7.642   4.182  10.834  0.1969 -0.6137 -0.4396
   39FTM     C422911   7.662   4.112  10.950 -0.4033 -1.1263 -0.6330
   39FTM     F122912   7.745   4.224  10.616  1.5824  0.7433  0.4423
   39FTM     C522913   7.962   4.019  10.696 -0.2223 -1.7227 -0.5018
   39FTM     C622914   7.937   3.906  10.598  0.1784 -1.2728  1.4078
   39FTM     C722915   8.003   3.921  10.460  0.0814 -0.6518 -1.0048
   39FTM     C822916   7.971   4.046  10.379  0.0071  0.4956  0.2662
   39FTM     C922917   8.061   4.073  10.270  0.5083  0.3196  0.1970
   39FTM    C1022918   8.023   3.959  10.175  0.0885 -0.9311 -0.1546
   39FTM    C1122919   7.939   3.770  10.662 -1.0519 -0.6091  0.7752
   39FTM    C1222920   7.916   3.636  10.595  0.6928 -0.8541 -0.8394
   40TPM     C122921   7.685   4.368  11.442 -0.6040  0.6408 -0.4942
   40TPM     C222922   7.648   4.426  11.560 -0.2837  0.0263 -0.0865
   40TPM     C322923   7.746   4.516  11.614  0.0807 -0.6324  0.3897
   40TPM     C422924   7.858   4.528  11.537  0.0383 -0.5199  0.3452
   40TPM     S122925   7.848   4.425  11.389 -0.4692  0.4337 -0.3067
   41BDD     C122926   8.219   4.660  11.551 -0.0346 -0.2624 -0.1387
   41BDD     C222927   8.145   4.762  11.604  0.0670 -0.2252 -0.0685
   41BDD     C322928   8.005   4.728  11.621  0.0789 -0.1792  0.1300
   41BDD     C422929   7.974   4.602  11.579 -0.0143 -0.1823  0.2083
   41BDD     S122930   8.118   4.516  11.517 -0.1230 -0.2427  0.0389
   41BDD     C522931   8.201   4.893  11.643  0.1576 -0.2301 -0.1813
   41BDD     C622932   7.907   4.823  11.677  0.1820 -0.1340  0.2349
   41BDD     O122933   7.786   4.795  11.691  0.1920 -0.0944  0.4060
   41BDD     O222934   8.322   4.922  11.629  0.1478 -0.2697 -0.3525
   41BDD     C722935   7.962   4.955  11.715  0.2725 -0.1390  0.1220
   41BDD     C822936   8.103   4.988  11.699  0.2606 -0.1849 -0.0765
   41BDD     C922937   8.134   5.115  11.740  0.3536 -0.1818 -0.1548
   41BDD     S222938   7.989   5.201  11.803  0.4626 -0.1215  0.0146
   41BDD    C1022939   7.888   5.056  11.769  0.3743 -0.1016  0.1922
   41BDD    C1122940   7.750   5.078  11.814 -0.6839  1.6597  1.6615
   41BDD    C1222941   7.708   4.967  11.919  0.9541  0.6100  0.0788
   41BDD    C1322942   7.563   4.907  11.896 -0.4776  0.1651  0.2470
   41BDD    C1422943   7.547   4.763  11.883  0.7009  0.5305  0.4274
   41BDD    C1522944   7.580   4.673  12.009 -0.4174  0.3069  0.6097
   41BDD    C1622945   7.512   4.697  12.147  0.1612  0.0233  0.8780
   41BDD    C1722946   7.771   4.965  12.054 -0.6893 -0.3446 -0.5940
   41BDD    C1822947   7.720   5.058  12.167 -0.8060 -0.4863 -0.8188
   41BDD    C1922948   8.252   5.214  11.731 -0.4795 -0.4560  1.5323
   41BDD    C2022949   8.241   5.314  11.608 -0.7617 -0.8465  0.2944
   41BDD    C2122950   8.348   5.431  11.615  0.3548  0.0902  0.3771
   41BDD    C2222951   8.301   5.562  11.562 -0.5430  1.1337  0.8833
   41BDD    C2322952   8.417   5.642  11.617 -1.4100 -1.1731 -0.8928
   41BDD    C2422953   8.399   5.782  11.602 -0.2391 -0.7478 -0.1902
   41BDD    C2522954   8.195   5.263  11.478 -0.8916  0.2032  1.4937
   41BDD    C2622955   8.318   5.194  11.395 -1.0601  0.2455 -0.7763
   42TPM     C122956   8.356   4.648  11.510 -0.5391  0.1293 -0.3793
   42TPM     C222957   8.459   4.645  11.599 -0.5081  1.1666 -0.3554
   42TPM     C322958   8.589   4.641  11.538 -0.4485  2.1467 -0.3259
   42TPM     C422959   8.585   4.641  11.402 -0.4331  1.8567 -0.3272
   42TPM     S122960   8.416   4.646  11.340 -0.4941  0.3111 -0.3662
   43BDTP    C122961   9.079   4.332  11.168  0.2756  0.1616 -0.4680
   43BDTP    C222962   8.972   4.280  11.091  0.0813 -0.0391 -0.0679
   43BDTP    C322963   8.841   4.325  11.103  0.0963 -0.0654  0.1974
   43BDTP    C422964   8.815   4.428  11.196  0.3126  0.1142  0.0622
   43BDTP    C522965   8.923   4.480  11.273  0.5069  0.3150 -0.3381
   43BDTP    C622966   9.053   4.435  11.261  0.4919  0.3415 -0.6032
   43BDTP    C722967   8.688   4.491  11.226  0.3703  0.1259  0.2822
   43BDTP    C822968   8.695   4.587  11.322  0.5953  0.3234  0.0689
   43BDTP    S122969   8.864   4.611  11.386  0.7658  0.5219 -0.4401
   43BDTP    C922970   9.206   4.269  11.138  0.2179  0.1500 -0.6878
   43BDTP   C1022971   9.199   4.173  11.043 -0.0072 -0.0472 -0.4747
   43BDTP    S222972   9.031   4.149  10.978 -0.1778 -0.2459  0.0343
   44FTM     S122973   8.595   4.165  11.114  0.7828  0.5578  0.0789
   44FTM     C122974   8.511   4.147  10.956  0.1284  0.1193  0.4665
   44FTM     C222975   8.578   4.216  10.860 -0.6642  0.4511  0.1383
   44FTM     C322976   8.695   4.286  10.903 -0.8078  1.0523 -0.4206
   44FTM     C422977   8.719   4.270  11.036 -0.1015  1.1851 -0.5244
   44FTM     F122978   8.536   4.221  10.728 -1.3070  0.2302  0.3252
   44FTM     C522979   8.369   4.094  10.953 -1.2623 -1.2598 -0.1114
   44FTM     C622980   8.246   4.140  11.030  1.0546 -0.9871 -2.4081
   44FTM     C722981   8.193   4.287  11.039 -1.1831  0.1044 -0.1941
   44FTM     C822982   8.191   4.353  10.913 -0.1649  0.4329 -0.1891
   44FTM     C922983   8.194   4.507  10.905  0.2250  1.3067 -0.3969
   44FTM    C1022984   8.294   4.570  10.999 -0.4252  0.4992  0.1576
   44FTM    C1122985   8.224   4.060  11.180 -0.0322  0.5301  0.7573
   44FTM    C1222986   8.296   4.146  11.283 -0.6657 -0.3424  0.4452
   45FTM     S122987   9.275   4.428  11.435  0.3675 -0.3446 -0.4490
   45FTM     C122988   9.378   4.574  11.446  0.7517 -0.6256 -0.2670
   45FTM     C222989   9.325   4.674  11.371  1.0478 -0.4139 -0.1999
   45FTM     C322990   9.202   4.644  11.303  0.9956 -0.0294 -0.2837
   45FTM     C422991   9.161   4.516  11.326  0.6482  0.0558 -0.4195
   45FTM     F122992   9.383   4.800  11.360  1.3843 -0.5554 -0.0585
   45FTM     C522993   9.496   4.564  11.528 -0.8388 -0.4954  0.0103
   45FTM     C622994   9.526   4.676  11.637 -0.5517  1.4021  0.5904
   45FTM     C722995   9.628   4.774  11.601 -0.4641  0.5972 -1.6269
   45FTM     C822996   9.752   4.772  11.693  0.4760  0.4250 -0.1880
   45FTM     C922997   9.784   4.722  11.830 -0.5384 -0.9291  0.0456
   45FTM    C1022998   9.935   4.688  11.855  0.8259  0.2968 -0.2682
   45FTM    C1122999   9.441   4.712  11.764  0.1582  0.3400 -0.2981
   45FTM    C1223000   9.317   4.624  11.813  0.6240  0.6273 -0.2537
   46TPM     C123001   9.285   4.071  10.977  0.3821  0.0951 -1.4797
   46TPM     C223002   9.421   4.069  10.985  0.4480  0.1624 -2.3921
   46TPM     C323003   9.479   3.941  10.956  0.2663  0.0346 -2.1996
   46TPM     C423004   9.387   3.845  10.925  0.0619 -0.1302 -1.1405
   46TPM     S123005   9.219   3.910  10.932  0.0832 -0.1367 -0.2980
   47BDD     C123006   9.499   3.502  10.803 -0.1097 -0.0559  0.0472
   47BDD     C223007   9.515   3.585  10.695 -0.0618 -0.0161  0.0846
   47BDD     C323008   9.481   3.723  10.724  0.1230  0.0106  0.1786
   47BDD     C423009   9.440   3.744  10.853  0.2136 -0.0093  0.2107
   47BDD     S123010   9.441   3.591  10.947  0.0737 -0.0629  0.1259
   47BDD     C523011   9.562   3.540  10.562 -0.1845 -0.0010  0.0362
   47BDD     C623012   9.491   3.830  10.622  0.2034  0.0550  0.2329
   47BDD     O123013   9.462   3.949  10.647  0.3626  0.0780  0.3140
   47BDD     O223014   9.591   3.421  10.538 -0.3438 -0.0240 -0.0446
   47BDD     C723015   9.538   3.785  10.489  0.0806  0.0701  0.1841
   47BDD     C823016   9.572   3.647  10.461 -0.1042  0.0434  0.0904
   47BDD     C923017   9.613   3.627  10.332 -0.1945  0.0633  0.0577
   47BDD     S223018   9.612   3.779  10.238 -0.0548  0.1169  0.1428
   47BDD    C1023019   9.553   3.869  10.382  0.1287  0.1100  0.2217
   47BDD    C1123020   9.544   4.025  10.369 -1.2761  0.4842  0.4620
   47BDD    C1223021   9.675   4.093  10.323  0.0003  0.1610 -1.2524
   47BDD    C1323022   9.729   4.199  10.430  0.9832 -0.9982  0.2125
   47BDD    C1423023   9.637   4.324  10.464 -0.7124 -0.3738 -0.8798
   47BDD    C1523024   9.706   4.456  10.443 -0.2691 -0.1880  0.4290
   47BDD    C1623025   9.705   4.527  10.312 -0.7075  1.3567 -1.1258
   47BDD    C1723026   9.687   4.131  10.187  0.2425  0.2437  1.7698
   47BDD    C1823027   9.790   4.232  10.117  0.8701 -1.2432  0.0604
   47BDD    C1923028   9.668   3.507  10.254 -0.0608  0.4452 -0.2850
   47BDD    C2023029   9.580   3.442  10.145 -0.6817 -0.2389 -0.5413
   47BDD    C2123030   9.661   3.335  10.075  1.1878  0.2774  0.9877
   47BDD    C2223031   9.643   3.306   9.928 -0.1396 -0.1926  0.1795
   47BDD    C2323032   9.772   3.347   9.851  0.5021 -0.3240  0.5087
   47BDD    C2423033   9.786   3.296   9.703  0.0845 -1.1503  1.1755
   47BDD    C2523034   9.433   3.392  10.190 -0.4567 -0.4716  1.1479
   47BDD    C2623035   9.339   3.426  10.306 -0.3708  0.2251 -0.8818
   48TPM     C123036   9.526   3.360  10.829  0.3813  0.2841 -0.4441
   48TPM     C223037   9.403   3.310  10.862 -0.0055  0.9100 -0.8807
   48TPM     C323038   9.393   3.167  10.849 -0.5915  0.9197 -0.6065
   48TPM     C423039   9.508   3.108  10.805 -0.6518  0.3010  0.0395
   48TPM     S123040   9.639   3.229  10.778  0.0321 -0.3466  0.3537
   49BDTP    C123041   9.533   2.497  10.647  0.1664 -0.1311  0.2880
   49BDTP    C223042   9.666   2.520  10.691  0.1497 -0.0665  0.3028
   49BDTP    C323043   9.711   2.645  10.733  0.1035 -0.0296  0.2425
   49BDTP    C423044   9.619   2.752  10.732  0.0725 -0.0578  0.1633
   49BDTP    C523045   9.486   2.728  10.688  0.0887 -0.1222  0.1478
   49BDTP    C623046   9.442   2.604  10.646  0.1346 -0.1590  0.2087
   49BDTP    C723047   9.642   2.890  10.771  0.0232 -0.0290  0.0907
   49BDTP    C823048   9.533   2.970  10.758  0.0017 -0.0684  0.0226
   49BDTP    S123049   9.387   2.882  10.695  0.0412 -0.1474  0.0415
   49BDTP    C923050   9.510   2.359  10.608  0.2153 -0.1597  0.3605
   49BDTP   C1023051   9.619   2.279  10.621  0.2365 -0.1203  0.4280
   49BDTP    S223052   9.765   2.367  10.684  0.1968 -0.0414  0.4098
   50FTM     S123053   9.879   2.737  10.939 -0.3372 -0.0464 -0.3286
   50FTM     C123054  10.057   2.730  10.909 -0.1946  0.5283  0.3249
   50FTM     C223055  10.081   2.689  10.782  0.4051  1.1575  0.2182
   50FTM     C323056   9.965   2.660  10.702  0.7815  1.2293 -0.3645
   50FTM     C423057   9.849   2.681  10.770  0.4590  0.6360 -0.7150
   50FTM     F123058  10.208   2.674  10.730  0.6492  1.7056  0.6413
   50FTM     C523059  10.146   2.713  11.035 -0.2188 -0.3975  0.0434
   50FTM     C623060  10.291   2.768  11.031 -0.2878 -0.0680 -0.0330
   50FTM     C723061  10.292   2.920  11.008 -1.2325  0.8829 -0.6794
   50FTM     C823062  10.354   3.000  11.122  0.0495 -0.5557  0.6199
   50FTM     C923063  10.238   3.084  11.185 -0.7207 -0.6937  1.0717
   50FTM    C1023064  10.289   3.188  11.290 -0.0249 -0.4988 -0.6410
   50FTM    C1123065  10.389   2.723  10.923 -1.0163 -0.2533 -0.6147
   50FTM    C1223066  10.412   2.575  10.914 -0.0100  0.3029  0.7596
   51FTM     S123067   9.193   2.485  10.677  0.1219  0.2562  0.0075
   51FTM     C123068   9.071   2.510  10.547 -0.2034 -0.0920  0.2398
   51FTM     C223069   9.122   2.592  10.451 -0.5729 -0.0511  0.0744
   51FTM     C323070   9.256   2.638  10.472 -0.6242  0.2463 -0.2351
   51FTM     C423071   9.309   2.591  10.588 -0.2831  0.4394 -0.3098
   51FTM     F123072   9.051   2.629  10.338 -0.8862 -0.2806  0.1938
   51FTM     C523073   8.926   2.461  10.563 -0.5337 -0.5932 -1.4606
   51FTM     C623074   8.857   2.394  10.448 -0.4329 -0.4132 -0.6270
   51FTM     C723075   8.925   2.259  10.382  1.1901 -0.3310 -0.4955
   51FTM     C823076   8.905   2.131  10.447 -0.0148  0.3726 -0.9091
   51FTM     C923077   8.979   2.024  10.367  0.3780  0.1319  0.4647
   51FTM    C1023078   9.013   1.880  10.422 -1.0679 -0.2643 -0.5100
   51FTM    C1123079   8.707   2.406  10.461 -0.8057  0.6110  1.3926
   51FTM    C1223080   8.651   2.410  10.327  0.1974  0.3514  0.0744
   52TPM     C123081   9.628   2.154  10.543 -0.2362  0.4364  0.0410
   52TPM     C223082   9.744   2.099  10.498 -0.0935  1.3097 -0.7334
   52TPM     C323083   9.724   1.989  10.407  0.1481  1.6099 -1.1516
   52TPM     C423084   9.593   1.961  10.382  0.1892  0.9656 -0.6964
   52TPM     S123085   9.483   2.072  10.473 -0.0757 -0.0784  0.3039
   53BDD     C123086   9.471   1.751  10.069  0.0701  0.3006 -0.0203
   53BDD     C223087   9.534   1.662  10.152  0.0458  0.2340 -0.0734
   53BDD     C323088   9.587   1.722  10.273  0.1075  0.1570 -0.0615
   53BDD     C423089   9.563   1.857  10.281  0.1785  0.1659  0.0003
   53BDD     S123090   9.474   1.917  10.137  0.1724  0.2713  0.0477
   53BDD     C523091   9.548   1.517  10.123 -0.0355  0.2389 -0.1371
   53BDD     C623092   9.658   1.645  10.376  0.0942  0.0774 -0.1121
   53BDD     O123093   9.703   1.697  10.481  0.1476  0.0109 -0.1018
   53BDD     O223094   9.503   1.465  10.018 -0.0892  0.3054 -0.1471
   53BDD     C723095   9.672   1.500  10.347  0.0129  0.0822 -0.1755
   53BDD     C823096   9.620   1.440  10.226 -0.0491  0.1592 -0.1872
   53BDD     C923097   9.643   1.305  10.218 -0.1199  0.1504 -0.2491
   53BDD     S223098   9.732   1.245  10.362 -0.1140  0.0450 -0.2966
   53BDD    C1023099   9.735   1.411  10.430 -0.0117  0.0157 -0.2284
   53BDD    C1123100   9.817   1.434  10.555 -1.2796 -1.1163  0.1137
   53BDD    C1223101   9.761   1.437  10.703 -0.0934  0.0285  0.4956
   53BDD    C1323102   9.745   1.300  10.781 -0.8937 -0.8004 -1.1816
   53BDD    C1423103   9.867   1.205  10.804  1.1611 -0.1209  0.1804
   53BDD    C1523104   9.853   1.087  10.710  0.1446 -0.8710  0.5835
   53BDD    C1623105   9.960   1.058  10.614 -1.2318  0.5032 -0.0229
   53BDD    C1723106   9.638   1.532  10.732 -0.1798  0.9424 -0.0823
   53BDD    C1823107   9.682   1.668  10.763  0.4843 -1.8229  0.7972
   53BDD    C1923108   9.594   1.198  10.123 -0.0995 -0.4911 -1.2894
   53BDD    C2023109   9.704   1.137  10.032 -0.3397  0.4090 -0.0410
   53BDD    C2123110   9.833   1.062  10.087  0.0155  0.0238 -0.3693
   53BDD    C2223111   9.805   0.920  10.155 -0.8930  0.3061  0.1452
   53BDD    C2323112   9.786   0.801  10.053  0.0696  0.8315  0.0671
   53BDD    C2423113   9.753   0.666  10.133  0.3824 -1.1456 -0.0943
   53BDD    C2523114   9.691   1.126   9.870  0.1163 -0.1920  0.5265
   53BDD    C2623115   9.587   1.034   9.834  0.4023  0.3053  0.1074
   54TPM     C123116   9.439   1.757   9.932  0.4816 -0.0276  0.3416
   54TPM     C223117   9.369   1.653   9.879  0.3455 -0.0545  0.5684
   54TPM     C323118   9.308   1.684   9.752  0.2203 -0.1901  0.5946
   54TPM     C423119   9.331   1.811   9.709  0.2612 -0.2665  0.3880
   54TPM     S123120   9.433   1.902   9.826  0.4623 -0.1725  0.1425
   55BDTP    C123121   9.097   2.059   9.185 -0.1514  0.2291 -0.1295
   55BDTP    C223122   9.238   2.065   9.162 -0.1397  0.1548 -0.0799
   55BDTP    C323123   9.331   2.019   9.254 -0.1962  0.1110 -0.0441
   55BDTP    C423124   9.284   1.964   9.374 -0.2677  0.1420 -0.0579
   55BDTP    C523125   9.143   1.958   9.397 -0.2794  0.2164 -0.1073
   55BDTP    C623126   9.050   2.004   9.305 -0.2230  0.2601 -0.1430
   55BDTP    C723127   9.361   1.910   9.484 -0.3347  0.1075 -0.0274
   55BDTP    C823128   9.286   1.864   9.587 -0.3955  0.1518 -0.0515
   55BDTP    S123129   9.108   1.883   9.560 -0.3765  0.2435 -0.1159
   55BDTP    C923130   9.020   2.113   9.075 -0.0844  0.2637 -0.1597
   55BDTP   C1023131   9.094   2.159   8.972 -0.0231  0.2193 -0.1357
   55BDTP    S223132   9.273   2.141   8.999 -0.0427  0.1277 -0.0712
   56FTM     S123133   9.547   1.909   9.107  0.6135 -0.5326  0.0162
   56FTM     C123134   9.708   1.988   9.111  0.3874 -0.0745  0.2075
   56FTM     C223135   9.706   2.094   9.197 -0.2129  0.3703 -0.3374
   56FTM     C323136   9.581   2.119   9.263 -0.5260  0.3817 -0.9224
   56FTM     C423137   9.485   2.029   9.226 -0.1533 -0.0690 -0.8223
   56FTM     F123138   9.816   2.174   9.221 -0.5147  0.7935 -0.3388
   56FTM     C523139   9.816   1.936   9.005  0.4314  0.1974  1.0112
   56FTM     C623140   9.780   1.831   8.896  0.8298 -0.2344 -0.3060
   56FTM     C723141   9.699   1.876   8.780  0.5028  0.9059 -0.5989
   56FTM     C823142   9.779   1.953   8.683 -2.2188  0.6101  0.3482
   56FTM     C923143   9.895   1.876   8.615 -1.1954 -0.4991  0.2415
   56FTM    C1023144   9.997   1.976   8.565  0.5985 -1.4684 -0.2806
   56FTM    C1123145   9.780   1.688   8.910 -0.8762  0.1659 -0.2570
   56FTM    C1223146   9.733   1.615   9.033 -0.6019  0.7423 -0.5956
   57FTM     S123147   8.794   2.134   9.343  0.1855 -0.3955 -0.1629
   57FTM     C123148   8.651   2.032   9.381  0.1299 -0.4958 -0.6276
   57FTM     C223149   8.684   1.900   9.376  0.2437 -0.4719 -0.5019
   57FTM     C323150   8.821   1.871   9.343  0.3781 -0.3765 -0.0472
   57FTM     C423151   8.894   1.984   9.322  0.3667 -0.3256  0.1822
   57FTM     F123152   8.594   1.798   9.401  0.2332 -0.5352 -0.7908
   57FTM     C523153   8.536   2.118   9.422 -0.0401  1.9119 -1.2358
   57FTM     C623154   8.403   2.052   9.456  0.5461  0.1602 -1.0097
   57FTM     C723155   8.297   2.156   9.518  0.0502  0.6439 -0.4064
   57FTM     C823156   8.337   2.260   9.631 -0.2770  1.6466  0.0436
   57FTM     C923157   8.214   2.348   9.652  0.5657 -0.6469 -0.8220
   57FTM    C1023158   8.243   2.457   9.761  0.7661  1.1004 -0.1896
   57FTM    C1123159   8.351   1.962   9.348  0.1271  0.7522  0.3918
   57FTM    C1223160   8.301   2.016   9.213 -0.2258  0.0939 -0.4299
   58TPM     C123161   9.056   2.218   8.847 -0.2632 -0.1341  0.5983
   58TPM     C223162   9.082   2.346   8.808  0.3047 -0.3014  0.4098
   58TPM     C323163   9.013   2.385   8.688  0.8757 -0.3284  0.0622
   58TPM     C423164   8.934   2.287   8.636  0.7431 -0.1816 -0.0141
   58TPM     S123165   8.941   2.136   8.735 -0.1200  0.0034  0.3494
   59BDD     C123166   8.683   2.435   8.373 -0.5315  0.0876  0.3007
   59BDD     C223167   8.756   2.340   8.307 -0.4368  0.2054  0.2344
   59BDD     C323168   8.853   2.273   8.392 -0.1123  0.4990  0.0994
   59BDD     C423169   8.853   2.318   8.521  0.0358  0.6007  0.0646
   59BDD     S123170   8.731   2.447   8.546 -0.2210  0.3361  0.1981
   59BDD     C523171   8.739   2.308   8.164 -0.6411  0.0524  0.2928
   59BDD     C623172   8.942   2.167   8.341  0.0396  0.6678  0.0098
   59BDD     O123173   9.026   2.109   8.414  0.3195  0.9210 -0.1066
   59BDD     O223174   8.655   2.366   8.091 -0.9210 -0.2007  0.4094
   59BDD     C723175   8.925   2.134   8.198 -0.1650  0.5148  0.0679
   59BDD     C823176   8.828   2.201   8.113 -0.4897  0.2213  0.2031
   59BDD     C923177   8.828   2.156   7.984 -0.6380  0.1194  0.2377
   59BDD     S223178   8.950   2.027   7.959 -0.3810  0.3841  0.1041
   59BDD    C1023179   8.998   2.039   8.132 -0.0706  0.6325  0.0019
   59BDD    C1123180   9.112   1.930   8.187  0.4232 -1.3237  1.0686
   59BDD    C1223181   9.071   1.797   8.267  0.3412  0.4645  0.4251
   59BDD    C1323182   8.922   1.749   8.238  0.2799  0.0274 -0.5528
   59BDD    C1423183   8.844   1.668   8.341  0.0852 -1.9875 -0.1887
   59BDD    C1523184   8.708   1.616   8.306 -0.7006  0.4333  1.7893
   59BDD    C1623185   8.614   1.564   8.412 -0.3141 -0.1615 -0.7408
   59BDD    C1723186   9.177   1.729   8.353  0.4443  0.6269  0.1884
   59BDD    C1823187   9.219   1.593   8.299 -0.6511 -0.8936  0.7445
   59BDD    C1923188   8.733   2.155   7.865  1.1013 -0.6430 -0.8726
   59BDD    C2023189   8.716   2.292   7.794  1.1088  0.6786 -0.4789
   59BDD    C2123190   8.837   2.348   7.719  1.7356  0.4288 -1.0466
   59BDD    C2223191   8.914   2.446   7.812 -0.2836 -0.8836  0.2656
   59BDD    C2323192   8.991   2.552   7.731 -0.3644  0.5914 -0.5787
   59BDD    C2423193   8.976   2.660   7.842  0.1822 -0.3783 -0.0161
   59BDD    C2523194   8.571   2.280   7.729  0.3059 -0.2932  0.8143
   59BDD    C2623195   8.564   2.215   7.599  0.5875 -0.0571  0.5336
   60TPM     C123196   8.566   2.518   8.340 -0.2766 -0.6917 -0.2166
   60TPM     C223197   8.535   2.565   8.216 -0.6080 -0.9855 -0.2494
   60TPM     C323198   8.440   2.674   8.217 -0.4301 -0.8289 -0.2337
   60TPM     C423199   8.399   2.709   8.342  0.0364 -0.4158 -0.1885
   60TPM     S123200   8.477   2.607   8.469  0.2898 -0.1906 -0.1625
    1BDTP    C123201   4.113   1.361   9.331 -0.4482  0.2414 -0.1438
    1BDTP    C223202   4.067   1.228   9.356 -0.2184  0.1860 -0.0138
    1BDTP    C323203   4.066   1.129   9.259 -0.1746  0.1260  0.0463
    1BDTP    C423204   4.112   1.162   9.130 -0.3663  0.1204 -0.0246
    1BDTP    C523205   4.158   1.294   9.105 -0.5962  0.1759 -0.1543
    1BDTP    C623206   4.159   1.394   9.202 -0.6399  0.2358 -0.2144
    1BDTP    C723207   4.120   1.076   9.014 -0.3642  0.0635  0.0173
    1BDTP    C823208   4.169   1.137   8.903 -0.5788  0.0734 -0.0734
    1BDTP    S123209   4.212   1.312   8.931 -0.8135  0.1563 -0.2251
    1BDTP    C923210   4.105   1.446   9.447 -0.4503  0.2984 -0.1857
    1BDTP   C1023211   4.056   1.385   9.558 -0.2358  0.2885 -0.0949
    1BDTP    S223212   4.013   1.211   9.530 -0.0011  0.2056  0.0570
    2FTM     S123213   4.108   0.888   9.427 -0.5557 -0.2513  0.6245
    2FTM     C123214   3.986   0.759   9.399 -0.1975 -0.4627 -0.0028
    2FTM     C223215   3.902   0.795   9.298 -0.0591 -0.3778 -0.0873
    2FTM     C323216   3.928   0.923   9.238 -0.2192 -0.1487  0.3209
    2FTM     C423217   4.034   0.986   9.294 -0.4891 -0.0551  0.7314
    2FTM     F123218   3.798   0.715   9.254  0.2207 -0.5024 -0.5391
    2FTM     C523219   3.989   0.622   9.476  1.7565  0.2337  1.7864
    2FTM     C623220   4.014   0.610   9.623 -0.1784  1.5777  0.4730
    2FTM     C723221   3.952   0.716   9.713 -0.4960 -0.8300  0.0746
    2FTM     C823222   4.040   0.790   9.808  1.5424 -0.9197  0.3763
    2FTM     C923223   4.184   0.838   9.776 -0.2075 -0.9132 -0.5402
    2FTM    C1023224   4.213   0.987   9.763  0.8901  0.5025  0.0134
    2FTM    C1123225   3.959   0.473   9.657 -1.4095  0.7018  0.5109
    2FTM    C1223226   4.013   0.342   9.620 -0.7931 -0.0742  1.6317
    3FTM     S123227   4.311   1.631   9.267 -0.7510  0.0536 -0.1174
    3FTM     C123228   4.353   1.731   9.124 -0.9579  0.1293 -0.1250
    3FTM     C223229   4.288   1.685   9.014 -0.6505 -0.1835 -0.1771
    3FTM     C323230   4.204   1.570   9.034 -0.2455 -0.4936 -0.2136
    3FTM     C423231   4.204   1.529   9.164 -0.2424 -0.4157 -0.1882
    3FTM     F123232   4.301   1.742   8.888 -0.7178 -0.2075 -0.1950
    3FTM     C523233   4.458   1.841   9.126  0.1525  0.6261 -0.4056
    3FTM     C623234   4.541   1.902   9.027  1.1696  0.6131  0.7864
    3FTM     C723235   4.594   2.042   9.066 -0.5118 -0.3870  1.2025
    3FTM     C823236   4.545   2.183   8.996 -0.9530  0.0535 -1.2631
    3FTM     C923237   4.401   2.216   9.019  1.2792  1.4166 -0.5562
    3FTM    C1023238   4.315   2.242   8.899 -0.0618  0.8630  0.1601
    3FTM    C1123239   4.656   1.807   8.977  0.2854 -0.7581 -0.3486
    3FTM    C1223240   4.746   1.847   8.875  0.4423 -0.4384  1.1093
    4TPM     C123241   4.048   1.432   9.701 -0.3176  0.0946 -0.9447
    4TPM     C223242   4.017   1.358   9.812 -0.1160 -0.1099 -1.0221
    4TPM     C323243   3.993   1.438   9.929  0.4299 -0.3445 -0.7451
    4TPM     C423244   4.006   1.572   9.909  0.6443 -0.3188 -0.4561
    4TPM     S123245   4.049   1.609   9.737  0.1698  0.0061 -0.5124
    5BDD     C123246   3.996   1.884  10.151  0.2995 -0.3753  0.4615
    5BDD     C223247   3.888   1.808  10.185  0.1901 -0.3359  0.2036
    5BDD     C323248   3.880   1.682  10.112  0.0693 -0.1330 -0.1428
    5BDD     C423249   3.984   1.664  10.025  0.0884 -0.0206 -0.1443
    5BDD     S123250   4.097   1.803  10.026  0.2588 -0.1610  0.2882
    5BDD     C523251   3.786   1.849  10.285  0.1926 -0.4835  0.2658
    5BDD     C623252   3.771   1.585  10.133 -0.0606 -0.0581 -0.4604
    5BDD     O123253   3.765   1.476  10.071 -0.1647  0.1169 -0.7589
    5BDD     O223254   3.793   1.957  10.347  0.2967 -0.6584  0.5648
    5BDD     C723255   3.670   1.625  10.233 -0.0582 -0.2055 -0.3979
    5BDD     C823256   3.677   1.751  10.305  0.0626 -0.4084 -0.0513
    5BDD     C923257   3.574   1.769  10.393  0.0435 -0.5209 -0.0503
    5BDD     S223258   3.461   1.630  10.392 -0.1268 -0.3805 -0.4828
    5BDD    C1023259   3.562   1.549  10.267 -0.1675 -0.1662 -0.6559
    5BDD    C1123260   3.516   1.414  10.240  0.9019 -0.7483  1.1082
    5BDD    C1223261   3.538   1.280  10.316  0.9398  0.3853 -0.2625
    5BDD    C1323262   3.650   1.263  10.429  0.1048  0.5013  0.8559
    5BDD    C1423263   3.689   1.361  10.533  0.1322 -1.3355  0.3157
    5BDD    C1523264   3.808   1.345  10.636 -2.1873 -1.5062  1.0411
    5BDD    C1623265   3.891   1.223  10.633 -1.6303  1.2837 -1.6349
    5BDD    C1723266   3.467   1.150  10.273 -0.1297 -0.1030  0.2250
    5BDD    C1823267   3.544   1.039  10.194 -0.1372  0.4082 -0.6866
    5BDD    C1923268   3.555   1.846  10.516 -0.4396  0.2985  0.8027
    5BDD    C2023269   3.442   1.956  10.525  1.2565  2.0370 -0.4068
    5BDD    C2123270   3.291   1.931  10.474  0.2030  0.9411 -0.0807
    5BDD    C2223271   3.174   1.832  10.512  0.0625  0.4822  0.3261
    5BDD    C2323272   3.155   1.844  10.665  0.9261  0.8355  0.6549
    5BDD    C2423273   3.151   1.984  10.734  0.5320  0.1898 -0.5081
    5BDD    C2523274   3.493   2.090  10.462 -0.2955  0.0895 -1.2505
    5BDD    C2623275   3.560   2.179  10.579  1.6016  0.8708  0.0001
    6TPM     C123276   4.058   2.012  10.195  0.0701  0.2705 -0.8658
    6TPM     C223277   4.077   2.034  10.328 -0.6288  0.4110 -0.7839
    6TPM     C323278   4.166   2.143  10.357 -0.9252  0.5624 -0.4251
    6TPM     C423279   4.215   2.204  10.246 -0.4521  0.5372 -0.2334
    6TPM     S123280   4.152   2.128  10.095  0.4113  0.3187 -0.4937
    7BDTP    C123281   4.702   2.612  10.246  0.2277  0.1362  0.6471
    7BDTP    C223282   4.766   2.491  10.206  0.2879  0.1708  0.6390
    7BDTP    C323283   4.698   2.370  10.197  0.3085  0.1717  0.4652
    7BDTP    C423284   4.561   2.368  10.229  0.2680  0.1369  0.2913
    7BDTP    C523285   4.498   2.489  10.269  0.2075  0.1023  0.2995
    7BDTP    C623286   4.565   2.610  10.278  0.1868  0.1015  0.4729
    7BDTP    C723287   4.471   2.255  10.227  0.2790  0.1307  0.0944
    7BDTP    C823288   4.344   2.284  10.263  0.2303  0.0937 -0.0439
    7BDTP    S123289   4.321   2.460  10.305  0.1638  0.0615  0.0556
    7BDTP    C923290   4.792   2.725  10.248  0.2165  0.1424  0.8438
    7BDTP   C1023291   4.919   2.696  10.211  0.2652  0.1794  0.9825
    7BDTP    S223292   4.942   2.520  10.170  0.3316  0.2117  0.8825
    8FTM     S123293   4.809   2.185   9.994  0.0561 -0.4506  0.0427
    8FTM     C123294   4.925   2.061  10.057  0.2617  0.2795  1.1648
    8FTM     C223295   4.927   2.065  10.193 -0.1481  1.1361  1.1630
    8FTM     C323296   4.841   2.161  10.255 -0.6350  1.2734  0.3107
    8FTM     C423297   4.771   2.234  10.164 -0.5970  0.4968 -0.3633
    8FTM     F123298   5.006   1.980  10.269 -0.1063  1.8465  1.9343
    8FTM     C523299   4.986   1.972   9.950 -0.9605  0.0504  0.1803
    8FTM     C623300   5.059   2.037   9.834 -0.4675 -0.6659  0.0108
    8FTM     C723301   5.177   2.123   9.856 -1.6022 -1.2061  0.1642
    8FTM     C823302   5.187   2.272   9.901  0.0790 -0.6700  0.1670
    8FTM     C923303   5.326   2.340   9.857  0.5088  0.2682  0.3905
    8FTM    C1023304   5.309   2.493   9.866  0.4385 -0.2734  0.5182
    8FTM    C1123305   5.100   1.927   9.728 -0.2919 -0.7218  0.9294
    8FTM    C1223306   5.056   1.950   9.578 -0.3342  0.4837  0.8968
    9FTM     S123307   4.389   2.751  10.461 -0.2047  0.4558 -0.2703
    9FTM     C123308   4.346   2.917  10.407  0.1479  0.5705 -0.2060
    9FTM     C223309   4.409   2.945  10.290  0.2214  0.4890 -0.1864
    9FTM     C323310   4.493   2.841  10.236  0.0129  0.3359 -0.2193
    9FTM     C423311   4.494   2.730  10.315 -0.2281  0.2992 -0.2660
    9FTM     F123312   4.395   3.066  10.223  0.4816  0.5478 -0.1373
    9FTM     C523313   4.274   3.031  10.489  0.7881 -0.8944 -0.3637
    9FTM     C623314   4.119   3.052  10.534  0.2742  0.5001  0.1666
    9FTM     C723315   4.120   2.998  10.675  0.4169 -0.6164 -0.7118
    9FTM     C823316   4.176   3.104  10.784  0.5574  2.2166  0.2867
    9FTM     C923317   4.287   3.064  10.885 -1.9237  0.6565 -1.3760
    9FTM    C1023318   4.406   2.980  10.845 -0.1835 -0.0003  1.4121
    9FTM    C1123319   3.996   3.004  10.443 -0.1211  0.3207  0.3092
    9FTM    C1223320   3.995   3.045  10.290 -0.3470  0.0222 -0.1510
   10TPM     C123321   5.016   2.805  10.185 -0.9150  0.3501  0.7865
   10TPM     C223322   5.153   2.801  10.187 -0.9271 -0.1205  1.1330
   10TPM     C323323   5.214   2.931  10.188 -0.4748 -0.3238  0.7083
   10TPM     C423324   5.124   3.034  10.187 -0.1178 -0.0085  0.0378
   10TPM     S123325   4.954   2.974  10.184 -0.3264  0.5744 -0.1103
   11BDD     C123326   5.349   3.327  10.332  0.0944 -0.0444 -0.1254
   11BDD     C223327   5.221   3.375  10.337  0.1006 -0.0272 -0.1292
   11BDD     C323328   5.122   3.282  10.285  0.1228  0.1040 -0.4108
   11BDD     C423329   5.176   3.164  10.241  0.1333  0.1853 -0.6173
   11BDD     S123330   5.355   3.162  10.262  0.1160  0.1028 -0.4737
   11BDD     C523331   5.184   3.508  10.390  0.0864 -0.1310  0.1259
   11BDD     C623332   4.978   3.313  10.281  0.1329  0.1442 -0.4642
   11BDD     O123333   4.893   3.232  10.236  0.1520  0.2574 -0.7069
   11BDD     O223334   5.269   3.588  10.435  0.0672 -0.2442  0.3688
   11BDD     C723335   4.941   3.446  10.334  0.1186  0.0405 -0.2089
   11BDD     C823336   5.040   3.539  10.386  0.0966 -0.0908  0.0725
   11BDD     C923337   4.986   3.656  10.429  0.0862 -0.1719  0.2794
   11BDD     S223338   4.807   3.659  10.409  0.1034 -0.0895  0.1356
   11BDD    C1023339   4.813   3.494  10.339  0.1249  0.0576 -0.2127
   11BDD    C1123340   4.682   3.427  10.309  0.2142  1.2755  0.6964
   11BDD    C1223341   4.596   3.375  10.424 -0.4626 -0.1937  0.3108
   11BDD    C1323342   4.683   3.268  10.488 -0.6793  0.1129 -1.4811
   11BDD    C1423343   4.709   3.112  10.448  1.5093  0.3489 -0.4770
   11BDD    C1523344   4.833   3.027  10.481  0.2378 -0.1290 -0.5920
   11BDD    C1623345   4.939   3.060  10.590 -1.1405 -0.0595  0.8128
   11BDD    C1723346   4.537   3.479  10.530  0.8087 -1.1166  0.9575
   11BDD    C1823347   4.424   3.421  10.622 -1.5962 -0.4014 -0.0268
   11BDD    C1923348   5.052   3.777  10.494  1.0928 -0.4197 -0.0332
   11BDD    C2023349   5.035   3.819  10.646  1.4481 -0.9573 -0.2059
   11BDD    C2123350   5.013   3.977  10.682  0.0825 -0.0874  0.5301
   11BDD    C2223351   4.924   4.058  10.586 -0.7167  0.0245  1.0473
   11BDD    C2323352   4.949   4.193  10.548 -1.3926 -0.6142 -0.5920
   11BDD    C2423353   5.101   4.245  10.545  0.6338  0.4827 -1.1167
   11BDD    C2523354   5.072   3.719  10.750 -0.4366 -0.7541  0.5318
   11BDD    C2623355   5.209   3.670  10.770 -0.8093  1.3235 -0.9169
   12TPM     C123356   5.481   3.398  10.361  0.6256  0.0738  0.1211
   12TPM     C223357   5.516   3.427  10.490  1.7858 -0.3101 -0.0887
   12TPM     C323358   5.618   3.528  10.500  1.9959 -0.4472 -0.6976
   12TPM     C423359   5.659   3.577  10.380  0.9962 -0.1678 -0.9522
   12TPM     S123360   5.573   3.497  10.243 -0.2985  0.2936 -0.4388
   13BDTP    C123361   6.033   4.057  10.224 -0.4019 -0.0081  0.6268
   13BDTP    C223362   5.993   4.006  10.097 -0.1613  0.1450  0.4869
   13BDTP    C323363   5.913   3.893  10.084  0.1482 -0.0423  0.1895
   13BDTP    C423364   5.871   3.828  10.201  0.2247 -0.3972  0.0219
   13BDTP    C523365   5.911   3.879  10.328 -0.0159 -0.5501  0.1619
   13BDTP    C623366   5.991   3.992  10.341 -0.3255 -0.3629  0.4594
   13BDTP    C723367   5.788   3.709  10.212  0.5286 -0.6433 -0.2891
   13BDTP    C823368   5.765   3.670  10.340  0.5277 -0.9694 -0.3879
   13BDTP    S123369   5.844   3.777  10.463  0.1419 -1.0107 -0.1013
   13BDTP    C923370   6.115   4.176  10.212 -0.7058  0.2379  0.9377
   13BDTP   C1023371   6.139   4.215  10.085 -0.7049  0.5641  1.0366
   13BDTP    S223372   6.060   4.108   9.961 -0.3191  0.6055  0.7499
   14FTM     S123373   6.059   3.796   9.857  0.2439  0.8974  0.2954
   14FTM     C123374   5.968   3.701   9.734  0.6741  0.7257  0.1028
   14FTM     C223375   5.837   3.691   9.771  0.7203  0.0378  0.0951
   14FTM     C323376   5.802   3.754   9.895  0.4312 -0.3874  0.2356
   14FTM     C423377   5.908   3.815   9.954  0.1545 -0.0128  0.3539
   14FTM     F123378   5.743   3.623   9.696  1.0275 -0.2475 -0.0384
   14FTM     C523379   6.031   3.634   9.614  0.2436  1.6937 -0.9510
   14FTM     C623380   6.183   3.632   9.594 -0.5829 -1.4562  0.0886
   14FTM     C723381   6.257   3.758   9.618  0.4649 -1.4204  1.5340
   14FTM     C823382   6.215   3.882   9.531  1.2289 -0.8751 -0.5426
   14FTM     C923383   6.183   3.868   9.393 -0.3363 -0.5854  1.7687
   14FTM    C1023384   6.075   3.949   9.351  0.2578 -0.8192  0.8520
   14FTM    C1123385   6.217   3.511   9.507 -1.8028  0.3885  0.1895
   14FTM    C1223386   6.368   3.462   9.522  0.9626 -0.8940  1.5657
   15FTM     S123387   6.189   4.033  10.560  0.2341  0.2279  0.4669
   15FTM     C123388   6.113   4.080  10.716 -0.3395 -0.3449  0.3647
   15FTM     C223389   5.978   4.090  10.701 -0.2944 -0.3825 -0.0699
   15FTM     C323390   5.927   4.062  10.569  0.1774  0.0221 -0.3440
   15FTM     C423391   6.027   4.030  10.482  0.5043  0.3811 -0.1108
   15FTM     F123392   5.892   4.124  10.804 -0.6777 -0.7854 -0.2460
   15FTM     C523393   6.179   4.105  10.846 -1.0029 -0.5820 -0.8744
   15FTM     C623394   6.196   3.975  10.936 -1.6217 -0.8578  1.1563
   15FTM     C723395   6.156   3.980  11.080  0.3335 -0.3153 -1.1324
   15FTM     C823396   6.231   4.094  11.159  0.2391  0.9235 -0.1047
   15FTM     C923397   6.157   4.183  11.251 -0.0250  1.5139 -0.4555
   15FTM    C1023398   6.021   4.236  11.205 -0.4402 -0.9977 -0.9416
   15FTM    C1123399   6.328   3.915  10.892 -1.1422  1.1323 -0.7089
   15FTM    C1223400   6.328   3.763  10.914 -0.1680  1.0677 -1.2605
   16TPM     C123401   6.215   4.320  10.023 -0.7914 -0.4989 -0.4185
   16TPM     C223402   6.264   4.438  10.072 -1.4207 -0.1458 -0.6180
   16TPM     C323403   6.342   4.512   9.976 -1.5198 -0.0590 -0.6320
   16TPM     C423404   6.354   4.451   9.855 -0.9658 -0.3454 -0.4432
   16TPM     S123405   6.265   4.294   9.851 -0.2708 -0.7508 -0.2316
   17BDD     C123406   6.563   4.679   9.608  0.3355 -0.1592 -0.0733
   17BDD     C223407   6.444   4.657   9.544  0.2357 -0.0569  0.0761
   17BDD     C323408   6.353   4.573   9.620  0.2108  0.1197  0.2434
   17BDD     C423409   6.404   4.532   9.740  0.2920  0.1491  0.2192
   17BDD     S123410   6.569   4.596   9.767  0.4052 -0.0420 -0.0148
   17BDD     C523411   6.410   4.712   9.411  0.1596 -0.1173  0.0706
   17BDD     C623412   6.219   4.536   9.570  0.1073  0.2526  0.4215
   17BDD     O123413   6.140   4.463   9.635  0.0859  0.4047  0.5660
   17BDD     O223414   6.489   4.784   9.346  0.1810 -0.2694 -0.0739
   17BDD     C723415   6.185   4.591   9.437  0.0310  0.1922  0.4160
   17BDD     C823416   6.276   4.675   9.362  0.0559  0.0156  0.2484
   17BDD     C923417   6.225   4.716   9.241 -0.0253 -0.0138  0.2728
   17BDD     S223418   6.060   4.652   9.215 -0.1385  0.1773  0.5070
   17BDD    C1023419   6.066   4.569   9.374 -0.0688  0.2946  0.5655
   17BDD    C1123420   5.940   4.500   9.413 -0.1239  0.1758 -0.9261
   17BDD    C1223421   5.828   4.563   9.504  0.3422 -0.9268  0.5074
   17BDD    C1323422   5.763   4.700   9.470  1.2159  0.0159 -0.9221
   17BDD    C1423423   5.823   4.824   9.412  0.6470  0.5145 -0.1781
   17BDD    C1523424   5.711   4.912   9.438  0.9560 -1.0641  0.8796
   17BDD    C1623425   5.710   5.060   9.380 -0.4142  0.6006 -1.7379
   17BDD    C1723426   5.741   4.466   9.580  0.1214 -1.0415  0.8223
   17BDD    C1823427   5.751   4.475   9.729  0.3360 -0.0699 -0.2037
   17BDD    C1923428   6.284   4.800   9.144 -0.1032 -0.4123  1.2990
   17BDD    C2023429   6.225   4.943   9.149 -0.8539  0.2380  0.5583
   17BDD    C2123430   6.212   4.993   8.996 -1.2324  0.0302  0.0678
   17BDD    C2223431   6.207   5.151   8.977  0.8322  1.9953 -0.3192
   17BDD    C2323432   6.069   5.203   9.011  0.4573  0.9361  0.2997
   17BDD    C2423433   6.059   5.355   9.009  0.8901  0.3804 -0.5069
   17BDD    C2523434   6.263   5.040   9.270 -0.7971 -0.0544  0.7236
   17BDD    C2623435   6.393   5.109   9.253 -0.6993  0.8436  0.6313
   18TPM     C123436   6.668   4.779   9.599  0.4292 -0.4229  0.6341
   18TPM     C223437   6.791   4.768   9.658  0.8693 -0.7601 -0.3066
   18TPM     C323438   6.867   4.890   9.656  1.3137 -1.0328 -1.1108
   18TPM     C423439   6.802   4.994   9.596  1.2124 -0.9039 -0.7833
   18TPM     S123440   6.639   4.945   9.537  0.5429 -0.4240  0.5767
   19BDTP    C123441   7.157   5.487   9.441  0.2158 -0.0838 -0.1833
   19BDTP    C223442   7.041   5.513   9.362  0.1959  0.1540 -0.0772
   19BDTP    C323443   6.930   5.430   9.362  0.0784  0.3096 -0.0794
   19BDTP    C423444   6.933   5.315   9.443 -0.0242  0.2270 -0.1910
   19BDTP    C523445   7.049   5.289   9.522 -0.0044 -0.0107 -0.2968
   19BDTP    C623446   7.160   5.372   9.523  0.1130 -0.1663 -0.2948
   19BDTP    C723447   6.830   5.214   9.459 -0.1544  0.3553 -0.2156
   19BDTP    C823448   6.863   5.115   9.545 -0.2322  0.2269 -0.3331
   19BDTP    S123449   7.028   5.135   9.619 -0.1514 -0.0741 -0.4296
   19BDTP    C923450   7.260   5.588   9.425  0.3458 -0.2118 -0.1588
   19BDTP   C1023451   7.228   5.687   9.339  0.4234 -0.0837 -0.0410
   19BDTP    S223452   7.062   5.667   9.266  0.3429  0.2176  0.0555
   20FTM     S123453   6.664   5.451   9.343  0.3885  0.0084  0.1088
   20FTM     C123454   6.598   5.500   9.183 -0.0587  0.4854  0.4337
   20FTM     C223455   6.699   5.510   9.093 -0.2156  1.4502  0.3469
   20FTM     C323456   6.830   5.481   9.141 -0.0027  1.8675  0.0303
   20FTM     C423457   6.830   5.448   9.273  0.3280  1.2002 -0.1310
   20FTM     F123458   6.677   5.547   8.960 -0.5614  2.0128  0.5491
   20FTM     C523459   6.458   5.482   9.149  0.1725 -0.5611 -0.7550
   20FTM     C623460   6.351   5.541   9.247 -0.4944 -0.5517  0.9080
   20FTM     C723461   6.326   5.698   9.231  0.9320 -0.2751 -0.9072
   20FTM     C823462   6.450   5.792   9.201  0.0997 -0.5168 -0.8784
   20FTM     C923463   6.481   5.892   9.333  0.6552 -0.2670  0.9847
   20FTM    C1023464   6.607   5.850   9.405  0.9503 -0.7375 -0.7229
   20FTM    C1123465   6.324   5.452   9.356  0.5004  0.4795  0.3347
   20FTM    C1223466   6.178   5.418   9.404 -0.0198  1.1034 -0.1202
   21FTM     S123467   7.325   5.175   9.680  0.0970 -0.0753  0.2968
   21FTM     C123468   7.459   5.258   9.766 -0.0204  0.0368  0.3723
   21FTM     C223469   7.461   5.390   9.733  0.0465 -0.0122  0.1736
   21FTM     C323470   7.360   5.434   9.642  0.1894 -0.1370 -0.0446
   21FTM     C423471   7.278   5.332   9.602  0.2337 -0.1848 -0.0113
   21FTM     F123472   7.553   5.480   9.785 -0.0180  0.0528  0.1771
   21FTM     C523473   7.565   5.190   9.862  0.5853 -0.9722 -0.2332
   21FTM     C623474   7.583   5.227  10.012 -0.3270 -0.7859 -1.3156
   21FTM     C723475   7.464   5.194  10.105  0.5253 -0.3862 -0.0059
   21FTM     C823476   7.439   5.039  10.100 -0.4419  1.1876 -0.6660
   21FTM     C923477   7.346   4.949  10.027 -0.2245 -0.5127 -0.6229
   21FTM    C1023478   7.321   4.825  10.114 -0.2237 -0.7774  0.3456
   21FTM    C1123479   7.626   5.371  10.036  0.3263 -0.4111 -0.3516
   21FTM    C1223480   7.674   5.426  10.175  0.9156  0.0516 -0.0065
   22TPM     C123481   7.308   5.805   9.295  0.0264 -0.0077  0.3070
   22TPM     C223482   7.437   5.838   9.326  0.2804 -0.5867 -0.1192
   22TPM     C323483   7.487   5.952   9.253  0.6385 -0.9491 -0.4542
   22TPM     C423484   7.396   6.006   9.168  0.6578 -0.6465 -0.2841
   22TPM     S123485   7.239   5.917   9.172  0.2217  0.1258  0.3175
   23BDD     C123486   7.325   6.373   9.055 -0.4549 -0.2061  0.3935
   23BDD     C223487   7.461   6.365   9.063 -0.4441 -0.0798  0.3407
   23BDD     C323488   7.509   6.231   9.092 -0.3178  0.0032  0.5167
   23BDD     C423489   7.409   6.139   9.106 -0.2345 -0.0612  0.7011
   23BDD     S123490   7.248   6.213   9.083 -0.3080 -0.2300  0.6669
   23BDD     C523491   7.552   6.480   9.044 -0.5493 -0.0305  0.1264
   23BDD     C623492   7.653   6.199   9.105 -0.2846  0.1434  0.4957
   23BDD     O123493   7.695   6.084   9.130 -0.1758  0.2148  0.6478
   23BDD     O223494   7.511   6.595   9.019 -0.6580 -0.1020 -0.0253
   23BDD     C723495   7.744   6.314   9.086 -0.3898  0.1926  0.2818
   23BDD     C823496   7.696   6.448   9.057 -0.5161  0.1096  0.1056
   23BDD     C923497   7.796   6.540   9.043 -0.5996  0.1740 -0.0789
   23BDD     S223498   7.958   6.465   9.066 -0.5260  0.3427 -0.0446
   23BDD    C1023499   7.880   6.306   9.094 -0.3790  0.3190  0.2289
   23BDD    C1123500   7.987   6.197   9.149 -0.6132 -0.1079  1.3047
   23BDD    C1223501   7.992   6.157   9.294  0.2489 -0.1903 -0.0163
   23BDD    C1323502   8.056   6.013   9.328  0.7928  1.2711 -0.4514
   23BDD    C1423503   8.033   5.894   9.238  0.4879  0.0843 -1.5419
   23BDD    C1523504   7.915   5.809   9.299 -0.4600 -0.4416 -0.2480
   23BDD    C1623505   7.772   5.804   9.244 -2.2529  0.3488  1.8866
   23BDD    C1723506   8.021   6.275   9.390  0.4378 -1.2325 -0.0308
   23BDD    C1823507   8.085   6.258   9.519  0.4092  0.3894 -0.8431
   23BDD    C1923508   7.795   6.689   9.031  0.1945  0.1611  1.0012
   23BDD    C2023509   7.757   6.759   9.157  0.1887  0.0491  0.2415
   23BDD    C2123510   7.733   6.907   9.118 -0.0249 -1.0157 -0.4407
   23BDD    C2223511   7.847   7.000   9.122 -0.5948  1.1861 -0.0182
   23BDD    C2323512   7.852   7.093   9.243  0.0184  1.0638 -0.9286
   23BDD    C2423513   7.733   7.182   9.251  0.0982 -0.7876  0.1276
   23BDD    C2523514   7.843   6.713   9.283 -0.0546  0.2436 -0.9173
   23BDD    C2623515   7.789   6.607   9.388 -0.3583  0.5452 -0.0100
   24TPM     C123516   7.220   6.476   9.041  0.0503 -0.2036 -0.5832
   24TPM     C223517   7.197   6.557   8.934 -0.5873 -0.8558 -0.9525
   24TPM     C323518   7.077   6.635   8.944 -0.8184 -1.2016 -0.9761
   24TPM     C423519   7.008   6.615   9.060 -0.3568 -0.8133 -0.6247
   24TPM     S123520   7.090   6.494   9.166  0.4110  0.0259 -0.2337
   25BDTP    C123521   6.442   6.861   9.186  0.2884 -0.1340  0.0052
   25BDTP    C223522   6.483   6.809   9.312  0.1187 -0.1287  0.0625
   25BDTP    C323523   6.606   6.747   9.331  0.0411 -0.2388  0.2017
   25BDTP    C423524   6.692   6.734   9.221  0.1353 -0.3598  0.2875
   25BDTP    C523525   6.651   6.786   9.095  0.3048 -0.3650  0.2301
   25BDTP    C623526   6.529   6.849   9.075  0.3822 -0.2550  0.0918
   25BDTP    C723527   6.824   6.674   9.217  0.0820 -0.4868  0.4342
   25BDTP    C823528   6.883   6.677   9.095  0.2017 -0.5857  0.4892
   25BDTP    S123529   6.780   6.758   8.968  0.3990 -0.5322  0.3629
   25BDTP    C923530   6.311   6.921   9.190  0.3415 -0.0070 -0.1411
   25BDTP   C1023531   6.252   6.918   9.312  0.2218  0.0919 -0.1962
   25BDTP    S223532   6.354   6.837   9.438  0.0244  0.0384 -0.0696
   26FTM     S123533   6.641   6.511   9.507 -0.1686 -0.2700 -0.0068
   26FTM     C123534   6.729   6.549   9.660 -0.0524 -0.2988 -0.0666
   26FTM     C223535   6.752   6.682   9.668  0.6198 -0.3830 -0.4194
   26FTM     C323536   6.704   6.762   9.559  1.0742 -0.4293 -0.6595
   26FTM     C423537   6.642   6.686   9.464  0.7392 -0.3788 -0.4843
   26FTM     F123538   6.818   6.741   9.775  0.8633 -0.4232 -0.5465
   26FTM     C523539   6.787   6.449   9.752  0.1645  0.7684  0.0467
   26FTM     C623540   6.856   6.311   9.736 -0.9706 -0.8817 -0.2161
   26FTM     C723541   6.772   6.211   9.669 -0.5543 -0.4673  0.8667
   26FTM     C823542   6.655   6.163   9.754 -1.1137 -0.3824  0.3663
   26FTM     C923543   6.650   6.018   9.722 -1.0606  0.1733 -1.8758
   26FTM    C1023544   6.528   5.947   9.785  0.6003 -2.0017  0.7887
   26FTM    C1123545   7.006   6.316   9.691 -0.8481 -0.7067  1.0420
   26FTM    C1223546   7.057   6.349   9.547 -0.7060 -0.1509 -0.3278
   27FTM     S123547   6.542   7.069   8.894 -0.2469  0.0828  0.0734
   27FTM     C123548   6.493   7.035   8.724  0.4112 -0.1978 -0.0617
   27FTM     C223549   6.460   6.904   8.711  0.8802 -0.3197 -0.0815
   27FTM     C323550   6.469   6.824   8.830  0.7594 -0.2054  0.0055
   27FTM     C423551   6.511   6.897   8.937  0.1789  0.0113  0.0944
   27FTM     F123552   6.419   6.848   8.591  1.4468 -0.5424 -0.1791
   27FTM     C523553   6.520   7.150   8.619 -0.7931  0.3444 -0.3287
   27FTM     C623554   6.459   7.152   8.478  0.4998 -0.3213  3.0612
   27FTM     C723555   6.450   7.028   8.382 -0.8532 -0.1367  0.3957
   27FTM     C823556   6.581   6.968   8.345 -0.9660  1.1687  1.6074
   27FTM     C923557   6.606   6.827   8.392  0.1327  0.0950  0.0200
   27FTM    C1023558   6.533   6.713   8.314  0.7233 -0.2175 -0.7280
   27FTM    C1123559   6.385   7.271   8.417  1.1845 -0.3489  0.0993
   27FTM    C1223560   6.468   7.390   8.369 -0.2567 -0.0237 -0.5314
   28TPM     C123561   6.146   6.993   9.364 -0.1753  0.1123 -0.7060
   28TPM     C223562   6.151   7.093   9.456 -0.1736 -0.2364 -0.3214
   28TPM     C323563   6.022   7.152   9.484 -0.2508 -0.6717  0.2799
   28TPM     C423564   5.920   7.096   9.413 -0.3118 -0.6548  0.3542
   28TPM     S123565   5.978   6.964   9.305 -0.2758 -0.0834 -0.3354
   29BDD     C123566   5.546   7.106   9.514 -0.1329  0.1372  0.4421
   29BDD     C223567   5.586   7.236   9.519 -0.0526  0.1185  0.2978
   29BDD     C323568   5.727   7.254   9.489 -0.0987  0.0273  0.0207
   29BDD     C423569   5.792   7.137   9.462 -0.2136 -0.0222 -0.0423
   29BDD     S123570   5.682   6.996   9.471 -0.2719  0.0420  0.2406
   29BDD     C523571   5.497   7.349   9.552  0.0694  0.1838  0.4094
   29BDD     C623572   5.792   7.387   9.489 -0.0273 -0.0073 -0.1712
   29BDD     O123573   5.913   7.403   9.463 -0.0672 -0.0859 -0.4098
   29BDD     O223574   5.375   7.333   9.578  0.1093  0.2625  0.6480
   29BDD     C723575   5.702   7.500   9.521  0.0948  0.0578 -0.0594
   29BDD     C823576   5.561   7.482   9.552  0.1409  0.1490  0.2174
   29BDD     C923577   5.496   7.599   9.579  0.2558  0.1986  0.2804
   29BDD     S223578   5.607   7.740   9.569  0.3142  0.1345 -0.0025
   29BDD    C1023579   5.743   7.631   9.526  0.1751  0.0392 -0.2036
   29BDD    C1123580   5.877   7.688   9.495  1.2416 -0.5957 -0.9156
   29BDD    C1223581   5.958   7.774   9.585  0.8142 -0.2464 -0.6484
   29BDD    C1323582   6.072   7.840   9.506 -0.3400  0.0927  0.6551
   29BDD    C1423583   6.058   7.983   9.487 -0.8699 -0.8567  0.1232
   29BDD    C1523584   6.143   8.076   9.582 -1.3831  0.2110 -0.8321
   29BDD    C1623585   6.250   8.023   9.684  0.5987  1.8645  0.6337
   29BDD    C1723586   5.980   7.742   9.742 -0.3333 -0.8624 -0.5618
   29BDD    C1823587   6.111   7.660   9.760 -1.3579 -0.4996 -0.7386
   29BDD    C1923588   5.352   7.636   9.622  0.1063  1.1892 -0.8837
   29BDD    C2023589   5.294   7.572   9.755 -1.1448 -1.2741  0.2539
   29BDD    C2123590   5.383   7.493   9.853 -1.0870  0.1223  1.7202
   29BDD    C2223591   5.487   7.566   9.932  0.4697 -0.6563  1.1914
   29BDD    C2323592   5.542   7.508  10.069 -0.3242 -0.3067  0.3334
   29BDD    C2423593   5.637   7.386  10.059 -1.6326  0.5263 -1.4939
   29BDD    C2523594   5.179   7.647   9.841  0.6661  1.6527  0.5422
   29BDD    C2623595   5.081   7.752   9.770 -0.6445 -0.2851  0.0322
   30TPM     C123596   5.428   7.044   9.569 -0.3074 -0.2746 -0.4313
   30TPM     C223597   5.419   7.007   9.700 -0.4767  0.4268 -0.2372
   30TPM     C323598   5.284   6.998   9.749 -0.5280  1.1466 -0.2189
   30TPM     C423599   5.190   7.027   9.655 -0.3977  0.9939 -0.3989
   30TPM     S123600   5.265   7.070   9.496 -0.1987 -0.0787 -0.6071
   31BDTP    C123601   4.601   7.178   9.812  0.1868 -0.0606 -0.1907
   31BDTP    C223602   4.589   7.158   9.672  0.1351 -0.0720 -0.1843
   31BDTP    C323603   4.694   7.114   9.593  0.1036 -0.0871 -0.2184
   31BDTP    C423604   4.818   7.089   9.655  0.1239 -0.0911 -0.2604
   31BDTP    C523605   4.830   7.109   9.796  0.1756 -0.0795 -0.2663
   31BDTP    C623606   4.725   7.153   9.875  0.2072 -0.0644 -0.2327
   31BDTP    C723607   4.941   7.042   9.594  0.0987 -0.1058 -0.2999
   31BDTP    C823608   5.044   7.027   9.681  0.1286 -0.1060 -0.3357
   31BDTP    S123609   4.999   7.070   9.852  0.1930 -0.0873 -0.3233
   31BDTP    C923610   4.478   7.225   9.873  0.2121 -0.0457 -0.1507
   31BDTP   C1023611   4.375   7.239   9.786  0.1820 -0.0455 -0.1152
   31BDTP    S223612   4.420   7.197   9.615  0.1176 -0.0642 -0.1276
   32FTM     S123613   4.781   7.226   9.348 -0.5333  0.1273  0.5812
   32FTM     C123614   4.708   7.152   9.201  0.4273 -0.2883  0.2968
   32FTM     C223615   4.625   7.050   9.237  1.2212 -1.0812 -0.0527
   32FTM     C323616   4.614   7.024   9.377  1.1328 -1.4062 -0.1197
   32FTM     C423617   4.690   7.108   9.451  0.2426 -0.8435  0.1891
   32FTM     F123618   4.555   6.974   9.144  2.0750 -1.5602 -0.3333
   32FTM     C523619   4.720   7.242   9.071  0.1521  1.2426  0.9094
   32FTM     C623620   4.613   7.318   8.982 -0.2272 -0.9793  1.1624
   32FTM     C723621   4.515   7.389   9.061 -0.2135 -0.9005  0.7607
   32FTM     C823622   4.557   7.501   9.148 -0.8519 -0.8265 -0.4539
   32FTM     C923623   4.482   7.509   9.278  0.7471 -0.2220 -0.5703
   32FTM    C1023624   4.346   7.577   9.303  0.9634  0.7289 -1.0031
   32FTM    C1123625   4.538   7.216   8.909  0.9650  0.4699  0.2459
   32FTM    C1223626   4.598   7.142   8.791 -0.1457 -0.6728  0.1739
   33FTM     S123627   4.697   7.299  10.133  0.5195  0.1011  0.3206
   33FTM     C123628   4.696   7.190  10.275  0.4989 -0.2410  0.0596
   33FTM     C223629   4.718   7.061  10.235  0.0037 -0.2198 -0.2992
   33FTM     C323630   4.736   7.042  10.094 -0.3806  0.0569 -0.3908
   33FTM     C423631   4.728   7.158  10.024 -0.1731  0.2543 -0.0925
   33FTM     F123632   4.724   6.955  10.324 -0.1311 -0.4500 -0.5660
   33FTM     C523633   4.680   7.241  10.419 -0.2800  0.1076  0.4418
   33FTM     C623634   4.541   7.262  10.474  0.0576  1.6555  1.7358
   33FTM     C723635   4.511   7.307  10.604  0.4886 -0.7227  0.7464
   33FTM     C823636   4.579   7.247  10.726  0.7299 -0.1710  0.2543
   33FTM     C923637   4.528   7.274  10.864 -0.4810 -0.1804 -0.6251
   33FTM    C1023638   4.640   7.230  10.951  0.5547  0.1331  0.1641
   33FTM    C1123639   4.442   7.333  10.389  1.1888 -0.7056  0.5249
   33FTM    C1223640   4.290   7.289  10.397 -1.2327 -0.8800  0.2821
   34TPM     C123641   4.241   7.280   9.811 -0.5630 -1.4477  0.0228
   34TPM     C223642   4.142   7.305   9.722 -0.7476 -2.1586  0.0165
   34TPM     C323643   4.019   7.350   9.783 -0.5795 -1.5433 -0.0837
   34TPM     C423644   4.025   7.359   9.918 -0.2666 -0.3630 -0.1540
   34TPM     S123645   4.188   7.311   9.981 -0.1594  0.0662 -0.0988
   35BDD     C123646   3.810   7.530  10.208 -0.0851  0.3715  0.0444
   35BDD     C223647   3.718   7.500  10.111 -0.1208  0.3356  0.0892
   35BDD     C323648   3.777   7.442   9.992 -0.1971  0.0286  0.1998
   35BDD     C423649   3.913   7.428  10.000 -0.2184 -0.1649  0.2380
   35BDD     S123650   3.976   7.487  10.157 -0.1444  0.0238  0.1378
   35BDD     C523651   3.573   7.524  10.124 -0.0862  0.5820  0.0317
   35BDD     C623652   3.697   7.402   9.875 -0.2461 -0.0614  0.2637
   35BDD     O123653   3.748   7.352   9.772 -0.3119 -0.3260  0.3588
   35BDD     O223654   3.522   7.574  10.227 -0.0204  0.8467 -0.0634
   35BDD     C723655   3.552   7.426   9.888 -0.2115  0.1849  0.2065
   35BDD     C823656   3.493   7.484  10.007 -0.1352  0.4917  0.0961
   35BDD     C923657   3.357   7.498   9.999 -0.1139  0.6855  0.0582
   35BDD     S223658   3.294   7.439   9.841 -0.1879  0.4966  0.1580
   35BDD    C1023659   3.460   7.396   9.791 -0.2472  0.1490  0.2515
   35BDD    C1123660   3.481   7.364   9.648  0.3886  0.7753  0.6313
   35BDD    C1223661   3.456   7.472   9.546 -0.2347  0.2733 -0.9469
   35BDD    C1323662   3.575   7.562   9.533  0.2099 -0.2195  0.7774
   35BDD    C1423663   3.565   7.720   9.512 -1.0472 -0.5477  1.1729
   35BDD    C1523664   3.526   7.788   9.634 -0.7792 -0.5870  0.4426
   35BDD    C1623665   3.518   7.945   9.655  0.0691  0.2731 -0.4240
   35BDD    C1723666   3.426   7.390   9.427  1.9353  1.0237  0.9057
   35BDD    C1823667   3.380   7.452   9.308  0.1696 -0.0842  0.2810
   35BDD    C1923668   3.243   7.539  10.088  1.9142  0.8186 -0.3833
   35BDD    C2023669   3.163   7.671  10.067  1.0981  0.2632  0.6513
   35BDD    C2123670   3.042   7.634  10.178 -0.0624  0.1115 -0.4424
   35BDD    C2223671   3.051   7.696  10.329 -0.9953  0.3045  0.3125
   35BDD    C2323672   2.939   7.694  10.425  0.3481  0.4334  0.0477
   35BDD    C2423673   2.945   7.805  10.535  0.0331 -0.5153  1.1590
   35BDD    C2523674   3.241   7.802  10.071  1.4169  1.1910  0.7613
   35BDD    C2623675   3.375   7.819  10.133 -0.2757  0.1354  0.8836
   36TPM     C123676   3.803   7.606  10.337  0.8461  0.0614  0.6609
   36TPM     C223677   3.884   7.708  10.379  1.2457 -0.3860  0.9906
   36TPM     C323678   3.869   7.740  10.519  0.7965 -0.2612  0.9179
   36TPM     C423679   3.777   7.663  10.583  0.0544  0.2816  0.5331
   36TPM     S123680   3.701   7.543  10.472 -0.1361  0.6801  0.2306
   37BDTP    C123681   3.555   7.686  11.176  0.2421  0.0736 -0.0138
   37BDTP    C223682   3.523   7.554  11.133  0.0235  0.1650 -0.1373
   37BDTP    C323683   3.555   7.507  11.007 -0.0933  0.2447 -0.1962
   37BDTP    C423684   3.620   7.594  10.918  0.0101  0.2340 -0.1304
   37BDTP    C523685   3.652   7.727  10.961  0.2287  0.1425 -0.0072
   37BDTP    C623686   3.621   7.774  11.088  0.3455  0.0626  0.0518
   37BDTP    C723687   3.663   7.568  10.782 -0.0779  0.3061 -0.1720
   37BDTP    C823688   3.724   7.673  10.722  0.0623  0.2733 -0.0870
   37BDTP    S123689   3.737   7.819  10.829  0.3256  0.1469  0.0575
   37BDTP    C923690   3.512   7.713  11.312  0.3300  0.0015  0.0277
   37BDTP   C1023691   3.451   7.608  11.373  0.1898  0.0341 -0.0572
   37BDTP    S223692   3.439   7.462  11.266 -0.0734  0.1605 -0.2021
   38FTM     S123693   3.392   7.252  11.014 -0.3168 -0.1393 -0.0991
   38FTM     C123694   3.468   7.122  10.915  0.0621  0.2353 -0.3075
   38FTM     C223695   3.588   7.164  10.868  0.1035  0.5308  0.0532
   38FTM     C323696   3.628   7.297  10.906 -0.1507  0.4851  0.5021
   38FTM     C423697   3.535   7.359  10.984 -0.3948  0.1434  0.4852
   38FTM     F123698   3.670   7.085  10.789  0.3741  0.8603 -0.0021
   38FTM     C523699   3.419   6.979  10.924 -0.8957  0.5000 -0.7137
   38FTM     C623700   3.333   6.900  10.827 -0.1267  2.2952 -1.1858
   38FTM     C723701   3.290   6.753  10.875 -0.9510 -1.2823 -0.1016
   38FTM     C823702   3.414   6.654  10.888  1.0443 -0.3247  0.8251
   38FTM     C923703   3.470   6.651  11.033  0.3735  0.4329  1.7124
   38FTM    C1023704   3.609   6.596  11.023  0.3731  0.5549 -2.6680
   38FTM    C1123705   3.389   6.897  10.686  0.2142 -1.0400  0.8610
   38FTM    C1223706   3.358   6.799  10.578  0.7752 -0.7079 -0.6805
   39FTM     S123707   3.841   7.964  11.125  0.0764  0.6994  0.1965
   39FTM     C123708   3.782   8.132  11.154  0.0507  0.7332 -0.0463
   39FTM     C223709   3.647   8.132  11.170  0.0758  0.7064  0.1674
   39FTM     C323710   3.583   8.004  11.161  0.1156  0.6592  0.5240
   39FTM     C423711   3.671   7.903  11.137  0.1212  0.6492  0.5858
   39FTM     F123712   3.574   8.247  11.194  0.0643  0.7231  0.0527
   39FTM     C523713   3.868   8.245  11.156  0.1979 -0.1155 -1.0151
   39FTM     C623714   3.848   8.374  11.082 -0.1810 -0.3152 -0.1022
   39FTM     C723715   3.949   8.472  11.089  0.1753 -0.5917  0.0741
   39FTM     C823716   3.912   8.590  11.174  0.4658  0.1048 -0.0070
   39FTM     C923717   4.017   8.635  11.281  1.0681 -0.5685  0.3055
   39FTM    C1023718   3.990   8.761  11.363 -0.1324 -0.4111 -0.9683
   39FTM    C1123719   3.833   8.326  10.934 -0.3351 -1.1569 -1.2444
   39FTM    C1223720   3.816   8.415  10.817 -0.7910  0.5741  0.2099
   40TPM     C123721   3.414   7.593  11.512 -0.3974 -0.5166  0.5829
   40TPM     C223722   3.319   7.513  11.568 -0.2061 -0.1760  1.4196
   40TPM     C323723   3.307   7.528  11.711  0.3476  0.6564  1.3879
   40TPM     C423724   3.393   7.621  11.763  0.5786  0.9504  0.5269
   40TPM     S123725   3.496   7.695  11.636  0.1109  0.1926 -0.3170
   41BDD     C123726   3.560   7.558  12.104 -0.2137 -0.5222  0.0410
   41BDD     C223727   3.427   7.562  12.135 -0.2100 -0.4710  0.0506
   41BDD     C323728   3.341   7.586  12.020 -0.2003 -0.3045  0.0779
   41BDD     C423729   3.411   7.601  11.903 -0.1968 -0.2313  0.0888
   41BDD     S123730   3.587   7.585  11.929 -0.2052 -0.3657  0.0656
   41BDD     C523731   3.373   7.544  12.271 -0.2153 -0.5730  0.0349
   41BDD     C623732   3.194   7.594  12.030 -0.1950 -0.2240  0.0923
   41BDD     O123733   3.121   7.615  11.931 -0.1866 -0.0803  0.1159
   41BDD     O223734   3.446   7.523  12.371 -0.2236 -0.7166  0.0113
   41BDD     C723735   3.140   7.576  12.167 -0.2003 -0.3260  0.0766
   41BDD     C823736   3.226   7.552  12.282 -0.2099 -0.4927  0.0492
   41BDD     C923737   3.156   7.538  12.399 -0.2134 -0.5658  0.0383
   41BDD     S223738   2.980   7.554  12.373 -0.2050 -0.4312  0.0616
   41BDD    C1023739   3.007   7.580  12.198 -0.1965 -0.2747  0.0861
   41BDD    C1123740   2.868   7.620  12.137  0.6032  0.1418 -0.7058
   41BDD    C1223741   2.844   7.752  12.081  0.1232 -0.6739 -0.3345
   41BDD    C1323742   2.899   7.805  11.947 -0.8415 -0.8869 -0.4051
   41BDD    C1423743   2.858   7.739  11.817 -0.9518  0.6509 -0.3268
   41BDD    C1523744   2.939   7.793  11.691  0.0495 -1.9730  0.4731
   41BDD    C1623745   2.857   7.765  11.559 -0.0602 -0.5325 -1.0109
   41BDD    C1723746   2.804   7.849  12.198 -0.6096  0.1577 -0.2953
   41BDD    C1823747   2.739   7.974  12.148  0.0598  0.0635  0.1322
   41BDD    C1923748   3.202   7.566  12.537 -0.2752  0.6105 -0.2471
   41BDD    C2023749   3.167   7.703  12.602  1.6853 -0.6192 -0.0349
   41BDD    C2123750   3.247   7.746  12.726  1.4746 -0.9275 -0.5109
   41BDD    C2223751   3.370   7.837  12.736 -0.1794 -0.5875 -0.4797
   41BDD    C2323752   3.483   7.784  12.651  0.9173  0.7383  0.2174
   41BDD    C2423753   3.602   7.708  12.695  0.9273 -1.6519 -1.2162
   41BDD    C2523754   3.080   7.804  12.517 -1.0761 -1.0559  0.6533
   41BDD    C2623755   2.989   7.888  12.598  0.2511 -0.6920 -0.7129
   42TPM     C123756   3.688   7.549  12.176 -0.0903 -0.2083 -0.3942
   42TPM     C223757   3.771   7.449  12.136  0.4453  0.3566 -0.7333
   42TPM     C323758   3.889   7.436  12.217  0.4774  0.6576 -0.7289
   42TPM     C423759   3.896   7.526  12.319 -0.0340  0.3222 -0.3866
   42TPM     S123760   3.753   7.636  12.320 -0.5998 -0.4054 -0.0404
   43BDTP    C123761   4.423   7.703  12.630  0.0130 -0.0633 -0.0763
   43BDTP    C223762   4.449   7.568  12.592  0.0187 -0.0889  0.0185
   43BDTP    C323763   4.358   7.491  12.522 -0.0021 -0.1625  0.1262
   43BDTP    C423764   4.235   7.549  12.487 -0.0303 -0.2130  0.1414
   43BDTP    C523765   4.208   7.684  12.525 -0.0360 -0.1870  0.0465
   43BDTP    C623766   4.300   7.761  12.595 -0.0151 -0.1137 -0.0611
   43BDTP    C723767   4.124   7.489  12.415 -0.0552 -0.2915  0.2447
   43BDTP    C823768   4.018   7.570  12.397 -0.0794 -0.3253  0.2323
   43BDTP    S123769   4.042   7.736  12.469 -0.0737 -0.2627  0.0878
   43BDTP    C923770   4.533   7.763  12.702  0.0381  0.0153 -0.1797
   43BDTP   C1023771   4.640   7.681  12.720  0.0623  0.0492 -0.1672
   43BDTP    S223772   4.615   7.516  12.648  0.0563 -0.0134 -0.0227
   44FTM     S123773   4.280   7.228  12.493 -0.2370  0.3093 -0.5106
   44FTM     C123774   4.376   7.115  12.391  0.6513 -0.1966  0.8306
   44FTM     C223775   4.486   7.178  12.342  0.9128 -0.3486  1.2099
   44FTM     C323776   4.502   7.316  12.380  0.4498 -0.0870  0.4979
   44FTM     C423777   4.401   7.359  12.460 -0.1874  0.2769 -0.4578
   44FTM     F123778   4.579   7.116  12.260  1.5872 -0.7331  2.2243
   44FTM     C523779   4.318   6.968  12.358  0.1563 -0.6417 -1.0082
   44FTM     C623780   4.385   6.855  12.435  0.5038  0.2012  0.3745
   44FTM     C723781   4.408   6.715  12.347  0.4555 -0.0956  0.0793
   44FTM     C823782   4.301   6.637  12.298  0.3790  0.0810  0.4830
   44FTM     C923783   4.213   6.549  12.394  0.1656  0.9715  0.2413
   44FTM    C1023784   4.134   6.447  12.304  0.6309 -1.0019  0.2109
   44FTM    C1123785   4.364   6.821  12.587  0.1510 -1.1422 -1.0999
   44FTM    C1223786   4.429   6.921  12.696  0.7226  0.4686 -0.6554
   45FTM     S123787   4.135   7.894  12.775  0.4564 -0.0548 -0.0581
   45FTM     C123788   4.169   8.067  12.812 -0.4050  0.1915 -0.3545
   45FTM     C223789   4.276   8.109  12.738 -0.5889  0.5853 -0.3977
   45FTM     C323790   4.335   8.012  12.651 -0.0839  0.7167 -0.2076
   45FTM     C423791   4.272   7.892  12.658  0.5064  0.4132 -0.0124
   45FTM     F123792   4.325   8.239  12.745 -1.2259  0.8504 -0.6120
   45FTM     C523793   4.089   8.135  12.914 -0.0996  0.3858 -0.2432
   45FTM     C623794   4.079   8.043  13.031  1.8041  1.4610  0.9137
   45FTM     C723795   3.952   7.942  13.051  0.9601 -0.6182 -0.4693
   45FTM     C823796   3.871   7.904  12.929 -0.6180  0.8242 -0.3350
   45FTM     C923797   3.719   7.906  12.941 -0.9133 -0.1294 -0.5853
   45FTM    C1023798   3.676   8.038  13.001  0.4283 -0.6492  0.9742
   45FTM    C1123799   4.125   8.074  13.172 -1.0846  0.3441  0.3705
   45FTM    C1223800   4.262   8.139  13.209  0.1740 -0.3372 -1.2015
   46TPM     C123801   4.760   7.702  12.797  0.3124 -0.8352 -1.0242
   46TPM     C223802   4.821   7.823  12.812  0.2588 -0.7651 -1.3714
   46TPM     C323803   4.910   7.830  12.924 -0.0836 -0.2637 -1.1238
   46TPM     C423804   4.917   7.714  12.996 -0.2908  0.0487 -0.5878
   46TPM     S123805   4.810   7.586  12.926 -0.0683 -0.2690 -0.3524
   47BDD     C123806   5.148   7.542  13.276 -0.0649  0.0338  0.2120
   47BDD     C223807   5.115   7.663  13.329 -0.0026  0.0726  0.1623
   47BDD     C323808   5.028   7.742  13.245 -0.1936 -0.0359  0.2570
   47BDD     C423809   4.995   7.680  13.127 -0.3985 -0.1559  0.3776
   47BDD     S123810   5.071   7.518  13.115 -0.3668 -0.1411  0.3808
   47BDD     C523811   5.164   7.711  13.461  0.2346  0.2108  0.0259
   47BDD     C623812   4.980   7.877  13.283 -0.1657 -0.0167  0.2245
   47BDD     O123813   4.904   7.945  13.210 -0.3303 -0.1104  0.3062
   47BDD     O223814   5.239   7.643  13.534  0.3994  0.3043 -0.0558
   47BDD     C723815   5.028   7.925  13.414  0.0716  0.1214  0.0881
   47BDD     C823816   5.116   7.846  13.499  0.2626  0.2298 -0.0067
   47BDD     C923817   5.149   7.908  13.616  0.4678  0.3499 -0.1273
   47BDD     S223818   5.073   8.070  13.628  0.4358  0.3353 -0.1305
   47BDD    C1023819   4.996   8.046  13.468  0.1340  0.1602  0.0383
   47BDD    C1123820   4.921   8.169  13.424 -0.0940 -0.8693 -0.7356
   47BDD    C1223821   4.821   8.234  13.519  1.0713  0.5102  1.2679
   47BDD    C1323822   4.724   8.130  13.601 -1.0487 -0.4494  0.6232
   47BDD    C1423823   4.691   8.151  13.745  0.0135  0.0995  0.3400
   47BDD    C1523824   4.585   8.055  13.805 -0.2289  0.7858  0.1332
   47BDD    C1623825   4.488   8.126  13.889  0.4418 -0.4941 -0.7967
   47BDD    C1723826   4.773   8.378  13.471 -0.2625  0.3637  0.3405
   47BDD    C1823827   4.723   8.446  13.597  0.5259  0.2313 -0.3110
   47BDD    C1923828   5.228   7.865  13.730 -0.7500  1.0661 -0.9634
   47BDD    C2023829   5.147   7.801  13.864 -0.6267 -0.8705 -0.5016
   47BDD    C2123830   5.040   7.680  13.823 -0.6403 -0.9891 -0.2426
   47BDD    C2223831   4.973   7.597  13.934 -0.8369  0.9046 -1.3422
   47BDD    C2323832   4.936   7.458  13.915 -0.3586  0.4470  1.2588
   47BDD    C2423833   4.908   7.407  13.778  0.8960  0.7194 -0.0270
   47BDD    C2523834   5.240   7.767  13.987  0.2484 -0.7354 -0.1244
   47BDD    C2623835   5.340   7.884  14.032  0.9809  1.3702 -1.2344
   48TPM     C123836   5.263   7.447  13.302  0.2706 -0.7531 -0.7573
   48TPM     C223837   5.387   7.482  13.258  0.4748 -1.0629 -0.4385
   48TPM     C323838   5.493   7.402  13.313  0.2147 -0.7987  0.4858
   48TPM     C423839   5.449   7.305  13.399 -0.1880 -0.2873  0.8717
   48TPM     S123840   5.270   7.308  13.417 -0.2705 -0.0985  0.0916
   49BDTP    C123841   5.705   6.762  13.596  0.1421  0.0949  0.4031
   49BDTP    C223842   5.780   6.784  13.476  0.0776 -0.1419  0.3171
   49BDTP    C323843   5.759   6.894  13.394  0.0021 -0.3276  0.0852
   49BDTP    C423844   5.659   6.986  13.432 -0.0105 -0.2781 -0.0693
   49BDTP    C523845   5.585   6.964  13.551  0.0540 -0.0412  0.0166
   49BDTP    C623846   5.606   6.854  13.633  0.1295  0.1445  0.2484
   49BDTP    C723847   5.619   7.107  13.363 -0.0833 -0.4414 -0.3166
   49BDTP    C823848   5.520   7.176  13.424 -0.0769 -0.3397 -0.4190
   49BDTP    S123849   5.462   7.097  13.577  0.0224 -0.0232 -0.2168
   49BDTP    C923850   5.745   6.641  13.665  0.2149  0.2581  0.6502
   49BDTP   C1023851   5.845   6.572  13.604  0.2085  0.1566  0.7527
   49BDTP    S223852   5.902   6.651  13.450  0.1092 -0.1600  0.5505
   50FTM     S123853   5.796   6.986  13.128 -0.4534  0.2148  0.1980
   50FTM     C123854   5.966   7.001  13.072 -0.5180 -0.2934 -0.1472
   50FTM     C223855   6.051   6.972  13.173 -0.3949 -0.7128 -0.3655
   50FTM     C323856   5.990   6.937  13.299 -0.2464 -0.6655 -0.2797
   50FTM     C423857   5.854   6.939  13.292 -0.2562 -0.1948  0.0139
   50FTM     F123858   6.189   6.975  13.160 -0.4091 -1.1642 -0.6560
   50FTM     C523859   6.004   7.044  12.944 -0.5413 -0.2926  0.5896
   50FTM     C623860   6.036   6.952  12.827  0.1640  0.2638 -0.0891
   50FTM     C723861   5.926   6.858  12.774  0.5063 -0.4612  0.2838
   50FTM     C823862   5.780   6.925  12.748 -1.3406  0.0946 -0.9275
   50FTM     C923863   5.691   6.849  12.652  0.3063  0.1772  0.7838
   50FTM    C1023864   5.721   6.841  12.505  0.0909  0.0187 -0.0569
   50FTM    C1123865   6.184   6.934  12.772  0.5727 -0.3241 -0.1681
   50FTM    C1223866   6.267   6.807  12.760 -0.6848  0.9462 -0.8585
   51FTM     S123867   5.556   6.941  13.904  0.1172 -0.2279  0.1001
   51FTM     C123868   5.394   6.889  13.966 -0.3639  0.3028 -0.6715
   51FTM     C223869   5.333   6.810  13.874 -0.7131  1.4545 -1.4736
   51FTM     C323870   5.405   6.785  13.753 -0.6300  1.9815 -1.5356
   51FTM     C423871   5.526   6.848  13.752 -0.2030  1.2084 -0.7554
   51FTM     F123872   5.207   6.755  13.894 -1.1289  2.0996 -2.1992
   51FTM     C523873   5.362   6.904  14.126 -2.0250 -0.0589  0.1638
   51FTM     C623874   5.451   6.869  14.251 -0.3835 -0.3246  0.4137
   51FTM     C723875   5.355   6.883  14.368  0.4983 -0.5032  0.8261
   51FTM     C823876   5.293   7.027  14.395  0.4979  1.0488 -0.1207
   51FTM     C923877   5.371   7.146  14.465 -0.0695  0.5742  0.8387
   51FTM    C1023878   5.294   7.282  14.491 -0.4167  0.4269  0.9760
   51FTM    C1123879   5.524   6.733  14.251  0.5166  1.2415  0.0682
   51FTM    C1223880   5.651   6.709  14.347  1.2404 -0.4014  1.0721
   52TPM     C123881   5.921   6.461  13.651  0.2406  0.6853  0.6848
   52TPM     C223882   6.056   6.442  13.651  0.2387  0.6716  0.5012
   52TPM     C323883   6.096   6.309  13.688  0.2688  0.6101  0.2540
   52TPM     C423884   5.992   6.226  13.717  0.2939  0.5766  0.2492
   52TPM     S123885   5.834   6.310  13.700  0.2812  0.6207  0.5589
   53BDD     C123886   6.026   5.880  13.526  0.2769  0.6657  0.2124
   53BDD     C223887   6.114   5.874  13.630  0.2438  0.6298  0.2383
   53BDD     C323888   6.112   5.991  13.715  0.1527  0.5627  0.3300
   53BDD     C423889   6.023   6.086  13.674  0.1178  0.5480  0.3728
   53BDD     S123890   5.935   6.035  13.527  0.1963  0.6176  0.3012
   53BDD     C523891   6.204   5.759  13.656  0.2944  0.6562  0.1796
   53BDD     C623892   6.200   6.006  13.834  0.1036  0.5155  0.3719
   53BDD     O123893   6.198   6.107  13.907  0.0250  0.4574  0.4510
   53BDD     O223894   6.206   5.657  13.583  0.3730  0.7143  0.1006
   53BDD     C723895   6.289   5.891  13.859  0.1545  0.5417  0.3132
   53BDD     C823896   6.291   5.773  13.774  0.2455  0.6089  0.2214
   53BDD     C923897   6.381   5.678  13.815  0.2804  0.6235  0.1788
   53BDD     S223898   6.469   5.730  13.963  0.2016  0.5539  0.2504
   53BDD    C1023899   6.377   5.884  13.964  0.1212  0.5060  0.3391
   53BDD    C1123900   6.422   5.996  14.052 -0.4112 -1.0632  0.6409
   53BDD    C1223901   6.543   6.022  14.120 -0.8870 -0.2528 -0.1254
   53BDD    C1323902   6.653   6.106  14.046 -0.4618 -1.2347  0.0268
   53BDD    C1423903   6.618   6.253  14.025  1.2237 -0.1445 -0.1537
   53BDD    C1523904   6.718   6.324  13.937 -0.2681  1.4347 -0.3063
   53BDD    C1623905   6.674   6.451  13.870 -0.0914  0.7098 -1.4652
   53BDD    C1723906   6.515   6.055  14.269 -0.3184 -0.9307  0.1265
   53BDD    C1823907   6.586   5.951  14.346 -0.7129  0.1594 -0.7429
   53BDD    C1923908   6.465   5.565  13.747 -1.8148 -0.2684 -0.0400
   53BDD    C2023909   6.468   5.427  13.827  0.9611  0.8773 -0.7623
   53BDD    C2123910   6.327   5.369  13.804 -0.6438  0.4808 -1.0582
   53BDD    C2223911   6.275   5.230  13.860 -0.4565 -1.3693  1.2259
   53BDD    C2323912   6.123   5.201  13.827 -0.6872  0.6448 -0.3056
   53BDD    C2423913   6.148   5.098  13.716  1.0772 -0.7042 -0.7895
   53BDD    C2523914   6.589   5.338  13.811 -0.1444 -1.1117 -0.2519
   53BDD    C2623915   6.731   5.394  13.827 -0.3770 -0.1104  0.1133
   54TPM     C123916   5.994   5.812  13.403  1.2222  0.5721 -0.0332
   54TPM     C223917   6.082   5.717  13.360  1.4460  0.9892 -0.5127
   54TPM     C323918   6.079   5.697  13.217  0.6078  0.8363 -0.4828
   54TPM     C423919   5.989   5.776  13.152 -0.2554  0.3023  0.0196
   54TPM     S123920   5.900   5.884  13.267 -0.0749 -0.0514  0.4975
   55BDTP    C123921   5.885   5.795  12.533  0.1782 -0.0750  0.0489
   55BDTP    C223922   6.004   5.872  12.547  0.0731  0.0951  0.0101
   55BDTP    C323923   6.065   5.894  12.670  0.0391  0.2466  0.0001
   55BDTP    C423924   6.005   5.837  12.784  0.1121  0.2300  0.0299
   55BDTP    C523925   5.887   5.760  12.770  0.2171  0.0598  0.0687
   55BDTP    C623926   5.826   5.738  12.647  0.2512 -0.0919  0.0787
   55BDTP    C723927   6.050   5.846  12.922  0.0952  0.3677  0.0267
   55BDTP    C823928   5.971   5.780  13.010  0.1813  0.3099  0.0607
   55BDTP    S123929   5.830   5.697  12.931  0.2962  0.0732  0.1017
   55BDTP    C923930   5.841   5.786  12.395  0.1953 -0.2124  0.0521
   55BDTP   C1023931   5.920   5.852  12.307  0.1088 -0.1549  0.0180
   55BDTP    S223932   6.061   5.935  12.385 -0.0059  0.0818 -0.0230
   56FTM     S123933   6.233   6.072  12.826 -0.3315  1.0437 -0.2020
   56FTM     C123934   6.399   6.106  12.766  0.1021 -0.0795  0.3095
   56FTM     C223935   6.420   6.041  12.648  0.4876 -1.2218  0.9748
   56FTM     C323936   6.311   5.963  12.599  0.4698 -1.2918  1.1237
   56FTM     C423937   6.203   5.968  12.681  0.0571 -0.1661  0.5539
   56FTM     F123938   6.540   6.049  12.578  0.8795 -2.2720  1.4884
   56FTM     C523939   6.503   6.149  12.873 -0.1435  0.8808 -1.4133
   56FTM     C623940   6.550   6.025  12.981  0.7682  0.9837 -0.2263
   56FTM     C723941   6.474   5.955  13.090 -1.1835 -0.7295  0.5598
   56FTM     C823942   6.337   6.007  13.156 -0.2614 -0.5395 -1.5521
   56FTM     C923943   6.355   6.118  13.261 -0.9393 -1.0210  1.3260
   56FTM    C1023944   6.212   6.146  13.305 -1.8038  1.0000 -0.0676
   56FTM    C1123945   6.661   5.929  12.937 -1.4519 -0.2654 -1.0646
   56FTM    C1223946   6.778   5.970  12.830 -0.3677 -0.4413  0.0988
   57FTM     S123947   5.647   5.526  12.526  0.3140 -0.1319  0.2417
   57FTM     C123948   5.479   5.526  12.592  0.1917  0.0640 -0.0684
   57FTM     C223949   5.467   5.622  12.687 -0.0997  0.6270 -0.6554
   57FTM     C323950   5.584   5.699  12.715 -0.2425  0.9334 -0.8940
   57FTM     C423951   5.690   5.662  12.638 -0.0539  0.5936 -0.4760
   57FTM     F123952   5.348   5.645  12.755 -0.2548  0.8990 -1.0116
   57FTM     C523953   5.375   5.479  12.492  0.0843  1.7405 -0.4295
   57FTM     C623954   5.226   5.527  12.497  0.6581  0.2463 -0.9005
   57FTM     C723955   5.127   5.415  12.559  0.4316 -0.1571  1.3446
   57FTM     C823956   5.084   5.330  12.431  1.0529  0.0166  0.7917
   57FTM     C923957   5.007   5.210  12.461 -0.0136 -0.3330  0.0477
   57FTM    C1023958   4.983   5.113  12.335 -0.2563 -0.7438 -1.6193
   57FTM    C1123959   5.199   5.678  12.513 -0.1038  0.3819  0.2179
   57FTM    C1223960   5.056   5.731  12.523  1.2168  0.4420 -0.0461
   58TPM     C123961   5.938   5.850  12.165  0.9521  0.1781 -0.1485
   58TPM     C223962   5.868   5.930  12.079  1.0934  0.5546  0.0810
   58TPM     C323963   5.852   5.873  11.947  0.4539  0.6837  0.0966
   58TPM     C423964   5.909   5.751  11.933 -0.1748  0.4055 -0.1211
   58TPM     S123965   5.989   5.696  12.086 -0.0070 -0.0443 -0.3645
   59BDD     C123966   5.985   5.541  11.613 -0.0489  0.2909 -0.1182
   59BDD     C223967   5.849   5.543  11.623 -0.0480  0.1794 -0.0842
   59BDD     C323968   5.800   5.618  11.737 -0.0796  0.0834 -0.0339
   59BDD     C423969   5.900   5.673  11.812 -0.1041  0.1231 -0.0303
   59BDD     S123970   6.062   5.634  11.746 -0.0890  0.2831 -0.0896
   59BDD     C523971   5.758   5.475  11.527 -0.0181  0.1574 -0.0967
   59BDD     C623972   5.656   5.634  11.766 -0.0845 -0.0437  0.0087
   59BDD     O123973   5.614   5.699  11.865 -0.1117 -0.1264  0.0520
   59BDD     O223974   5.801   5.410  11.429  0.0092  0.2400 -0.1401
   59BDD     C723975   5.565   5.566  11.671 -0.0547 -0.0660 -0.0038
   59BDD     C823976   5.614   5.490  11.557 -0.0231  0.0299 -0.0541
   59BDD     C923977   5.515   5.435  11.481  0.0013 -0.0095 -0.0577
   59BDD     S223978   5.352   5.475  11.547 -0.0136 -0.1695  0.0015
   59BDD    C1023979   5.429   5.567  11.680 -0.0540 -0.1771  0.0302
   59BDD    C1123980   5.319   5.616  11.775  2.4969  0.4441  1.5911
   59BDD    C1223981   5.220   5.523  11.860  0.0989 -1.4081 -1.1156
   59BDD    C1323982   5.287   5.426  11.987  0.8073 -1.3947 -0.8706
   59BDD    C1423983   5.431   5.421  12.023 -0.9559 -0.5343 -0.1322
   59BDD    C1523984   5.468   5.340  12.143  0.2408  1.0053  0.3397
   59BDD    C1623985   5.596   5.347  12.214  1.5548 -1.3607 -0.3049
   59BDD    C1723986   5.091   5.596  11.916  0.1190  1.1984  0.0826
   59BDD    C1823987   4.976   5.514  11.957  0.1487  0.0189  0.4307
   59BDD    C1923988   5.510   5.372  11.337 -0.0924 -0.1747 -1.0206
   59BDD    C2023989   5.500   5.228  11.339  0.4794 -0.2786  0.1955
   59BDD    C2123990   5.394   5.162  11.421  0.8124 -0.0896  0.8034
   59BDD    C2223991   5.456   5.113  11.547  0.7623 -1.3648 -0.6424
   59BDD    C2323992   5.541   4.987  11.545  0.0014  0.4768  0.4832
   59BDD    C2423993   5.467   4.852  11.574 -0.6299  0.1991  0.6585
   59BDD    C2523994   5.521   5.162  11.195 -1.1709  0.3720 -0.1173
   59BDD    C2623995   5.645   5.193  11.096  0.3432  0.7179 -1.1629
   60TPM     C123996   6.085   5.469  11.526 -0.5360 -0.6749 -0.3043
   60TPM     C223997   6.088   5.493  11.392 -0.6404 -0.6710 -0.3066
   60TPM     C323998   6.193   5.421  11.323 -0.4119 -0.3302 -0.3204
   60TPM     C423999   6.268   5.342  11.404 -0.1330 -0.0745 -0.3283
   60TPM     S124000   6.213   5.352  11.576 -0.1376 -0.2453 -0.3192
    1BDTP    C124001   3.655   5.524  10.598  0.1588 -0.0286  0.0243
    1BDTP    C224002   3.745   5.596  10.515  0.3478 -0.0920  0.1736
    1BDTP    C324003   3.749   5.735  10.512  0.3761 -0.0945  0.0985
    1BDTP    C424004   3.659   5.806  10.594  0.2104 -0.0312 -0.1345
    1BDTP    C524005   3.569   5.733  10.677  0.0214  0.0322 -0.2837
    1BDTP    C624006   3.565   5.594  10.680 -0.0068  0.0346 -0.2085
    1BDTP    C724007   3.644   5.949  10.608  0.2032 -0.0207 -0.2513
    1BDTP    C824008   3.548   5.987  10.695  0.0205  0.0468 -0.4780
    1BDTP    S124009   3.463   5.847  10.773 -0.1684  0.1065 -0.5760
    1BDTP    C924010   3.669   5.380  10.584  0.1659 -0.0391  0.1411
    1BDTP   C1024011   3.765   5.342  10.497  0.3487 -0.1065  0.3684
    1BDTP    S224012   3.850   5.482  10.419  0.5376 -0.1662  0.4658
    2FTM     S124013   4.029   5.784  10.387 -0.2667 -0.4823 -0.4960
    2FTM     C124014   4.020   5.906  10.254 -0.1581  0.1769  0.0884
    2FTM     C224015   3.895   5.960  10.250  0.1553  1.0122  0.9503
    2FTM     C324016   3.802   5.912  10.348  0.3257  1.1861  1.2026
    2FTM     C424017   3.856   5.817  10.429  0.1368  0.4606  0.5112
    2FTM     F124018   3.858   6.057  10.158  0.3062  1.6686  1.5619
    2FTM     C524019   4.142   5.962  10.197  1.2232  0.3063 -0.3438
    2FTM     C624020   4.163   5.988  10.049  0.3364 -0.3225  0.1865
    2FTM     C724021   4.243   6.126  10.018 -0.6393  0.6939 -1.4831
    2FTM     C824022   4.233   6.173   9.880 -0.8560  1.5533  0.6750
    2FTM     C924023   4.299   6.300   9.862  0.0005 -0.4709 -0.5084
    2FTM    C1024024   4.286   6.372   9.734  0.5787 -0.0302  0.0959
    2FTM    C1124025   4.191   5.876   9.953  0.5761  0.5542 -0.7304
    2FTM    C1224026   4.137   5.727   9.947 -1.1346 -0.6957  0.0034
    3FTM     S124027   3.442   5.560  10.939 -0.0600  0.7168 -0.7881
    3FTM     C124028   3.277   5.490  10.933 -0.1575  0.8974 -0.3286
    3FTM     C224029   3.248   5.450  10.806 -0.3752  0.5010 -0.1583
    3FTM     C324030   3.351   5.471  10.709 -0.4770  0.0441 -0.3700
    3FTM     C424031   3.462   5.529  10.762 -0.3325  0.0918 -0.7131
    3FTM     F124032   3.127   5.392  10.771 -0.4953  0.5286  0.1988
    3FTM     C524033   3.191   5.521  11.046 -0.9700 -0.5842 -0.1409
    3FTM     C624034   3.211   5.500  11.189 -0.5195  1.7226  0.4411
    3FTM     C724035   3.316   5.584  11.276 -0.0252  0.9270 -0.7737
    3FTM     C824036   3.289   5.726  11.290  0.7213  0.4667 -2.0331
    3FTM     C924037   3.351   5.806  11.393 -1.2225 -1.7306 -0.3330
    3FTM    C1024038   3.280   5.952  11.403 -1.1195  0.1129 -0.0671
    3FTM    C1124039   3.169   5.359  11.248 -0.4141 -0.0358  0.2973
    3FTM    C1224040   3.241   5.233  11.209 -0.3103  0.0971 -0.0168
    4TPM     C124041   3.789   5.206  10.455  0.3843 -0.1739 -0.0343
    4TPM     C224042   3.848   5.148  10.346 -0.0049 -0.1508 -0.2615
    4TPM     C324043   3.837   5.005  10.344 -0.1519 -0.1395 -0.3393
    4TPM     C424044   3.771   4.953  10.451  0.1252 -0.1539 -0.1713
    4TPM     S124045   3.715   5.082  10.564  0.5970 -0.1833  0.1004
    5BDD     C124046   3.736   4.568  10.380 -0.1857  0.0295 -0.2335
    5BDD     C224047   3.608   4.615  10.381 -0.1907  0.0153 -0.2165
    5BDD     C324048   3.599   4.757  10.411 -0.2007  0.0196 -0.2398
    5BDD     C424049   3.720   4.816  10.432 -0.2031  0.0372 -0.2747
    5BDD     S124050   3.854   4.698  10.417 -0.1930  0.0492 -0.2801
    5BDD     C524051   3.489   4.531  10.355 -0.1867 -0.0027 -0.1779
    5BDD     C624052   3.469   4.829  10.417 -0.2075  0.0062 -0.2275
    5BDD     O124053   3.461   4.951  10.443 -0.2161  0.0101 -0.2480
    5BDD     O224054   3.497   4.409  10.329 -0.1780 -0.0064 -0.1576
    5BDD     C724055   3.351   4.745  10.391 -0.2034 -0.0117 -0.1886
    5BDD     C824056   3.360   4.603  10.361 -0.1935 -0.0160 -0.1650
    5BDD     C924057   3.238   4.544  10.340 -0.1911 -0.0334 -0.1304
    5BDD     S224058   3.104   4.662  10.356 -0.2011 -0.0456 -0.1250
    5BDD    C1024059   3.222   4.792  10.392 -0.2085 -0.0259 -0.1717
    5BDD    C1124060   3.138   4.922  10.413  0.6537 -0.7870  1.5422
    5BDD    C1224061   3.196   5.040  10.315  0.3676  0.1392  0.8747
    5BDD    C1324062   3.283   5.162  10.344  0.7251  0.9428 -0.8816
    5BDD    C1424063   3.185   5.278  10.376 -1.1354  0.3093  0.8018
    5BDD    C1524064   3.162   5.380  10.265 -0.4456 -0.8836  0.7363
    5BDD    C1624065   3.274   5.489  10.255  1.3777  0.1576  0.4367
    5BDD    C1724066   3.156   5.029  10.163  0.6193  0.2062 -0.1432
    5BDD    C1824067   3.063   4.922  10.113 -0.7735  0.3214  0.9933
    5BDD    C1924068   3.184   4.415  10.295 -1.2511 -1.0973 -0.3485
    5BDD    C2024069   3.127   4.329  10.409 -0.7493 -0.6470 -0.7787
    5BDD    C2124070   3.234   4.266  10.515 -0.6100  0.0561  0.1576
    5BDD    C2224071   3.308   4.146  10.445 -0.2420  0.1669 -1.3523
    5BDD    C2324072   3.429   4.088  10.521  0.3247  0.3941 -1.8112
    5BDD    C2424073   3.515   3.995  10.444  0.8637  1.1834 -0.3543
    5BDD    C2524074   2.999   4.228  10.383  0.1490 -1.7362  0.4044
    5BDD    C2624075   2.851   4.288  10.381  0.6609 -0.8874 -0.8492
    6TPM     C124076   3.799   4.441  10.366  0.8509  0.5849  0.4398
    6TPM     C224077   3.812   4.346  10.463  0.4213  0.5143  0.4334
    6TPM     C324078   3.856   4.218  10.413 -0.5599  0.1856  0.3629
    6TPM     C424079   3.876   4.216  10.279 -0.8786  0.0058  0.3159
    6TPM     S124080   3.841   4.376  10.204  0.0431  0.2393  0.3571
    7BDTP    C124081   4.232   3.735  10.073  0.0519 -0.0771  0.0188
    7BDTP    C224082   4.114   3.672  10.120  0.0912 -0.0150  0.2034
    7BDTP    C324083   4.005   3.743  10.170  0.2257  0.0393  0.4215
    7BDTP    C424084   4.014   3.883  10.174  0.3264  0.0320  0.4592
    7BDTP    C524085   4.133   3.946  10.127  0.2871 -0.0301  0.2744
    7BDTP    C624086   4.241   3.875  10.077  0.1526 -0.0843  0.0568
    7BDTP    C724087   3.915   3.978  10.221  0.4720  0.0811  0.6696
    7BDTP    C824088   3.953   4.107  10.211  0.5430  0.0592  0.6523
    7BDTP    S124089   4.120   4.128  10.142  0.4352 -0.0268  0.3669
    7BDTP    C924090   4.331   3.640  10.026 -0.0938 -0.1262 -0.1915
    7BDTP   C1024091   4.293   3.511  10.035 -0.1647 -0.1042 -0.1743
    7BDTP    S224092   4.126   3.490  10.105 -0.0572 -0.0182  0.1113
    8FTM     S124093   3.722   3.682  10.155 -0.2869 -0.7270  0.0424
    8FTM     C124094   3.663   3.559  10.272  0.6937 -1.7063 -0.4554
    8FTM     C224095   3.764   3.521  10.355  1.1203 -1.6014 -0.9208
    8FTM     C324096   3.891   3.584  10.333  0.7204 -0.7733 -0.9179
    8FTM     C424097   3.887   3.673  10.229 -0.0372 -0.2261 -0.4355
    8FTM     F124098   3.749   3.427  10.456  1.8983 -2.2491 -1.3759
    8FTM     C524099   3.527   3.497  10.257  0.7534 -0.4039 -0.2975
    8FTM     C624100   3.412   3.520  10.372 -0.2752 -0.2807  0.5333
    8FTM     C724101   3.414   3.658  10.441 -0.4832  0.6539 -0.1080
    8FTM     C824102   3.329   3.704  10.553 -0.7199  0.3434 -0.9115
    8FTM     C924103   3.326   3.642  10.698  0.6702 -1.1899  1.9412
    8FTM    C1024104   3.452   3.614  10.768 -0.0429 -0.4523  1.5726
    8FTM    C1124105   3.287   3.440  10.334 -0.2315 -0.3653 -0.6676
    8FTM    C1224106   3.301   3.287  10.336  0.6007  0.3663 -0.1190
    9FTM     S124107   4.495   3.983  10.163 -0.0783  0.3037 -0.1628
    9FTM     C124108   4.611   4.022  10.031  0.5991 -0.5535  0.1617
    9FTM     C224109   4.552   4.000   9.910  1.1548 -1.1628 -0.0126
    9FTM     C324110   4.417   3.954   9.913  1.0893 -1.0040 -0.3996
    9FTM     C424111   4.370   3.939  10.040  0.4631 -0.2486 -0.5260
    9FTM     F124112   4.618   4.022   9.789  1.7557 -1.9006  0.1681
    9FTM     C524113   4.755   4.045  10.051 -1.1775 -1.1150  0.7224
    9FTM     C624114   4.828   4.188  10.046  0.0959  0.7565 -0.1034
    9FTM     C724115   4.727   4.302  10.054  0.2583  0.1058 -0.1412
    9FTM     C824116   4.684   4.309  10.210 -0.3632  0.7121  1.1638
    9FTM     C924117   4.594   4.420  10.266  0.1369 -0.0545  0.1745
    9FTM    C1024118   4.613   4.567  10.220  0.1809 -1.2473  0.5078
    9FTM    C1124119   4.927   4.215   9.935  1.2104 -0.3226 -0.2433
    9FTM    C1224120   4.899   4.216   9.783  0.7777 -0.0931 -0.4516
   10TPM     C124121   4.344   3.399   9.979  0.3175  1.2122 -1.0475
   10TPM     C224122   4.282   3.290   9.926  0.2058  1.2844 -1.0669
   10TPM     C324123   4.372   3.185   9.887  0.0460  0.8085 -0.2074
   10TPM     C424124   4.503   3.214   9.910  0.0358  0.3732  0.4670
   10TPM     S124125   4.523   3.378   9.983  0.2289  0.5320  0.0657
   11BDD     C124126   4.864   3.108   9.800  0.2887 -0.2510 -0.3589
   11BDD     C224127   4.796   2.989   9.809  0.1754 -0.1705 -0.1237
   11BDD     C324128   4.658   3.005   9.850  0.3023  0.0048  0.2387
   11BDD     C424129   4.623   3.135   9.873  0.5105  0.0555  0.2745
   11BDD     S124130   4.760   3.247   9.844  0.5618 -0.1127 -0.1426
   11BDD     C524131   4.855   2.857   9.779 -0.0534 -0.2519 -0.2241
   11BDD     C624132   4.566   2.891   9.866  0.2124  0.1156  0.5360
   11BDD     O124133   4.447   2.904   9.902  0.3216  0.2668  0.8485
   11BDD     O224134   4.975   2.844   9.743 -0.1627 -0.4031 -0.5369
   11BDD     C724135   4.625   2.759   9.836 -0.0167  0.0343  0.4358
   11BDD     C824136   4.763   2.743   9.794 -0.1434 -0.1411  0.0734
   11BDD     C924137   4.798   2.613   9.771 -0.3515 -0.1917  0.0372
   11BDD     S224138   4.661   2.501   9.800 -0.4030 -0.0235  0.4546
   11BDD    C1024139   4.557   2.641   9.844 -0.1299  0.1147  0.6711
   11BDD    C1124140   4.420   2.611   9.905  1.1400  0.3948 -0.9311
   11BDD    C1224141   4.323   2.515   9.829 -0.2633  1.1001 -0.1119
   11BDD    C1324142   4.266   2.555   9.692 -0.9619  0.4964 -0.3916
   11BDD    C1424143   4.359   2.586   9.570 -1.1166 -0.4303 -0.4175
   11BDD    C1524144   4.368   2.467   9.485  1.0381  0.2194  0.0519
   11BDD    C1624145   4.242   2.451   9.393 -1.1968  1.4851  0.8158
   11BDD    C1724146   4.201   2.515   9.920  0.4706 -1.3542  0.0141
   11BDD    C1824147   4.056   2.449   9.893 -0.3970 -0.4633 -1.4210
   11BDD    C1924148   4.917   2.547   9.694  0.9120 -0.3988  1.2947
   11BDD    C2024149   4.898   2.493   9.551  1.8993 -0.2690 -0.4581
   11BDD    C2124150   4.829   2.589   9.458  0.4673 -0.8219 -1.1455
   11BDD    C2224151   4.896   2.688   9.363  0.6227  0.9253 -0.0587
   11BDD    C2324152   4.837   2.824   9.368 -0.5590 -1.6333 -0.9204
   11BDD    C2424153   4.882   2.937   9.263 -0.2187  0.3417  0.2354
   11BDD    C2524154   5.006   2.404   9.488  0.1346  0.4032 -0.2435
   11BDD    C2624155   4.958   2.292   9.410  0.6637  0.6727  0.2197
   12TPM     C124156   5.005   3.143   9.765 -0.0978 -0.5551  0.1607
   12TPM     C224157   5.032   3.225   9.659 -0.3099 -0.3324  0.2751
   12TPM     C324158   5.170   3.225   9.620 -0.3883 -0.2576 -0.0057
   12TPM     C424159   5.249   3.144   9.696 -0.2358 -0.4233 -0.3345
   12TPM     S124160   5.154   3.061   9.824  0.0205 -0.6886 -0.3144
   13BDTP    C124161   5.863   3.111   9.562  0.2103 -0.3414 -0.5426
   13BDTP    C224162   5.854   3.019   9.670  0.1873 -0.0367 -0.2809
   13BDTP    C324163   5.734   2.990   9.733  0.1868  0.2015 -0.1693
   13BDTP    C424164   5.618   3.054   9.688  0.2099  0.1367 -0.3228
   13BDTP    C524165   5.627   3.147   9.580  0.2328 -0.1680 -0.5841
   13BDTP    C624166   5.747   3.176   9.517  0.2333 -0.4061 -0.6962
   13BDTP    C724167   5.482   3.040   9.738  0.2141  0.3455 -0.2496
   13BDTP    C824168   5.391   3.116   9.673  0.2387  0.2140 -0.4416
   13BDTP    S124169   5.463   3.217   9.540  0.2599 -0.1927 -0.7417
   13BDTP    C924170   5.999   3.126   9.512  0.2060 -0.5501 -0.6158
   13BDTP   C1024171   6.090   3.049   9.577  0.1817 -0.4187 -0.4241
   13BDTP    S224172   6.018   2.949   9.710  0.1602 -0.0120 -0.1240
   14FTM     S124173   5.746   2.705   9.787  0.0953  0.2787  0.1498
   14FTM     C124174   5.719   2.661   9.959 -0.0976  1.0454  0.3208
   14FTM     C224175   5.692   2.773  10.032 -0.2012  1.3701 -0.2086
   14FTM     C324176   5.691   2.897   9.959 -0.1384  1.0502 -0.7656
   14FTM     C424177   5.718   2.879   9.827  0.0185  0.4613 -0.6597
   14FTM     F124178   5.667   2.770  10.168 -0.3594  1.9762 -0.2198
   14FTM     C524179   5.724   2.519  10.014  0.1817 -1.3707  0.5725
   14FTM     C624180   5.814   2.426   9.951 -0.4594  0.7481  0.8304
   14FTM     C724181   5.962   2.405  10.000  0.1701 -0.4508  0.8097
   14FTM     C824182   6.016   2.382  10.128  0.0633  0.0094  0.3863
   14FTM     C924183   6.007   2.486  10.221 -0.3217  0.6700 -0.3152
   14FTM    C1024184   6.143   2.515  10.282  1.2457 -0.2168  1.3392
   14FTM    C1124185   5.736   2.284   9.931 -0.1255 -1.6423 -0.1722
   14FTM    C1224186   5.719   2.176  10.029 -0.5160 -1.0568 -0.5849
   15FTM     S124187   5.843   3.429   9.403 -0.3702  0.5047 -0.0150
   15FTM     C124188   5.793   3.449   9.231  0.0635 -0.3768 -0.2563
   15FTM     C224189   5.708   3.350   9.196  0.3920 -0.7343 -0.0582
   15FTM     C324190   5.677   3.254   9.298  0.3277 -0.3536  0.2851
   15FTM     C424191   5.740   3.281   9.415 -0.0624  0.3172  0.3521
   15FTM     F124192   5.653   3.339   9.069  0.7701 -1.4274 -0.1760
   15FTM     C524193   5.821   3.559   9.130  1.3031  0.1070 -1.3559
   15FTM     C624194   5.949   3.537   9.055 -0.5201  0.6943 -0.5873
   15FTM     C724195   5.936   3.593   8.909  2.2332  0.0813  0.7371
   15FTM     C824196   5.824   3.492   8.845  0.4083  0.2544  0.4588
   15FTM     C924197   5.909   3.367   8.793  0.1810  0.4821 -0.0994
   15FTM    C1024198   5.861   3.311   8.666  1.3216 -0.3489  1.5381
   15FTM    C1124199   6.085   3.484   9.115 -0.8611  1.2328  0.5420
   15FTM    C1224200   6.192   3.585   9.098 -0.8941  0.2544 -0.6567
   16TPM     C124201   6.233   3.060   9.547  0.7720  1.6211 -0.2220
   16TPM     C224202   6.299   3.110   9.439  1.4334  2.1813  0.4213
   16TPM     C324203   6.442   3.101   9.449  1.3661  1.7404  1.0622
   16TPM     C424204   6.485   3.044   9.565  0.6533  0.8440  0.9070
   16TPM     S124205   6.347   2.997   9.671  0.0069  0.4843 -0.0680
   17BDD     C124206   6.877   3.105   9.587 -0.2017 -0.2796  0.2741
   17BDD     C224207   6.856   2.977   9.631 -0.1998 -0.2973  0.2234
   17BDD     C324208   6.716   2.941   9.635 -0.2134 -0.2240  0.4263
   17BDD     C424209   6.632   3.041   9.595 -0.2254 -0.1515  0.6289
   17BDD     S124210   6.723   3.188   9.548 -0.2205 -0.1701  0.5796
   17BDD     C524211   6.964   2.884   9.670 -0.1855 -0.3823 -0.0136
   17BDD     C624212   6.670   2.807   9.679 -0.2141 -0.2286  0.4117
   17BDD     O124213   6.549   2.776   9.683 -0.2259 -0.1654  0.5870
   17BDD     O224214   7.085   2.916   9.666 -0.1737 -0.4454 -0.1886
   17BDD     C724215   6.778   2.714   9.718 -0.1998 -0.3136  0.1750
   17BDD     C824216   6.918   2.751   9.714 -0.1861 -0.3869 -0.0279
   17BDD     C924217   7.002   2.651   9.754 -0.1742 -0.4594 -0.2306
   17BDD     S224218   6.910   2.503   9.801 -0.1790 -0.4409 -0.1811
   17BDD    C1024219   6.756   2.587   9.762 -0.1980 -0.3312  0.1242
   17BDD    C1124220   6.629   2.506   9.779 -0.7596 -0.3334 -0.6384
   17BDD    C1224221   6.581   2.459   9.915  0.1344  0.6576  0.2543
   17BDD    C1324222   6.481   2.335   9.921 -0.2687 -0.1700 -0.3189
   17BDD    C1424223   6.364   2.335   9.824  0.1303  0.6459 -1.2395
   17BDD    C1524224   6.343   2.190   9.828  0.3427  0.8390  0.2575
   17BDD    C1624225   6.207   2.158   9.754 -0.4004  0.2897  0.2872
   17BDD    C1724226   6.544   2.567  10.006  0.5492 -1.2599  0.2239
   17BDD    C1824227   6.649   2.636  10.096 -0.0362 -1.1925 -0.4668
   17BDD    C1924228   7.142   2.632   9.801  1.4756  0.4885  0.7528
   17BDD    C2024229   7.230   2.627   9.676  0.0992  0.4532  0.2515
   17BDD    C2124230   7.198   2.497   9.592 -0.3299 -0.6574 -0.9348
   17BDD    C2224231   7.247   2.496   9.456  0.1300 -0.5903  1.3583
   17BDD    C2324232   7.310   2.363   9.399  0.8515 -0.2724 -0.5359
   17BDD    C2424233   7.417   2.286   9.483 -1.0209  1.1211 -0.6890
   17BDD    C2524234   7.368   2.692   9.687 -0.2396 -0.2785 -0.9260
   17BDD    C2624235   7.401   2.781   9.566  0.7161 -1.4151 -0.8150
   18TPM     C124236   6.992   3.197   9.595 -0.1577 -0.1333 -0.2009
   18TPM     C224237   7.051   3.248   9.483 -0.1132 -0.3762 -0.2892
   18TPM     C324238   7.153   3.346   9.510 -0.2774 -0.1538 -0.4652
   18TPM     C424239   7.172   3.369   9.643 -0.4468  0.2587 -0.5107
   18TPM     S124240   7.062   3.269   9.745 -0.4120  0.3993 -0.3334
   19BDTP    C124241   7.375   3.898   9.913  0.3103 -0.0434  0.1090
   19BDTP    C224242   7.265   3.855   9.993  0.1968  0.0043 -0.0210
   19BDTP    C324243   7.196   3.737   9.968  0.0938  0.0960 -0.1783
   19BDTP    C424244   7.237   3.657   9.860  0.1034  0.1430 -0.2096
   19BDTP    C524245   7.347   3.700   9.780  0.2167  0.0953 -0.0799
   19BDTP    C624246   7.416   3.818   9.805  0.3196  0.0036  0.0779
   19BDTP    C724247   7.182   3.531   9.815  0.0093  0.2380 -0.3627
   19BDTP    C824248   7.244   3.478   9.707  0.0463  0.2636 -0.3543
   19BDTP    S124249   7.381   3.580   9.647  0.2052  0.1710 -0.1512
   19BDTP    C924250   7.431   4.024   9.957  0.4041 -0.1383  0.2620
   19BDTP   C1024251   7.369   4.077  10.065  0.3673 -0.1639  0.2534
   19BDTP    S224252   7.231   3.975  10.126  0.2082 -0.0713  0.0503
   20FTM     S124253   7.105   3.598  10.186 -0.2704  0.3769 -0.2420
   20FTM     C124254   6.926   3.579  10.198 -0.1798 -0.4475 -0.1142
   20FTM     C224255   6.865   3.654  10.103 -0.5919 -0.8797 -0.1976
   20FTM     C324256   6.951   3.729  10.017 -0.9935 -0.6030 -0.3614
   20FTM     C424257   7.082   3.711  10.047 -0.8853  0.0630 -0.4054
   20FTM     F124258   6.727   3.659  10.089 -0.6300 -1.5518 -0.1297
   20FTM     C524259   6.867   3.504  10.311  0.3849  1.9645  0.0439
   20FTM     C624260   6.858   3.341  10.308 -0.8948 -0.4438 -0.1456
   20FTM     C724261   6.772   3.315  10.182  0.7367  0.2902 -0.0068
   20FTM     C824262   6.807   3.220  10.058 -1.1542  0.2053 -0.0436
   20FTM     C924263   6.690   3.221   9.949  0.1160  0.0849  0.6813
   20FTM    C1024264   6.547   3.179  10.011 -1.3746  1.1368 -0.7107
   20FTM    C1124265   7.002   3.278  10.296  0.5750 -0.5109 -0.2717
   20FTM    C1224266   7.035   3.119  10.325  0.4462 -0.8136 -0.9415
   21FTM     S124267   7.675   3.932   9.782 -0.0033  0.3592 -0.1812
   21FTM     C124268   7.752   3.940   9.620  0.3470  0.0915 -0.0300
   21FTM     C224269   7.664   3.902   9.524  0.6610 -0.4117 -0.1273
   21FTM     C324270   7.533   3.865   9.571  0.6486 -0.6150 -0.3209
   21FTM     C424271   7.521   3.875   9.706  0.3143 -0.2556 -0.3737
   21FTM     F124272   7.695   3.898   9.389  0.9782 -0.7182 -0.0472
   21FTM     C524273   7.881   4.016   9.602 -0.0629 -0.0991  1.1104
   21FTM     C624274   8.019   3.960   9.650  0.4886  0.8745  0.0766
   21FTM     C724275   8.113   3.856   9.573  1.4299 -0.0963  0.6155
   21FTM     C824276   8.062   3.701   9.557 -0.0219  0.0509 -1.0498
   21FTM     C924277   8.171   3.591   9.591  0.6158  0.0447 -0.6478
   21FTM    C1024278   8.274   3.620   9.717 -0.9639  0.5246  0.6214
   21FTM    C1124279   8.099   4.052   9.754  0.2650 -0.7046  0.3158
   21FTM    C1224280   8.238   4.022   9.799 -0.0456  1.0211  0.0391
   22TPM     C124281   7.415   4.201  10.130  0.3952 -1.5315  0.4755
   22TPM     C224282   7.449   4.317  10.068 -0.0046 -1.5202  0.2697
   22TPM     C324283   7.474   4.427  10.158 -0.1740 -1.3298  0.0877
   22TPM     C424284   7.459   4.394  10.289  0.0968 -1.1961  0.1544
   22TPM     S124285   7.411   4.221  10.310  0.5904 -1.3010  0.4544
   23BDD     C124286   7.353   4.581  10.631  0.2499 -0.5842  0.0578
   23BDD     C224287   7.448   4.662  10.575  0.1129 -0.4478  0.0231
   23BDD     C324288   7.502   4.611  10.450 -0.0608 -0.2334 -0.1428
   23BDD     C424289   7.447   4.491  10.413 -0.0537 -0.2092 -0.2324
   23BDD     S124290   7.325   4.434  10.532  0.1711 -0.4535 -0.1149
   23BDD     C524291   7.492   4.791  10.633  0.1365 -0.5096  0.1411
   23BDD     C624292   7.605   4.682  10.372 -0.2276 -0.0600 -0.2067
   23BDD     O124293   7.651   4.637  10.265 -0.3773  0.1248 -0.3498
   23BDD     O224294   7.446   4.835  10.740  0.2862 -0.6945  0.2840
   23BDD     C724295   7.649   4.810  10.431 -0.2037 -0.1218 -0.0887
   23BDD     C824296   7.595   4.862  10.555 -0.0303 -0.3362  0.0772
   23BDD     C924297   7.650   4.982  10.592 -0.0372 -0.3601  0.1669
   23BDD     S224298   7.772   5.038  10.473 -0.2619 -0.1161  0.0494
   23BDD    C1024299   7.744   4.891  10.374 -0.3407  0.0147 -0.1230
   23BDD    C1124300   7.847   4.866  10.263  0.6752 -1.0113 -1.0266
   23BDD    C1224301   7.923   4.731  10.267 -0.1536  0.3864  0.1401
   23BDD    C1324302   8.037   4.735  10.155  0.0029  0.1636 -0.7337
   23BDD    C1424303   8.177   4.783  10.187 -1.7547 -0.0425  0.1504
   23BDD    C1524304   8.218   4.915  10.243 -1.4886 -0.5124  0.9424
   23BDD    C1624305   8.379   4.927  10.261 -0.3319 -0.5451 -0.4554
   23BDD    C1724306   7.945   4.685  10.417 -0.3003  0.6747 -0.2532
   23BDD    C1824307   8.028   4.561  10.439  0.3963  0.3042  0.0972
   23BDD    C1924308   7.641   5.081  10.706  1.4668  0.4678  1.2278
   23BDD    C2024309   7.576   5.222  10.676  0.0786  0.7941 -0.7344
   23BDD    C2124310   7.480   5.249  10.788  0.5521 -0.7785 -0.0597
   23BDD    C2224311   7.400   5.386  10.837 -0.2386  1.0151  1.4128
   23BDD    C2324312   7.316   5.365  10.971 -0.1097  0.8832  0.0729
   23BDD    C2424313   7.240   5.494  11.024  0.8311  1.0623 -0.9354
   23BDD    C2524314   7.689   5.318  10.632  1.1876  0.6764  1.6947
   23BDD    C2624315   7.664   5.455  10.566  1.5849 -0.1061  0.7244
   24TPM     C124316   7.262   4.590  10.732  0.6293 -0.6470 -0.7633
   24TPM     C224317   7.278   4.525  10.850  1.2277 -0.9096 -0.9828
   24TPM     C324318   7.189   4.570  10.954  1.6961 -1.1861 -0.4513
   24TPM     C424319   7.105   4.670  10.915  1.4548 -1.1342  0.1736
   24TPM     S124320   7.132   4.715  10.742  0.6108 -0.7291  0.1391
   25BDTP    C124321   6.617   4.752  11.296  0.5547  0.1795 -0.2670
   25BDTP    C224322   6.556   4.777  11.170  0.3878  0.1181 -0.1998
   25BDTP    C324323   6.627   4.772  11.050  0.2666  0.2189 -0.2763
   25BDTP    C424324   6.764   4.740  11.056  0.3119  0.3883 -0.4268
   25BDTP    C524325   6.824   4.716  11.182  0.4787  0.4497 -0.4945
   25BDTP    C624326   6.754   4.721  11.302  0.6000  0.3490 -0.4176
   25BDTP    C724327   6.857   4.729  10.946  0.2081  0.5163 -0.5288
   25BDTP    C824328   6.984   4.698  10.983  0.2880  0.6689 -0.6676
   25BDTP    S124329   7.002   4.678  11.163  0.5058  0.6720 -0.6888
   25BDTP    C924330   6.523   4.763  11.406  0.6584  0.0515 -0.1650
   25BDTP   C1024331   6.397   4.795  11.369  0.5785 -0.1011 -0.0265
   25BDTP    S224332   6.378   4.815  11.189  0.3608 -0.1043 -0.0050
   26FTM     S124333   6.599   4.779  10.763 -0.8122  0.0502  0.4345
   26FTM     C124334   6.496   4.912  10.700  0.2755  0.7640  0.1018
   26FTM     C224335   6.446   4.985  10.803  0.5109  1.1662 -0.0608
   26FTM     C324336   6.484   4.942  10.935 -0.1246  0.9491  0.0601
   26FTM     C424337   6.566   4.833  10.932 -0.8710  0.3616  0.3242
   26FTM     F124338   6.362   5.094  10.785  1.3161  1.7548 -0.3293
   26FTM     C524339   6.430   4.900  10.567 -0.4587  0.7985  1.0572
   26FTM     C624340   6.432   4.760  10.494  0.5832 -0.3343 -0.8471
   26FTM     C724341   6.310   4.657  10.542 -0.3787 -1.6586 -0.2689
   26FTM     C824342   6.339   4.538  10.634  0.5861  0.6651 -0.3029
   26FTM     C924343   6.209   4.444  10.655  0.3679 -0.1083  0.2468
   26FTM    C1024344   6.098   4.447  10.550 -0.5245  0.2274  1.1734
   26FTM    C1124345   6.510   4.752  10.356  0.7363  0.0236  0.7494
   26FTM    C1224346   6.553   4.620  10.297 -1.0397 -0.7717  0.1493
   27FTM     S124347   6.874   4.504  11.444  0.8050 -0.2457  0.2558
   27FTM     C124348   6.957   4.550  11.597  0.0395  0.2535  0.5346
   27FTM     C224349   6.954   4.685  11.613 -0.7671  0.2471  0.5061
   27FTM     C324350   6.888   4.759  11.509 -0.8371 -0.1366  0.2715
   27FTM     C424351   6.839   4.678  11.411 -0.0591 -0.4344  0.1151
   27FTM     F124352   7.010   4.750  11.722 -1.4896  0.5889  0.6908
   27FTM     C524353   7.004   4.464  11.689 -0.2632  0.0020 -0.3345
   27FTM     C624354   6.904   4.363  11.767  0.3123 -0.1139  0.7796
   27FTM     C724355   6.863   4.410  11.911  1.5616  0.3922 -0.3447
   27FTM     C824356   6.965   4.390  12.014 -0.4314  1.5042 -0.9628
   27FTM     C924357   7.043   4.255  12.000 -0.6559 -0.0086 -0.5444
   27FTM    C1024358   7.193   4.250  12.050 -1.0348 -0.4924 -0.2067
   27FTM    C1124359   6.851   4.236  11.692  0.6905 -1.4353  0.0266
   27FTM    C1224360   6.701   4.194  11.683 -0.4241 -1.2739 -0.8832
   28TPM     C124361   6.278   4.739  11.433  0.6446 -0.0054  0.3953
   28TPM     C224362   6.165   4.693  11.373  0.6977  0.5976 -0.1888
   28TPM     C324363   6.055   4.673  11.464  0.2993  0.6213 -0.6543
   28TPM     C424364   6.085   4.704  11.593 -0.0574  0.0363 -0.4252
   28TPM     S124365   6.255   4.760  11.610  0.0829 -0.5948  0.4027
   29BDD     C124366   5.873   4.475  11.843  0.2754 -0.2274  0.0464
   29BDD     C224367   5.922   4.578  11.919  0.1701 -0.1576  0.0197
   29BDD     C324368   6.002   4.673  11.844  0.1961 -0.1758  0.0240
   29BDD     C424369   6.013   4.641  11.711  0.3206 -0.2592  0.0540
   29BDD     S124370   5.924   4.490  11.671  0.4140 -0.3207  0.0788
   29BDD     C524371   5.897   4.592  12.064  0.0418 -0.0716 -0.0109
   29BDD     C624372   6.064   4.791  11.906  0.0961 -0.1097 -0.0017
   29BDD     O124373   6.133   4.873  11.841  0.1181 -0.1252  0.0020
   29BDD     O224374   5.828   4.510  12.129  0.0197 -0.0559 -0.0146
   29BDD     C724375   6.039   4.806  12.051 -0.0321 -0.0237 -0.0322
   29BDD     C824376   5.959   4.711  12.126 -0.0581 -0.0055 -0.0366
   29BDD     C924377   5.948   4.742  12.259 -0.1827  0.0780 -0.0666
   29BDD     S224378   6.036   4.893  12.298 -0.2762  0.1396 -0.0914
   29BDD    C1024379   6.087   4.908  12.127 -0.1376  0.0464 -0.0590
   29BDD    C1124380   6.175   5.024  12.098  0.1916 -1.1925  0.2443
   29BDD    C1224381   6.093   5.148  12.155 -0.7984  0.1180 -0.3439
   29BDD    C1324382   6.212   5.252  12.178  0.8660  0.1133  0.1455
   29BDD    C1424383   6.316   5.225  12.280  0.0452 -1.4449  0.2072
   29BDD    C1524384   6.451   5.295  12.249 -1.0900  0.8172 -0.7978
   29BDD    C1624385   6.552   5.194  12.224 -0.4737 -0.1104 -0.2151
   29BDD    C1724386   5.978   5.187  12.056  1.2491  1.0236  0.1329
   29BDD    C1824387   6.025   5.190  11.910 -0.0978 -0.4620 -1.2529
   29BDD    C1924388   5.897   4.660  12.375 -0.2938 -0.7730 -0.1995
   29BDD    C2024389   6.016   4.603  12.452 -1.1243  0.3248  1.3928
   29BDD    C2124390   6.027   4.576  12.600 -0.0469  0.5166  0.0956
   29BDD    C2224391   5.995   4.697  12.695 -0.5382 -0.1436  0.7758
   29BDD    C2324392   6.063   4.688  12.825 -0.1706  0.2822 -0.5910
   29BDD    C2424393   6.025   4.797  12.918  0.3199  0.2088 -0.4797
   29BDD    C2524394   6.091   4.502  12.371 -0.0909  0.5687  0.4836
   29BDD    C2624395   6.016   4.366  12.381 -1.1238  0.1014 -0.1109
   30TPM     C124396   5.814   4.346  11.864 -0.6563  0.3745 -0.3332
   30TPM     C224397   5.892   4.239  11.832 -0.4683  0.5927 -0.6097
   30TPM     C324398   5.843   4.114  11.883 -0.0025  0.4348 -0.5403
   30TPM     C424399   5.727   4.126  11.955  0.1644  0.0962 -0.2110
   30TPM     S124400   5.671   4.297  11.963 -0.2566 -0.0507  0.0390
   31BDTP    C124401   5.465   3.620  12.211 -0.2131 -0.0339 -0.2538
   31BDTP    C224402   5.540   3.672  12.320 -0.1191 -0.0112 -0.3288
   31BDTP    C324403   5.611   3.791  12.312 -0.1397 -0.0038 -0.4090
   31BDTP    C424404   5.608   3.863  12.191 -0.2588 -0.0195 -0.4157
   31BDTP    C524405   5.533   3.811  12.082 -0.3527 -0.0422 -0.3406
   31BDTP    C624406   5.462   3.692  12.089 -0.3322 -0.0496 -0.2605
   31BDTP    C724407   5.674   3.988  12.160 -0.3019 -0.0158 -0.4917
   31BDTP    C824408   5.652   4.032  12.033 -0.4225 -0.0345 -0.4776
   31BDTP    S124409   5.545   3.921  11.937 -0.4982 -0.0592 -0.3660
   31BDTP    C924410   5.399   3.495  12.242 -0.1698 -0.0375 -0.1777
   31BDTP   C1024411   5.421   3.451  12.368 -0.0491 -0.0189 -0.1919
   31BDTP    S224412   5.528   3.562  12.465  0.0263  0.0058 -0.3035
   32FTM     S124413   5.626   3.960  12.546 -0.7752 -0.5574  0.4589
   32FTM     C124414   5.779   3.963  12.642 -0.7774  0.2871  0.4476
   32FTM     C224415   5.870   3.879  12.586 -0.1099  1.1939  0.1193
   32FTM     C324416   5.828   3.809  12.469  0.4309  1.2848 -0.1373
   32FTM     C424417   5.700   3.840  12.433  0.1687  0.4196 -0.0010
   32FTM     F124418   5.997   3.861  12.638  0.0514  1.9954  0.0316
   32FTM     C524419   5.831   4.045  12.761  0.9371  0.4565 -0.4732
   32FTM     C624420   5.726   4.102  12.855  0.9452 -1.1738  0.6430
   32FTM     C724421   5.762   4.138  13.004 -1.4148 -0.6823  0.6730
   32FTM     C824422   5.692   4.070  13.110  1.1781  0.6298 -0.8625
   32FTM     C924423   5.762   4.085  13.248  0.3815  1.0349 -0.3660
   32FTM    C1024424   5.674   4.077  13.370 -0.7438 -0.4148 -1.4259
   32FTM    C1124425   5.642   4.231  12.797 -0.3995 -0.4253  0.4431
   32FTM    C1224426   5.735   4.361  12.794  0.6644  0.9851  0.6244
   33FTM     S124427   5.490   3.628  11.808  0.5318 -0.5843  0.0955
   33FTM     C124428   5.358   3.533  11.730  0.3423 -0.1483 -0.1173
   33FTM     C224429   5.262   3.503  11.821  0.1556  0.0613 -0.2438
   33FTM     C324430   5.284   3.551  11.954  0.1487 -0.1006 -0.1844
   33FTM     C424431   5.401   3.620  11.965  0.3362 -0.4452 -0.0066
   33FTM     F124432   5.148   3.431  11.789 -0.0200  0.4120 -0.4209
   33FTM     C524433   5.381   3.514  11.580 -0.3997  0.4386 -0.6309
   33FTM     C624434   5.299   3.588  11.469  0.4475 -0.7295 -1.1641
   33FTM     C724435   5.342   3.572  11.327 -0.3597  0.4663  0.2723
   33FTM     C824436   5.398   3.433  11.255  0.9988  0.3912 -0.8832
   33FTM     C924437   5.323   3.296  11.266 -0.6611 -1.5895 -0.3880
   33FTM    C1024438   5.348   3.242  11.135  0.7140  0.7546  0.9553
   33FTM    C1124439   5.220   3.715  11.497  1.0559 -0.0955 -0.0374
   33FTM    C1224440   5.132   3.769  11.383  0.2592  0.2560  0.2617
   34TPM     C124441   5.430   3.310  12.384  0.0260  0.2433  0.6246
   34TPM     C224442   5.339   3.216  12.420  0.2468 -0.0073  0.5330
   34TPM     C324443   5.396   3.086  12.444  0.4712 -0.0530 -0.1972
   34TPM     C424444   5.531   3.081  12.426  0.4214  0.1625 -0.6624
   34TPM     S124445   5.597   3.242  12.378  0.0849  0.4422 -0.2107
   35BDD     C124446   5.696   2.725  12.469  0.6444  0.1163 -0.5963
   35BDD     C224447   5.732   2.798  12.579  0.3450  0.0284 -0.4381
   35BDD     C324448   5.677   2.933  12.579 -0.2390 -0.2016 -0.1275
   35BDD     C424449   5.600   2.960  12.469 -0.3763 -0.2857 -0.0535
   35BDD     S124450   5.591   2.819  12.358  0.2164 -0.0829 -0.3675
   35BDD     C524451   5.817   2.747  12.688  0.5842  0.1526 -0.5665
   35BDD     C624452   5.703   3.029  12.688 -0.6400 -0.3296  0.0846
   35BDD     O124453   5.656   3.145  12.688 -1.1437 -0.5279  0.3524
   35BDD     O224454   5.865   2.631  12.688  1.0878  0.3509 -0.8343
   35BDD     C724455   5.789   2.978  12.797 -0.4007 -0.2053 -0.0438
   35BDD     C824456   5.843   2.843  12.797  0.1833  0.0246 -0.3544
   35BDD     C924457   5.920   2.816  12.907  0.3204  0.1087 -0.4284
   35BDD     S224458   5.929   2.957  13.018 -0.2721 -0.0941 -0.1144
   35BDD    C1024459   5.824   3.051  12.907 -0.7004 -0.2933  0.1145
   35BDD    C1124460   5.819   3.196  12.950  0.4216  0.5300  1.1085
   35BDD    C1224461   5.688   3.254  13.010 -0.1522  0.0687 -0.4508
   35BDD    C1324462   5.585   3.188  13.111 -0.9444  0.3111  0.9035
   35BDD    C1424463   5.653   3.192  13.234 -0.6471 -0.3658 -0.5862
   35BDD    C1524464   5.561   3.147  13.348  0.2770  0.1802  0.2696
   35BDD    C1624465   5.624   3.099  13.467  0.3302 -0.6452 -2.5057
   35BDD    C1724466   5.665   3.402  13.017 -0.1854 -1.0319  0.4213
   35BDD    C1824467   5.703   3.491  12.895 -0.9935  1.6370  0.8434
   35BDD    C1924468   5.976   2.685  12.948 -0.1158 -0.1830 -0.4025
   35BDD    C2024469   5.944   2.663  13.089  0.1702  1.4812 -0.3484
   35BDD    C2124470   5.799   2.606  13.123  0.1655 -0.1741  0.3322
   35BDD    C2224471   5.665   2.652  13.078 -0.4176  0.3514  0.5409
   35BDD    C2324472   5.555   2.585  13.145 -0.5812  0.0109 -0.9534
   35BDD    C2424473   5.445   2.692  13.149 -0.1038  1.1608 -0.6132
   35BDD    C2524474   6.049   2.559  13.171 -0.9173 -0.8524  1.0710
   35BDD    C2624475   6.055   2.561  13.324 -0.1567 -0.0289  1.4992
   36TPM     C124476   5.725   2.583  12.429 -0.7165 -0.1535 -0.4225
   36TPM     C224477   5.685   2.469  12.493 -0.7049 -0.1610 -0.4286
   36TPM     C324478   5.694   2.351  12.412 -0.6067 -0.1696 -0.4050
   36TPM     C424479   5.741   2.374  12.286 -0.5432 -0.1686 -0.3810
   36TPM     S124480   5.778   2.549  12.260 -0.6033 -0.1566 -0.3863
   37BDTP    C124481   6.067   2.081  11.849  0.0521  0.3828 -0.2103
   37BDTP    C224482   5.934   2.073  11.799  0.0441  0.0106 -0.1330
   37BDTP    C324483   5.825   2.119  11.871 -0.0498 -0.3275 -0.0542
   37BDTP    C424484   5.847   2.177  11.997 -0.1402 -0.2980 -0.0512
   37BDTP    C524485   5.981   2.185  12.047 -0.1322  0.0742 -0.1284
   37BDTP    C624486   6.090   2.138  11.975 -0.0380  0.4123 -0.2073
   37BDTP    C724487   5.750   2.231  12.089 -0.2460 -0.6070  0.0229
   37BDTP    C824488   5.803   2.280  12.204 -0.3167 -0.4865  0.0053
   37BDTP    S124489   5.983   2.263  12.212 -0.2595  0.0355 -0.1077
   37BDTP    C924490   6.165   2.026  11.757  0.1580  0.6918 -0.2844
   37BDTP   C1024491   6.112   1.978  11.642  0.2286  0.5712 -0.2667
   37BDTP    S224492   5.931   1.995  11.634  0.1714  0.0492 -0.1537
   38FTM     S124493   5.590   1.978  11.934 -0.2025  0.7932  0.3439
   38FTM     C124494   5.442   2.013  11.838  0.1871  0.6712 -0.3187
   38FTM     C224495   5.470   2.104  11.741  0.7592 -0.0154 -0.8157
   38FTM     C324496   5.605   2.150  11.735  0.9253 -0.4774 -0.7140
   38FTM     C424497   5.684   2.093  11.831  0.4656 -0.1331 -0.1197
   38FTM     F124498   5.375   2.150  11.652  1.1663 -0.2665 -1.3922
   38FTM     C524499   5.317   1.927  11.841 -0.2311 -0.0050  0.3919
   38FTM     C624500   5.219   1.959  11.946 -0.3108  0.1001  1.4870
   38FTM     C724501   5.152   2.094  11.919 -0.1933 -0.2780 -0.6041
   38FTM     C824502   5.056   2.122  11.802 -1.0142 -0.1791 -1.5131
   38FTM     C924503   4.939   2.020  11.783  0.3366 -0.3913 -1.0023
   38FTM    C1024504   4.843   2.007  11.904  0.4590 -0.3276  0.3546
   38FTM    C1124505   5.255   1.947  12.096  1.6997  1.1335  0.4037
   38FTM    C1224506   5.245   1.813  12.164  1.2926  0.4627  2.6034
   39FTM     S124507   6.254   2.357  12.066 -0.1361  0.4891  0.2717
   39FTM     C124508   6.423   2.313  12.112 -0.2049  0.4479  0.4916
   39FTM     C224509   6.443   2.180  12.092 -0.2218  0.4363  0.5509
   39FTM     C324510   6.331   2.106  12.041 -0.1831  0.4584  0.4319
   39FTM     C424511   6.221   2.185  12.022 -0.1351  0.4876  0.2764
   39FTM     F124512   6.564   2.117  12.118 -0.2733  0.4052  0.7165
   39FTM     C524513   6.532   2.397  12.172  0.6368  0.3470  0.4401
   39FTM     C624514   6.514   2.554  12.181  0.1963  0.2200  0.6544
   39FTM     C724515   6.378   2.633  12.182  0.6558  1.6932  0.7733
   39FTM     C824516   6.308   2.656  12.311  1.4903 -0.3483 -0.4994
   39FTM     C924517   6.304   2.549  12.425  0.4842 -0.2494  0.2072
   39FTM    C1024518   6.162   2.536  12.516 -0.1983  0.6613  0.3489
   39FTM    C1124519   6.637   2.643  12.180  0.0515  0.3089 -0.2529
   39FTM    C1224520   6.716   2.635  12.059 -1.1816  0.4731 -0.7971
   40TPM     C124521   6.176   1.894  11.550 -0.9118  0.6151 -0.7082
   40TPM     C224522   6.121   1.773  11.520 -0.4841  0.3066 -0.2867
   40TPM     C324523   6.206   1.688  11.441 -0.0865  0.2269  0.2145
   40TPM     C424524   6.327   1.744  11.410 -0.2110  0.4748  0.1752
   40TPM     S124525   6.342   1.910  11.480 -0.8450  0.8308 -0.5032
   41BDD     C124526   6.429   1.482  11.138  0.5042  0.1532  0.1483
   41BDD     C224527   6.455   1.603  11.080  0.2797  0.1845  0.1085
   41BDD     C324528   6.429   1.715  11.169 -0.4528  0.1976 -0.1130
   41BDD     C424529   6.383   1.678  11.292 -0.7760  0.1761 -0.2389
   41BDD     S124530   6.369   1.500  11.306 -0.1860  0.1380 -0.0887
   41BDD     C524531   6.506   1.620  10.943  0.7304  0.2034  0.2723
   41BDD     C624532   6.451   1.856  11.127 -0.8054  0.2309 -0.1924
   41BDD     O124533   6.428   1.952  11.203 -1.4369  0.2423 -0.3836
   41BDD     O224534   6.528   1.523  10.867  1.3620  0.1920  0.4635
   41BDD     C724535   6.501   1.873  10.990 -0.3548  0.2499 -0.0281
   41BDD     C824536   6.527   1.760  10.901  0.3777  0.2367  0.1936
   41BDD     C924537   6.574   1.797  10.778  0.7011  0.2582  0.3195
   41BDD     S224538   6.588   1.976  10.764  0.1109  0.2963  0.1691
   41BDD    C1024539   6.528   1.994  10.932 -0.5794  0.2812 -0.0679
   41BDD    C1124540   6.486   2.130  10.989 -0.6664  0.2228 -0.9759
   41BDD    C1224541   6.345   2.191  10.952  1.0237  0.1799 -0.7661
   41BDD    C1324542   6.322   2.320  11.031 -0.2207  0.4395 -0.3505
   41BDD    C1424543   6.345   2.336  11.182 -0.8556  0.2724 -0.4261
   41BDD    C1524544   6.241   2.290  11.274  0.5684 -0.5392  0.7260
   41BDD    C1624545   6.297   2.320  11.412 -0.2644  0.7559 -0.1707
   41BDD    C1724546   6.222   2.086  10.980  0.1797  0.2007 -0.5074
   41BDD    C1824547   6.091   2.105  10.938  0.8128  0.0276 -0.8637
   41BDD    C1924548   6.611   1.730  10.641 -0.8808 -0.2657 -0.1215
   41BDD    C2024549   6.763   1.696  10.621  0.1570  1.1648  0.2088
   41BDD    C2124550   6.778   1.678  10.475  0.0148  0.0564 -0.6456
   41BDD    C2224551   6.923   1.680  10.417 -0.5803  0.6505  0.2105
   41BDD    C2324552   6.924   1.728  10.268  0.0860 -0.2812 -0.9488
   41BDD    C2424553   6.883   1.601  10.185  0.9397  1.1548  0.5268
   41BDD    C2524554   6.812   1.587  10.721  0.6114  0.2240 -0.3104
   41BDD    C2624555   6.850   1.429  10.689  0.1259  0.1103 -0.6123
   42TPM     C124556   6.436   1.348  11.101  0.3435 -0.8145 -0.0834
   42TPM     C224557   6.545   1.278  11.142  0.4612 -0.8572 -0.4563
   42TPM     C324558   6.581   1.169  11.055  0.2358 -0.7544 -0.6797
   42TPM     C424559   6.499   1.157  10.947 -0.0537 -0.6333 -0.4776
   42TPM     S124560   6.369   1.282  10.947 -0.0643 -0.6398  0.0150
   43BDTP    C124561   6.559   0.723  10.499 -0.2705 -0.1027  0.1755
   43BDTP    C224562   6.629   0.663  10.607 -0.1671 -0.1002  0.1104
   43BDTP    C324563   6.638   0.722  10.733 -0.0466 -0.0963  0.0994
   43BDTP    C424564   6.576   0.846  10.752 -0.0265 -0.0948  0.1554
   43BDTP    C524565   6.505   0.906  10.643 -0.1298 -0.0974  0.2210
   43BDTP    C624566   6.496   0.847  10.518 -0.2504 -0.1012  0.2314
   43BDTP    C724567   6.572   0.927  10.872  0.0898 -0.0910  0.1571
   43BDTP    C824568   6.503   1.043  10.860  0.0793 -0.0904  0.2189
   43BDTP    S124569   6.433   1.066  10.693 -0.0800 -0.0948  0.2847
   43BDTP    C924570   6.562   0.642  10.378 -0.3870 -0.1066  0.1740
   43BDTP   C1024571   6.631   0.526  10.391 -0.3761 -0.1071  0.1121
   43BDTP    S224572   6.701   0.503  10.557 -0.2170 -0.1027  0.0461
   44FTM     S124573   6.790   0.734  10.997  0.2353 -0.4390 -0.3248
   44FTM     C124574   6.774   0.585  11.098 -0.6643 -0.1206  0.0285
   44FTM     C224575   6.708   0.489  11.029 -1.3022  0.1280  0.2809
   44FTM     C324576   6.666   0.524  10.896 -1.1345  0.0870  0.2160
   44FTM     C424577   6.701   0.651  10.863 -0.3424 -0.2024 -0.0959
   44FTM     F124578   6.681   0.363  11.081 -2.0759  0.4074  0.5856
   44FTM     C524579   6.803   0.569  11.245  0.5213 -0.1170  0.2021
   44FTM     C624580   6.782   0.448  11.333 -0.1627 -0.0459 -1.1521
   44FTM     C724581   6.905   0.461  11.439  1.0941  0.2365 -0.1426
   44FTM     C824582   7.044   0.439  11.392  0.2381  0.9505 -0.4651
   44FTM     C924583   7.059   0.323  11.304 -0.4446  1.5601  0.0881
   44FTM    C1024584   7.040   0.181  11.352 -0.4559 -0.0708  0.3560
   44FTM    C1124585   6.628   0.439  11.382  0.8111  0.3219 -0.3476
   44FTM    C1224586   6.609   0.334  11.490  0.4142  0.3213 -0.4401
   45FTM     S124587   6.480   1.083  10.359 -0.2140  0.0394  0.3450
   45FTM     C124588   6.368   1.073  10.218  0.6622  0.0401 -0.3741
   45FTM     C224589   6.305   0.952  10.219  1.0302 -0.1668 -1.0731
   45FTM     C324590   6.339   0.863  10.326  0.6624 -0.3344 -1.0927
   45FTM     C424591   6.431   0.917  10.410 -0.0093 -0.2532 -0.3844
   45FTM     F124592   6.212   0.916  10.122  1.7222 -0.2168 -1.7376
   45FTM     C524593   6.365   1.184  10.117 -1.1335  0.3108  0.7963
   45FTM     C624594   6.344   1.332  10.119  1.1283  0.2906 -0.9246
   45FTM     C724595   6.224   1.361  10.205 -0.5972 -1.3829 -0.3520
   45FTM     C824596   6.251   1.466  10.307  1.6269  0.8418  0.7887
   45FTM     C924597   6.163   1.527  10.415 -1.2129  0.5234 -0.2423
   45FTM    C1024598   6.235   1.627  10.519  0.7053 -0.7613 -0.0272
   45FTM    C1124599   6.355   1.416   9.996  0.1617 -0.5438 -1.3826
   45FTM    C1224600   6.333   1.571   9.992 -0.3822 -0.6393 -0.1217
   46TPM     C124601   6.682   0.461  10.276 -0.7899  0.2776  0.1075
   46TPM     C224602   6.781   0.367  10.273 -0.0923  0.9957 -0.2093
   46TPM     C324603   6.784   0.290  10.151  0.5423  1.4823 -0.5114
   46TPM     C424604   6.687   0.326  10.062  0.3283  1.1352 -0.4244
   46TPM     S124605   6.585   0.460  10.125 -0.6991  0.1593  0.0495
   47BDD     C124606   6.756   0.179   9.706  0.6654 -0.2254  0.1971
   47BDD     C224607   6.636   0.129   9.746  0.5234 -0.0424  0.0098
   47BDD     C324608   6.596   0.173   9.879  0.3698  0.0404 -0.0627
   47BDD     C424609   6.687   0.257   9.937  0.3971 -0.0806  0.0697
   47BDD     S124610   6.828   0.286   9.830  0.6169 -0.3066  0.2952
   47BDD     C524611   6.552   0.037   9.665  0.5234  0.0629 -0.1092
   47BDD     C624612   6.470   0.130   9.943  0.2016  0.2367 -0.2618
   47BDD     O124613   6.436   0.169  10.057  0.0690  0.3081 -0.3247
   47BDD     O224614   6.586  -0.001   9.551  0.6560 -0.0086 -0.0465
   47BDD     C724615   6.387   0.039   9.862  0.2017  0.3421 -0.3805
   47BDD     C824616   6.426  -0.005   9.729  0.3554  0.2592 -0.3078
   47BDD     C924617   6.335  -0.089   9.671  0.3282  0.3800 -0.4406
   47BDD     S224618   6.194  -0.118   9.778  0.1084  0.6059 -0.6659
   47BDD    C1024619   6.267  -0.011   9.902  0.0597  0.5250 -0.5677
   47BDD    C1124620   6.190  -0.000  10.038 -0.0498  0.0398  0.8160
   47BDD    C1224621   6.178  -0.121  10.132  0.0255  0.1394 -0.2355
   47BDD    C1324622   6.276  -0.242  10.123  0.5298 -0.0188 -0.4653
   47BDD    C1424623   6.258  -0.359  10.217 -0.9347  0.6019 -0.0752
   47BDD    C1524624   6.382  -0.359  10.315  0.7528  1.0648 -0.7849
   47BDD    C1624625   6.402  -0.497  10.409  0.4183 -0.1097  0.8563
   47BDD    C1724626   6.024  -0.160  10.131 -0.0655  0.2142  0.4509
   47BDD    C1824627   5.953  -0.256  10.035  1.3606  0.9817  1.2258
   47BDD    C1924628   6.337  -0.160   9.537  0.7524 -0.4497 -0.0424
   47BDD    C2024629   6.371  -0.310   9.556  1.4000  0.0577 -0.0779
   47BDD    C2124630   6.316  -0.372   9.423 -0.0309  0.7357  0.7474
   47BDD    C2224631   6.387  -0.359   9.289 -0.6299  0.1127 -0.5195
   47BDD    C2324632   6.336  -0.447   9.174  0.3391  0.3630  0.8443
   47BDD    C2424633   6.206  -0.407   9.098 -0.8932 -0.2500  0.9386
   47BDD    C2524634   6.493  -0.387   9.607 -1.0092 -0.9930  0.1141
   47BDD    C2624635   6.620  -0.381   9.514 -0.4622 -0.3008  0.1859
   48TPM     C124636   6.845   0.159   9.587 -0.2163 -0.4510 -0.2474
   48TPM     C224637   6.819   0.090   9.473  0.0628 -0.6922 -0.1657
   48TPM     C324638   6.936   0.067   9.391  0.1990 -0.5383 -0.0162
   48TPM     C424639   7.050   0.119   9.443  0.0235 -0.1797  0.0162
   48TPM     S124640   7.020   0.202   9.601 -0.3300 -0.0072 -0.1415
   49BDTP    C124641   7.607   0.166   9.156  0.2118  0.3950 -0.2260
   49BDTP    C224642   7.625   0.245   9.274  0.2593  0.2581 -0.1423
   49BDTP    C324643   7.526   0.261   9.369  0.2745  0.2035 -0.1168
   49BDTP    C424644   7.402   0.198   9.348  0.2415  0.2877 -0.1767
   49BDTP    C524645   7.384   0.120   9.230  0.1942  0.4245 -0.2601
   49BDTP    C624646   7.483   0.103   9.135  0.1788  0.4791 -0.2858
   49BDTP    C724647   7.284   0.201   9.432  0.2493  0.2538 -0.1647
   49BDTP    C824648   7.180   0.129   9.384  0.2105  0.3573 -0.2348
   49BDTP    S124649   7.215   0.048   9.225  0.1587  0.5122 -0.3252
   49BDTP    C924650   7.724   0.164   9.072  0.2040  0.4288 -0.2375
   49BDTP   C1024651   7.829   0.235   9.120  0.2427  0.3253 -0.1674
   49BDTP    S224652   7.793   0.316   9.279  0.2946  0.1704 -0.0772
   50FTM     S124653   7.565   0.537   9.414 -0.2641 -0.4994  0.0518
   50FTM     C124654   7.577   0.604   9.581  0.0741 -0.8562  0.1754
   50FTM     C224655   7.570   0.503   9.672 -0.1470 -1.0165 -0.0155
   50FTM     C324656   7.556   0.371   9.619 -0.5823 -0.8751 -0.2632
   50FTM     C424657   7.552   0.370   9.483 -0.6983 -0.5974 -0.2619
   50FTM     F124658   7.577   0.525   9.809  0.0319 -1.3008  0.0234
   50FTM     C524659   7.603   0.760   9.589 -1.0105  0.3820 -0.0617
   50FTM     C624660   7.493   0.854   9.634 -0.0319  0.3243  1.6885
   50FTM     C724661   7.526   0.999   9.629 -1.4351  0.6092  0.3642
   50FTM     C824662   7.529   1.095   9.509  1.1522 -0.2846 -0.1765
   50FTM     C924663   7.470   1.250   9.516  0.6609  0.8549 -0.7227
   50FTM    C1024664   7.566   1.340   9.456 -0.2042 -1.3351  0.0163
   50FTM    C1124665   7.406   0.820   9.757  0.3269 -1.0219 -0.2166
   50FTM    C1224666   7.279   0.902   9.782 -0.0395  0.2553 -0.2421
   51FTM     S124667   7.442   0.090   8.870  0.2644 -0.0224 -0.7755
   51FTM     C124668   7.414  -0.073   8.797 -0.6929 -0.3856  0.3273
   51FTM     C224669   7.420  -0.169   8.893 -0.2352  0.1404  0.8395
   51FTM     C324670   7.446  -0.123   9.026  0.8612  0.8409  0.4160
   51FTM     C424671   7.460   0.012   9.033  1.2563  0.8516 -0.4492
   51FTM     F124672   7.402  -0.303   8.866 -0.7820  0.0188  1.7221
   51FTM     C524673   7.422  -0.082   8.645  1.3552 -0.6620 -0.5120
   51FTM     C624674   7.517  -0.024   8.573 -0.0555 -0.8548 -0.5929
   51FTM     C724675   7.475   0.028   8.435  0.3526 -0.5728 -0.6125
   51FTM     C824676   7.470  -0.084   8.330  0.5501 -0.1726 -0.5218
   51FTM     C924677   7.451  -0.026   8.196  0.1426 -1.8884  1.5364
   51FTM    C1024678   7.324   0.081   8.162  0.0180  0.2916  0.8935
   51FTM    C1124679   7.665  -0.065   8.595  0.4574 -1.4300  0.5958
   51FTM    C1224680   7.764   0.002   8.502  0.8056  0.8546  0.1684
   52TPM     C124681   7.962   0.225   9.065 -0.7824 -0.1959  0.4977
   52TPM     C224682   8.004   0.293   8.955 -0.9794  0.2975  0.7210
   52TPM     C324683   8.135   0.254   8.909 -0.7560  1.0037  0.7315
   52TPM     C424684   8.192   0.156   8.985 -0.3886  1.0489  0.5164
   52TPM     S124685   8.085   0.105   9.120 -0.2958  0.1963  0.2822
   53BDD     C124686   8.550  -0.023   9.035  0.3618  0.1620  0.3349
   53BDD     C224687   8.548   0.020   8.906  0.2787  0.1025  0.3164
   53BDD     C324688   8.424   0.085   8.868  0.1698 -0.1142  0.3006
   53BDD     C424689   8.332   0.090   8.969  0.1722 -0.2172  0.3074
   53BDD     S124690   8.395   0.014   9.119  0.3102 -0.0496  0.3340
   53BDD     C524691   8.661   0.003   8.811  0.2964  0.2437  0.3121
   53BDD     C624692   8.400   0.139   8.733  0.0679 -0.2112  0.2789
   53BDD     O124693   8.293   0.195   8.700 -0.0257 -0.3984  0.2651
   53BDD     O224694   8.768  -0.053   8.844  0.3903  0.4308  0.3257
   53BDD     C724695   8.513   0.122   8.638  0.0856 -0.0708  0.2749
   53BDD     C824696   8.637   0.058   8.676  0.1945  0.1464  0.2904
   53BDD     C924697   8.728   0.052   8.575  0.1929  0.2496  0.2832
   53BDD     S224698   8.665   0.128   8.425  0.0546  0.0821  0.2567
   53BDD    C1024699   8.511   0.165   8.509  0.0026 -0.1297  0.2556
   53BDD    C1124700   8.409   0.212   8.415  1.1359 -1.3246  0.2242
   53BDD    C1224701   8.286   0.130   8.358 -0.6658 -0.5690 -0.6097
   53BDD    C1324702   8.164   0.220   8.307  0.5999  0.0257  0.3389
   53BDD    C1424703   8.087   0.277   8.424  0.3110  0.1601 -0.9305
   53BDD    C1524704   7.951   0.336   8.435  0.4425 -0.6110 -0.7717
   53BDD    C1624705   7.936   0.460   8.335 -0.5249 -0.0098 -0.1412
   53BDD    C1724706   8.306   0.000   8.267  0.2905 -0.3682 -1.5493
   53BDD    C1824707   8.387   0.037   8.142  1.4416  1.2869 -1.0928
   53BDD    C1924708   8.820  -0.050   8.545 -1.8754  0.8658  0.3410
   53BDD    C2024709   8.790  -0.141   8.415  0.6734 -0.4318  0.1073
   53BDD    C2124710   8.643  -0.200   8.426  0.5137  0.3557  0.1583
   53BDD    C2224711   8.582  -0.277   8.305 -0.7390 -0.0088 -0.8327
   53BDD    C2324712   8.652  -0.386   8.255  0.3160 -0.3099 -1.2985
   53BDD    C2424713   8.571  -0.463   8.154 -0.4603  0.6715 -0.2112
   53BDD    C2524714   8.910  -0.252   8.391 -1.1275 -1.3124  0.3198
   53BDD    C2624715   9.057  -0.209   8.334  0.0918  0.3216 -0.0478
   54TPM     C124716   8.646  -0.086   9.130  0.0330 -0.0815 -0.1406
   54TPM     C224717   8.774  -0.124   9.103  0.0041 -0.3507  0.0892
   54TPM     C324718   8.846  -0.170   9.219 -0.2704 -0.4172  0.2363
   54TPM     C424719   8.773  -0.167   9.334 -0.4509 -0.1988  0.1181
   54TPM     S124720   8.606  -0.106   9.305 -0.2869  0.1104 -0.1899
   55BDTP    C124721   8.963  -0.336   9.911  0.3541 -0.0803 -0.3750
   55BDTP    C224722   8.850  -0.254   9.937  0.2961 -0.2277 -0.1516
   55BDTP    C324723   8.774  -0.197   9.835  0.1638 -0.1326  0.0005
   55BDTP    C424724   8.811  -0.222   9.702  0.0839  0.1204 -0.0710
   55BDTP    C524725   8.925  -0.304   9.676  0.1414  0.2685 -0.2947
   55BDTP    C624726   9.001  -0.362   9.777  0.2740  0.1730 -0.4466
   55BDTP    C724727   8.748  -0.174   9.581 -0.0554  0.2604  0.0564
   55BDTP    C824728   8.808  -0.216   9.467 -0.1049  0.5031 -0.0596
   55BDTP    S124729   8.953  -0.322   9.497  0.0186  0.5884 -0.3464
   55BDTP    C924730   9.026  -0.385  10.032  0.4935 -0.2203 -0.5028
   55BDTP   C1024731   8.967  -0.343  10.146  0.5429 -0.4630 -0.3870
   55BDTP    S224732   8.822  -0.237  10.116  0.4195 -0.5483 -0.1002
   56FTM     S124733   8.485  -0.145   9.765 -0.5618  0.7377  0.4122
   56FTM     C124734   8.422  -0.010   9.866 -0.1036  0.1936  1.4580
   56FTM     C224735   8.517   0.030   9.955  0.5302  0.0887  0.8473
   56FTM     C324736   8.642  -0.041   9.950  0.6950  0.4165 -0.4399
   56FTM     C424737   8.642  -0.137   9.854  0.1692  0.7849 -0.8275
   56FTM     F124738   8.496   0.132  10.046  0.9999 -0.3111  1.4174
   56FTM     C524739   8.281   0.040   9.853  0.3449  0.5419 -0.7078
   56FTM     C624740   8.256   0.180   9.775 -0.4107 -0.3071  1.5000
   56FTM     C724741   8.123   0.224   9.715 -0.4840 -0.3768 -0.2562
   56FTM     C824742   8.008   0.132   9.743  0.4162  0.2094 -0.8428
   56FTM     C924743   7.918   0.185   9.849  0.5519  0.1945 -0.9309
   56FTM    C1024744   7.814   0.072   9.883  0.6081  1.2332  0.1133
   56FTM    C1124745   8.348   0.312   9.801  0.2666  0.1295  0.0811
   56FTM    C1224746   8.439   0.349   9.684 -0.7561 -0.5267 -0.3559
   57FTM     S124747   9.256  -0.276   9.781 -0.4928 -0.0997  0.0548
   57FTM     C124748   9.391  -0.388   9.740  0.1035  0.4946  0.3492
   57FTM     C224749   9.341  -0.511   9.710  0.6726  0.4075 -0.2782
   57FTM     C324750   9.198  -0.525   9.716  0.6795 -0.1142 -1.0087
   57FTM     C424751   9.137  -0.409   9.752  0.0965 -0.4371 -0.9382
   57FTM     F124752   9.422  -0.618   9.674  1.2209  0.7949 -0.2286
   57FTM     C524753   9.515  -0.323   9.714 -1.1723  0.8872  1.1629
   57FTM     C624754   9.556  -0.213   9.595  0.3112  1.0663 -0.5267
   57FTM     C724755   9.649  -0.111   9.638 -0.8877 -0.0381 -0.2501
   57FTM     C824756   9.628  -0.051   9.779 -0.1303 -0.5759 -0.3852
   57FTM     C924757   9.721   0.067   9.831 -0.1297 -0.6536  1.6619
   57FTM    C1024758   9.862   0.051   9.778 -0.0704 -0.6345  0.9379
   57FTM    C1124759   9.540  -0.268   9.453 -0.6344 -0.5300  0.8462
   57FTM    C1224760   9.612  -0.386   9.406  1.2482 -0.9087 -0.1820
   58TPM     C124761   8.976  -0.359  10.292 -0.8149  0.4393  0.6955
   58TPM     C224762   8.891  -0.333  10.396 -0.8600 -0.6950  0.9663
   58TPM     C324763   8.948  -0.359  10.525 -0.6084 -1.2884  0.7463
   58TPM     C424764   9.076  -0.404  10.521 -0.3723 -0.6061  0.3080
   58TPM     S124765   9.136  -0.418  10.352 -0.4489  0.8497  0.1374
   59BDD     C124766   9.203  -0.347  10.895 -0.1011 -0.2882 -0.1343
   59BDD     C224767   9.294  -0.432  10.839  0.0470 -0.1423 -0.1161
   59BDD     C324768   9.265  -0.465  10.700  0.4792  0.3128 -0.3233
   59BDD     C424769   9.152  -0.405  10.653  0.6542  0.5079 -0.4970
   59BDD     S124770   9.074  -0.303  10.778  0.2902  0.1347 -0.4129
   59BDD     C524771   9.412  -0.486  10.910 -0.2036 -0.4163  0.0935
   59BDD     C624772   9.351  -0.556  10.621  0.7026  0.5379 -0.3414
   59BDD     O124773   9.325  -0.585  10.501  1.0753  0.9303 -0.5205
   59BDD     O224774   9.437  -0.457  11.030 -0.5763 -0.8087  0.2725
   59BDD     C724775   9.468  -0.610  10.692  0.4525  0.2637 -0.1321
   59BDD     C824776   9.497  -0.576  10.831  0.0200 -0.1915  0.0753
   59BDD     C924777   9.611  -0.636  10.878 -0.1550 -0.3862  0.2491
   59BDD     S224778   9.688  -0.739  10.753  0.2090 -0.0134  0.1649
   59BDD    C1024779   9.559  -0.695  10.637  0.6006  0.4094 -0.1135
   59BDD    C1124780   9.561  -0.757  10.492 -0.0207 -1.4970 -1.3523
   59BDD    C1224781   9.679  -0.855  10.457 -2.2346 -1.9901  0.7296
   59BDD    C1324782   9.813  -0.794  10.378 -0.2417  0.7737 -0.6281
   59BDD    C1424783   9.877  -0.669  10.428  0.1603 -0.6574  0.5670
   59BDD    C1524784  10.009  -0.623  10.368  0.0627 -0.8154 -0.6864
   59BDD    C1624785  10.119  -0.721  10.400 -0.1295  0.8015  0.9260
   59BDD    C1724786   9.658  -0.993  10.407 -0.2836 -0.7070  2.1605
   59BDD    C1824787   9.568  -1.089  10.465  0.3248  0.6587  0.5179
   59BDD    C1924788   9.691  -0.626  11.004  0.4969  0.1620  0.7964
   59BDD    C2024789   9.767  -0.755  11.048 -0.3071 -1.5358 -0.0821
   59BDD    C2124790   9.686  -0.879  11.093  0.1878 -0.6356  1.1752
   59BDD    C2224791   9.559  -0.930  11.021  0.9360 -0.6429 -0.5790
   59BDD    C2324792   9.542  -1.068  11.061 -0.1907  1.3694 -0.7495
   59BDD    C2424793   9.438  -1.145  10.983 -0.5622  0.5076 -0.6429
   59BDD    C2524794   9.906  -0.721  11.094 -1.2857 -0.7396 -0.5119
   59BDD    C2624795  10.030  -0.752  11.013 -0.4440  0.9657 -0.1020
   60TPM     C124796   9.178  -0.299  11.036  0.3970  0.0601 -0.1499
   60TPM     C224797   9.162  -0.394  11.133  0.9716  0.0350 -0.0739
   60TPM     C324798   9.075  -0.353  11.240  0.9570 -0.2959  0.0436
   60TPM     C424799   9.024  -0.227  11.225  0.3708 -0.5238  0.0573
   60TPM     S124800   9.083  -0.150  11.072 -0.2124 -0.3360 -0.0785
    1BDTP    C124801  10.145   7.029   1.826 -0.1035 -0.3517  0.0318
    1BDTP    C224802  10.149   6.928   1.927 -0.0072 -0.2042  0.1769
    1BDTP    C324803  10.267   6.882   1.983  0.0401 -0.0402  0.2142
    1BDTP    C424804  10.388   6.937   1.938 -0.0105 -0.0203  0.1036
    1BDTP    C524805  10.385   7.038   1.837 -0.1070 -0.1678 -0.0415
    1BDTP    C624806  10.266   7.084   1.781 -0.1541 -0.3319 -0.0789
    1BDTP    C724807  10.523   6.905   1.981  0.0232  0.1366  0.1161
    1BDTP    C824808  10.619   6.976   1.918 -0.0427  0.1143 -0.0110
    1BDTP    S124809  10.554   7.093   1.795 -0.1564 -0.1086 -0.1643
    1BDTP    C924810  10.011   7.061   1.783 -0.1371 -0.5087  0.0193
    1BDTP   C1024811   9.914   6.990   1.846 -0.0713 -0.4864  0.1463
    1BDTP    S224812   9.980   6.873   1.969  0.0428 -0.2633  0.2997
    2FTM     S124813  10.157   6.774   2.228 -0.3892  0.2995  0.3584
    2FTM     C124814  10.153   6.594   2.215 -0.5277  0.3126  0.2122
    2FTM     C224815  10.231   6.553   2.112 -0.4759  0.3306  0.2436
    2FTM     C324816  10.297   6.656   2.037 -0.3297  0.3352  0.3801
    2FTM     C424817  10.269   6.780   2.086 -0.2668  0.3203  0.4556
    2FTM     F124818  10.246   6.419   2.078 -0.5589  0.3439  0.1507
    2FTM     C524819  10.051   6.499   2.270 -0.3219  0.5517  0.2005
    2FTM     C624820  10.038   6.487   2.422  0.7967  0.0771  0.9503
    2FTM     C724821   9.926   6.568   2.496 -0.7810  1.0282 -0.5047
    2FTM     C824822   9.795   6.492   2.485  0.1838  0.4056 -1.1139
    2FTM     C924823   9.670   6.579   2.508 -0.6161 -0.2883 -0.2005
    2FTM    C1024824   9.571   6.526   2.616  0.5913  0.4753  0.0484
    2FTM    C1124825  10.166   6.459   2.494 -0.1464 -0.5262 -0.0688
    2FTM    C1224826  10.260   6.579   2.522 -0.6112  0.6399  0.0930
    3FTM     S124827  10.189   7.191   1.536  0.0634 -0.4717 -0.6601
    3FTM     C124828  10.243   7.359   1.496 -0.8864 -0.0202 -0.1293
    3FTM     C224829  10.322   7.407   1.595 -1.4946  0.2815  0.2164
    3FTM     C324830  10.345   7.319   1.706 -1.2639  0.1825  0.0925
    3FTM     C424831  10.281   7.199   1.691 -0.4536 -0.2078 -0.3629
    3FTM     F124832  10.379   7.533   1.592 -2.2957  0.6654  0.6655
    3FTM     C524833  10.194   7.448   1.387 -0.6738  0.5926  1.1041
    3FTM     C624834  10.051   7.466   1.362  0.4440  0.3370  0.1132
    3FTM     C724835   9.957   7.350   1.320 -0.4083  0.5865  0.5360
    3FTM     C824836  10.006   7.270   1.201 -0.9401 -0.4196  0.2309
    3FTM     C924837   9.920   7.149   1.168  0.0452 -0.0235  0.2673
    3FTM    C1024838   9.768   7.146   1.148  0.0929 -1.7474 -0.2009
    3FTM    C1124839   9.986   7.517   1.495 -0.0402  0.4640 -0.0938
    3FTM    C1224840   9.888   7.629   1.491  0.0139 -0.5778 -0.4561
    4TPM     C124841   9.764   6.991   1.839 -0.4533 -0.1074 -0.8796
    4TPM     C224842   9.680   7.010   1.733 -1.0264  0.1462 -0.3937
    4TPM     C324843   9.541   6.988   1.764 -0.9012  0.3774  0.3753
    4TPM     C424844   9.519   6.952   1.893 -0.2331  0.3000  0.4758
    4TPM     S124845   9.673   6.943   1.987  0.2941 -0.0739 -0.3999
    5BDD     C124846   9.193   6.730   1.948 -0.4253  0.1232 -0.2182
    5BDD     C224847   9.167   6.849   2.011 -0.2499  0.1363 -0.1678
    5BDD     C324848   9.275   6.945   2.000 -0.0544 -0.0645 -0.0191
    5BDD     C424849   9.382   6.899   1.930 -0.0838 -0.2277  0.0416
    5BDD     S124850   9.355   6.732   1.871 -0.3579 -0.1415 -0.0831
    5BDD     C524851   9.041   6.877   2.083 -0.2556  0.3339 -0.2545
    5BDD     C624852   9.267   7.080   2.061  0.1543 -0.0869  0.0572
    5BDD     O124853   9.360   7.163   2.053  0.3228 -0.2599  0.1853
    5BDD     O224854   8.948   6.794   2.092 -0.4241  0.5070 -0.3826
    5BDD     C724855   9.141   7.108   2.133  0.1485  0.1109 -0.0295
    5BDD     C824856   9.033   7.012   2.144 -0.0467  0.3115 -0.1782
    5BDD     C924857   8.926   7.058   2.215 -0.0174  0.4748 -0.2389
    5BDD     S224858   8.953   7.225   2.273  0.2568  0.3887 -0.1144
    5BDD    C1024859   9.115   7.227   2.197  0.3242  0.1240  0.0209
    5BDD    C1124860   9.190   7.357   2.177  0.4107 -1.7605 -0.1699
    5BDD    C1224861   9.282   7.420   2.291 -0.2661 -1.8025  0.5614
    5BDD    C1324862   9.387   7.356   2.386  0.9598  0.1196  1.2794
    5BDD    C1424863   9.317   7.226   2.442 -0.2089  0.4062  0.9709
    5BDD    C1524864   9.246   7.253   2.574 -0.0309 -0.8672 -0.2993
    5BDD    C1624865   9.157   7.145   2.627  0.8207 -0.7450 -0.1062
    5BDD    C1724866   9.301   7.568   2.258 -0.0097 -0.5898  0.7487
    5BDD    C1824867   9.249   7.678   2.354 -0.7291  0.2917 -0.3903
    5BDD    C1924868   8.808   6.988   2.245  0.4789  1.0424  0.1892
    5BDD    C2024869   8.796   6.920   2.385  0.9923 -0.1725  1.2575
    5BDD    C2124870   8.656   6.865   2.410 -0.4836 -0.5778  0.1995
    5BDD    C2224871   8.533   6.943   2.410 -0.3565  0.1529  1.1567
    5BDD    C2324872   8.416   6.881   2.480  1.5351  1.0811 -0.9221
    5BDD    C2424873   8.274   6.895   2.407 -0.4040  0.4643 -0.9840
    5BDD    C2524874   8.913   6.851   2.450  1.1943  0.0195  0.0825
    5BDD    C2624875   8.929   6.828   2.607  1.1853  1.8975  1.4749
    6TPM     C124876   9.132   6.599   1.932  1.4478  0.4005  1.0544
    6TPM     C224877   9.142   6.554   1.804  2.4850  0.7854  0.9770
    6TPM     C324878   9.111   6.414   1.790  1.7502  1.0053  0.2047
    6TPM     C424879   9.078   6.352   1.907  0.1525  0.7882 -0.3068
    6TPM     S124880   9.083   6.468   2.045 -0.5532  0.2849  0.1509
    7BDTP    C124881   8.985   5.750   2.065  0.0596  0.0169  0.0545
    7BDTP    C224882   8.851   5.798   2.059  0.0987  0.1425  0.1718
    7BDTP    C324883   8.819   5.929   2.022  0.1884  0.1714  0.1974
    7BDTP    C424884   8.925   6.016   1.990  0.2418  0.0720  0.1026
    7BDTP    C524885   9.059   5.968   1.996  0.2027 -0.0533 -0.0148
    7BDTP    C624886   9.090   5.837   2.032  0.1130 -0.0822 -0.0401
    7BDTP    C724887   8.917   6.155   1.949  0.3359  0.0788  0.1073
    7BDTP    C824888   9.037   6.212   1.925  0.3691 -0.0339  0.0004
    7BDTP    S124889   9.177   6.099   1.950  0.2854 -0.1644 -0.1211
    7BDTP    C924890   8.992   5.611   2.105 -0.0348  0.0103  0.0498
    7BDTP   C1024891   8.872   5.554   2.129 -0.0677  0.1228  0.1566
    7BDTP    S224892   8.732   5.667   2.104  0.0162  0.2536  0.2782
    8FTM     S124893   8.601   6.028   2.185  0.2844 -0.0143 -0.1251
    8FTM     C124894   8.459   6.095   2.097 -0.1348 -0.4696  0.1926
    8FTM     C224895   8.480   6.089   1.963 -0.4728 -0.5193  0.1394
    8FTM     C324896   8.605   6.033   1.921 -0.4272 -0.2136 -0.1448
    8FTM     C424897   8.682   5.995   2.027 -0.0424  0.0797 -0.3147
    8FTM     F124898   8.388   6.134   1.870 -0.8430 -0.8445  0.3449
    8FTM     C524899   8.335   6.127   2.158 -0.2823 -0.3998 -1.3521
    8FTM     C624900   8.273   6.280   2.165 -1.0371  0.9643 -0.1823
    8FTM     C724901   8.368   6.384   2.218 -0.8675 -0.2517 -0.3461
    8FTM     C824902   8.449   6.332   2.340  0.1327 -0.7120  0.5646
    8FTM     C924903   8.458   6.425   2.459  1.3212  0.4183  0.7130
    8FTM    C1024904   8.600   6.442   2.494  0.1764  0.4607  0.4490
    8FTM    C1124905   8.136   6.288   2.205 -0.1734  0.8848  0.3010
    8FTM    C1224906   8.073   6.239   2.337 -0.3248 -0.4154  0.2739
    9FTM     S124907   9.336   5.829   2.175  0.4069  0.3034 -0.1733
    9FTM     C124908   9.474   5.748   2.091  0.1771 -0.5205  0.2208
    9FTM     C224909   9.432   5.698   1.972 -0.0503 -1.3249  0.6217
    9FTM     C324910   9.294   5.719   1.939 -0.0596 -1.3490  0.6463
    9FTM     C424911   9.228   5.787   2.037  0.1678 -0.5365  0.2513
    9FTM     F124912   9.516   5.631   1.885 -0.2635 -2.0872  0.9901
    9FTM     C524913   9.603   5.727   2.154 -0.2709 -1.0107  0.1374
    9FTM     C624914   9.624   5.604   2.234  0.4890 -0.3736 -0.7255
    9FTM     C724915   9.721   5.601   2.359  1.3945  0.2428 -0.3513
    9FTM     C824916   9.678   5.705   2.468  1.8703  0.6463  0.8075
    9FTM     C924917   9.553   5.668   2.537  0.4934 -0.8928  0.3225
    9FTM    C1024918   9.507   5.748   2.659  0.3944 -0.2400 -0.0739
    9FTM    C1124919   9.570   5.474   2.163  0.3885  0.5837  0.5699
    9FTM    C1224920   9.585   5.339   2.241 -1.0478 -0.6579 -1.1645
   10TPM     C124921   8.844   5.405   2.134  0.7644  0.2926  0.3388
   10TPM     C224922   8.754   5.343   2.216  0.7086  0.5454  0.4711
   10TPM     C324923   8.738   5.203   2.188  0.3037  0.5802  0.5203
   10TPM     C424924   8.816   5.157   2.086  0.0505  0.3538  0.4256
   10TPM     S124925   8.916   5.289   2.015  0.3060  0.0771  0.2656
   11BDD     C124926   8.782   4.776   2.161 -0.2220  0.1787  0.2992
   11BDD     C224927   8.913   4.791   2.123 -0.2422  0.0718  0.1887
   11BDD     C324928   8.948   4.927   2.087 -0.2682 -0.0330 -0.2460
   11BDD     C424929   8.843   5.015   2.098 -0.2677 -0.0046 -0.4608
   11BDD     S124930   8.694   4.932   2.154 -0.2348  0.1553 -0.1334
   11BDD     C524931   9.010   4.680   2.119 -0.2379  0.0622  0.4788
   11BDD     C624932   9.083   4.965   2.043 -0.2925 -0.1576 -0.4327
   11BDD     O124933   9.114   5.083   2.013 -0.3150 -0.2480 -0.8076
   11BDD     O224934   8.980   4.562   2.150 -0.2155  0.1527  0.8537
   11BDD     C724935   9.181   4.854   2.039 -0.2880 -0.1671 -0.1426
   11BDD     C824936   9.146   4.718   2.075 -0.2618 -0.0622  0.2921
   11BDD     C924937   9.250   4.630   2.064 -0.2625 -0.0906  0.5069
   11BDD     S224938   9.400   4.713   2.008 -0.2956 -0.2506  0.1795
   11BDD    C1024939   9.311   4.869   2.001 -0.3080 -0.2739 -0.2531
   11BDD    C1124940   9.397   4.988   2.010 -1.0167 -0.9429 -0.8279
   11BDD    C1224941   9.492   5.018   1.888  0.7427  0.1259  0.3406
   11BDD    C1324942   9.619   4.929   1.848 -0.1675 -1.2465 -0.5224
   11BDD    C1424943   9.671   4.944   1.708 -0.0147  1.0144 -0.7482
   11BDD    C1524944   9.770   4.828   1.659  0.5547 -0.3321  1.1495
   11BDD    C1624945   9.786   4.809   1.504  0.3866 -0.5458 -0.1779
   11BDD    C1724946   9.547   5.155   1.917  0.8584 -0.7466 -0.1844
   11BDD    C1824947   9.448   5.267   1.917 -0.3018  0.3134  0.5917
   11BDD    C1924948   9.273   4.485   2.102 -0.7141  0.1988 -0.3372
   11BDD    C2024949   9.219   4.375   1.997 -0.8500  0.6013 -1.6300
   11BDD    C2124950   9.245   4.232   2.065  0.2406  0.9823 -0.4917
   11BDD    C2224951   9.179   4.117   1.993  1.1075  1.3428  0.1407
   11BDD    C2324952   9.034   4.115   1.922 -0.5265  0.2849 -0.0488
   11BDD    C2424953   9.020   4.102   1.768 -0.5553  0.2584 -0.8544
   11BDD    C2524954   9.272   4.384   1.857 -0.8359  0.1682 -0.0151
   11BDD    C2624955   9.225   4.474   1.761  0.1016 -0.0632  0.2875
   12TPM     C124956   8.686   4.683   2.207  0.1663  0.1724  0.3745
   12TPM     C224957   8.717   4.557   2.249  0.0510  0.2760  0.7766
   12TPM     C324958   8.609   4.491   2.319 -0.1750  0.4226  0.5709
   12TPM     C424959   8.497   4.567   2.331 -0.2316  0.4309  0.0118
   12TPM     S124960   8.518   4.729   2.253 -0.0027  0.2528 -0.3006
   13BDTP    C124961   7.987   4.393   2.664 -0.4184  0.2339  0.0528
   13BDTP    C224962   7.978   4.535   2.666 -0.2564  0.2440  0.1464
   13BDTP    C324963   8.069   4.618   2.600 -0.1414  0.1850  0.2314
   13BDTP    C424964   8.174   4.557   2.530 -0.1879  0.1128  0.2242
   13BDTP    C524965   8.183   4.415   2.528 -0.3495  0.1026  0.1307
   13BDTP    C624966   8.093   4.333   2.593 -0.4645  0.1617  0.0456
   13BDTP    C724967   8.280   4.621   2.455 -0.0899  0.0433  0.3020
   13BDTP    C824968   8.367   4.536   2.397 -0.1693 -0.0176  0.2718
   13BDTP    S124969   8.328   4.361   2.430 -0.3793  0.0044  0.1405
   13BDTP    C924970   7.881   4.329   2.739 -0.5164  0.3034 -0.0250
   13BDTP   C1024971   7.794   4.415   2.796 -0.4369  0.3643  0.0051
   13BDTP    S224972   7.833   4.589   2.764 -0.2269  0.3423  0.1364
   14FTM     S124973   8.089   4.868   2.467  0.2419 -0.5076  0.0776
   14FTM     C124974   8.074   5.021   2.562  0.2874 -0.4992  0.0715
   14FTM     C224975   8.045   4.992   2.692 -0.5596 -0.4656 -0.0941
   14FTM     C324976   8.034   4.853   2.725 -1.2786 -0.4450 -0.2232
   14FTM     C424977   8.054   4.773   2.617 -0.9717 -0.4632 -0.1543
   14FTM     F124978   8.028   5.090   2.789 -0.7346 -0.4518 -0.1386
   14FTM     C524979   8.090   5.161   2.498  0.2206  0.5356  0.9127
   14FTM     C624980   7.992   5.279   2.474 -0.6221  1.0991 -0.1057
   14FTM     C724981   7.892   5.283   2.370  0.0271 -0.3726  0.5272
   14FTM     C824982   7.959   5.296   2.233 -0.0558 -0.0660 -1.0512
   14FTM     C924983   7.890   5.400   2.156  0.5673  0.2864  0.9622
   14FTM    C1024984   7.985   5.482   2.078  1.1924 -0.4027  1.3144
   14FTM    C1124985   7.969   5.365   2.604 -1.9302  0.3058  0.9232
   14FTM    C1224986   7.957   5.512   2.578  0.3904 -0.8285 -0.2889
   15FTM     S124987   8.248   4.113   2.659  0.1200 -0.1711 -0.0739
   15FTM     C124988   8.215   3.962   2.568  0.5464  0.1111 -0.7148
   15FTM     C224989   8.109   3.981   2.484  0.7086  0.2663 -0.8843
   15FTM     C324990   8.050   4.111   2.485  0.5157  0.1773 -0.5348
   15FTM     C424991   8.112   4.195   2.573  0.1956 -0.0535 -0.0828
   15FTM     F124992   8.061   3.881   2.400  1.0412  0.4981 -1.3662
   15FTM     C524993   8.308   3.861   2.593 -1.0904  0.2945 -1.6485
   15FTM     C624994   8.275   3.712   2.605 -0.2688 -0.1147 -0.4535
   15FTM     C724995   8.152   3.699   2.715  0.9370  0.8245 -0.0155
   15FTM     C824996   8.050   3.592   2.666 -0.1860  0.0160  0.8974
   15FTM     C924997   7.956   3.562   2.774 -0.3162  0.9515  0.1612
   15FTM    C1024998   7.853   3.674   2.786  0.5377 -1.0341  0.7907
   15FTM    C1124999   8.400   3.656   2.658 -0.0772 -0.6658  0.2532
   15FTM    C1225000   8.405   3.509   2.692 -0.9277  0.5658 -1.7380
   16TPM     C125001   7.662   4.371   2.836 -0.6925 -0.0095  0.7914
   16TPM     C225002   7.589   4.450   2.921 -0.5870 -0.3316  1.1905
   16TPM     C325003   7.468   4.389   2.968 -0.5089 -0.5285  1.1384
   16TPM     C425004   7.448   4.263   2.920 -0.5546 -0.3563  0.6995
   16TPM     S125005   7.581   4.212   2.810 -0.7012  0.0709  0.3151
   17BDD     C125006   7.170   4.033   3.073 -0.0073  0.0856  0.0877
   17BDD     C225007   7.140   4.049   2.940 -0.0710  0.1670  0.1116
   17BDD     C325008   7.236   4.132   2.869 -0.1420  0.2652  0.1306
   17BDD     C425009   7.337   4.178   2.948 -0.1309  0.2573  0.1211
   17BDD     S125010   7.320   4.122   3.117 -0.0311  0.1262  0.0876
   17BDD     C525011   7.023   3.988   2.874 -0.0695  0.1573  0.1175
   17BDD     C625012   7.223   4.162   2.725 -0.2180  0.3635  0.1575
   17BDD     O125013   7.305   4.233   2.663 -0.2792  0.4481  0.1739
   17BDD     O225014   6.941   3.916   2.936 -0.0085  0.0726  0.1011
   17BDD     C725015   7.106   4.101   2.659 -0.2165  0.3538  0.1636
   17BDD     C825016   7.010   4.018   2.730 -0.1457  0.2556  0.1445
   17BDD     C925017   6.909   3.971   2.651 -0.1566  0.2634  0.1541
   17BDD     S225018   6.926   4.028   2.482 -0.2566  0.3944  0.1876
   17BDD    C1025019   7.076   4.116   2.526 -0.2805  0.4351  0.1875
   17BDD    C1125020   7.134   4.201   2.422  0.2191  0.7878  0.3834
   17BDD    C1225021   7.082   4.335   2.371 -0.9331 -0.0529 -0.7178
   17BDD    C1325022   6.932   4.371   2.382 -1.2997  1.1751  0.2455
   17BDD    C1425023   6.840   4.303   2.274  0.9877  1.0350 -0.0956
   17BDD    C1525024   6.691   4.325   2.339 -0.6899 -0.2281 -0.4390
   17BDD    C1625025   6.614   4.414   2.254  0.4941  1.1959 -0.2882
   17BDD    C1725026   7.187   4.381   2.258  0.8550  0.8579 -1.2417
   17BDD    C1825027   7.183   4.325   2.117  0.3399 -0.5899  0.2734
   17BDD    C1925028   6.785   3.885   2.678 -0.5698  0.7288  0.1802
   17BDD    C2025029   6.768   3.750   2.592  0.4148 -1.0660  0.2816
   17BDD    C2125030   6.632   3.677   2.594  0.1184  1.2202 -0.7734
   17BDD    C2225031   6.516   3.737   2.529  1.3069  0.1409  0.2333
   17BDD    C2325032   6.475   3.691   2.398  0.3538 -0.2970 -0.0043
   17BDD    C2425033   6.353   3.752   2.324 -0.1968 -1.3422  1.1189
   17BDD    C2525034   6.866   3.651   2.554  0.5504  0.1494 -0.8377
   17BDD    C2625035   6.925   3.559   2.662  0.3807  0.2197 -0.2682
   18TPM     C125036   7.113   3.943   3.180  0.6777 -0.4013  0.2419
   18TPM     C225037   7.080   3.814   3.154  1.3534 -0.5175 -0.0929
   18TPM     C325038   7.058   3.734   3.272  1.2791 -0.8029 -0.2964
   18TPM     C425039   7.076   3.803   3.388  0.5467 -0.9042 -0.1167
   18TPM     S125040   7.121   3.975   3.358 -0.1110 -0.6451  0.3268
   19BDTP    C125041   7.047   3.554   3.970  0.3941  0.2294 -0.1315
   19BDTP    C225042   7.034   3.440   3.886  0.1186  0.1349  0.0370
   19BDTP    C325043   7.031   3.448   3.748 -0.0060 -0.0504  0.0268
   19BDTP    C425044   7.042   3.576   3.689  0.1479 -0.1475 -0.1578
   19BDTP    C525045   7.055   3.690   3.773  0.4236 -0.0531 -0.3262
   19BDTP    C625046   7.057   3.681   3.911  0.5481  0.1323 -0.3160
   19BDTP    C725047   7.042   3.609   3.548  0.0629 -0.3397 -0.2044
   19BDTP    C825048   7.054   3.742   3.522  0.2587 -0.3935 -0.3971
   19BDTP    S125049   7.067   3.842   3.673  0.5785 -0.2082 -0.5468
   19BDTP    C925050   7.047   3.520   4.111  0.4793  0.4216 -0.0846
   19BDTP   C1025051   7.035   3.388   4.137  0.2835  0.4754  0.1080
   19BDTP    S225052   7.021   3.287   3.986 -0.0364  0.2901  0.2575
   20FTM     S125053   6.872   3.237   3.651  0.1903 -0.1016 -0.0865
   20FTM     C125054   6.919   3.172   3.489  0.0965  0.3181 -0.2856
   20FTM     C225055   7.040   3.221   3.453 -0.0585  0.6508 -0.3684
   20FTM     C325056   7.103   3.309   3.546 -0.1128  0.6010 -0.2843
   20FTM     C425057   7.027   3.329   3.658  0.0047  0.2176 -0.1319
   20FTM     F125058   7.102   3.188   3.333 -0.1607  1.0203 -0.5255
   20FTM     C525059   6.832   3.084   3.405  1.0225  0.1176 -1.2365
   20FTM     C625060   6.744   3.115   3.276 -0.4802 -0.7336  1.6336
   20FTM     C725061   6.703   3.257   3.248  0.0942 -0.2752  0.3541
   20FTM     C825062   6.798   3.377   3.222 -0.7797 -0.8116 -0.7002
   20FTM     C925063   6.734   3.484   3.126 -0.2338 -0.7323 -1.8250
   20FTM    C1025064   6.748   3.464   2.981 -0.6077 -0.2783  0.7760
   20FTM    C1125065   6.679   2.988   3.209 -1.3916  1.0072 -0.4838
   20FTM    C1225066   6.627   2.980   3.058 -1.9112  0.3220 -0.7270
   21FTM     S125067   7.236   3.793   4.089  0.1105 -0.1859  0.5592
   21FTM     C125068   7.210   3.965   4.135  0.0071 -0.1557  0.3909
   21FTM     C225069   7.100   4.014   4.071  0.3211 -0.1069 -0.1210
   21FTM     C325070   7.032   3.923   3.984  0.6533 -0.0905 -0.4066
   21FTM     C425071   7.090   3.800   3.982  0.5916 -0.1278 -0.1035
   21FTM     F125072   7.056   4.144   4.087  0.3265 -0.0743 -0.3612
   21FTM     C525073   7.332   4.023   4.205 -1.9474 -0.3800 -0.6640
   21FTM     C625074   7.352   4.165   4.277  0.7413 -1.1219 -0.6185
   21FTM     C725075   7.487   4.231   4.267 -0.1243 -0.5947  0.5607
   21FTM     C825076   7.518   4.288   4.126  0.5863  0.1627 -0.2984
   21FTM     C925077   7.666   4.323   4.138  0.8853 -0.8553  0.0924
   21FTM    C1025078   7.782   4.230   4.189  0.2990 -0.3888  0.8342
   21FTM    C1125079   7.299   4.163   4.430 -0.5829 -0.1876  1.4843
   21FTM    C1225080   7.363   4.036   4.493 -1.6811  0.4886  0.9120
   22TPM     C125081   7.021   3.331   4.270  0.7725 -0.1323 -0.4355
   22TPM     C225082   7.098   3.375   4.374  0.6126  0.2556 -0.4780
   22TPM     C325083   7.069   3.309   4.499  0.3430  0.7975 -0.2468
   22TPM     C425084   6.971   3.215   4.490  0.2972  0.8226 -0.0279
   22TPM     S125085   6.906   3.202   4.322  0.5936  0.1590 -0.0972
   23BDD     C125086   6.900   2.938   4.774  0.0698  0.2905 -0.1904
   23BDD     C225087   6.818   3.043   4.803 -0.0310  0.2139 -0.1948
   23BDD     C325088   6.827   3.151   4.706 -0.1173  0.2288 -0.1870
   23BDD     C425089   6.917   3.126   4.606 -0.0813  0.3166 -0.1769
   23BDD     S125090   6.995   2.966   4.625  0.0634  0.3867 -0.1764
   23BDD     C525091   6.727   3.049   4.919 -0.0514  0.1242 -0.2060
   23BDD     C625092   6.748   3.275   4.717 -0.2325  0.1553 -0.1901
   23BDD     O125093   6.756   3.368   4.634 -0.3070  0.1683 -0.1835
   23BDD     O225094   6.719   2.956   5.003  0.0230  0.1113 -0.2127
   23BDD     C725095   6.657   3.281   4.834 -0.2530  0.0656 -0.2017
   23BDD     C825096   6.648   3.173   4.930 -0.1667  0.0507 -0.2092
   23BDD     C925097   6.558   3.198   5.031 -0.2027 -0.0371 -0.2193
   23BDD     S225098   6.480   3.358   5.011 -0.3473 -0.1072 -0.2199
   23BDD    C1025099   6.575   3.387   4.862 -0.3536 -0.0110 -0.2061
   23BDD    C1125100   6.575   3.530   4.822 -1.0176 -0.8168 -0.4310
   23BDD    C1225101   6.474   3.581   4.717  1.2162  0.2386  1.6156
   23BDD    C1325102   6.326   3.569   4.747 -0.5802 -0.1719 -0.1469
   23BDD    C1425103   6.234   3.615   4.637 -0.5128  0.6368  0.9927
   23BDD    C1525104   6.087   3.593   4.648 -1.1600 -1.5713  0.7253
   23BDD    C1625105   6.038   3.447   4.661  1.2373  0.2916  0.4983
   23BDD    C1725106   6.540   3.699   4.637  0.3736  0.1439  0.2843
   23BDD    C1825107   6.561   3.849   4.671  1.0875  0.9382 -0.0408
   23BDD    C1925108   6.526   3.113   5.161  0.9025 -1.1952 -0.1551
   23BDD    C2025109   6.379   3.058   5.150 -0.5407 -0.3578  0.2205
   23BDD    C2125110   6.282   3.081   5.255  0.1933  0.0133 -0.7509
   23BDD    C2225111   6.254   3.217   5.306  0.9203 -0.2699  0.0120
   23BDD    C2325112   6.135   3.216   5.418  0.9818  0.0244  2.8392
   23BDD    C2425113   5.989   3.201   5.354 -0.7314 -0.2375 -0.7312
   23BDD    C2525114   6.368   2.937   5.050 -1.2378  0.0094 -1.5346
   23BDD    C2625115   6.243   2.856   5.034 -0.2591  1.3332  0.0537
   24TPM     C125116   6.943   2.820   4.844 -0.2537 -0.3638 -1.0050
   24TPM     C225117   7.042   2.827   4.938  0.0240 -0.1630 -1.3063
   24TPM     C325118   7.103   2.700   4.968 -0.1382 -0.1622 -0.9580
   24TPM     C425119   7.051   2.596   4.896 -0.5394 -0.3623 -0.3910
   24TPM     S125120   6.920   2.651   4.785 -0.7452 -0.5688 -0.2523
   25BDTP    C125121   7.203   2.009   4.771 -0.3800  0.0535 -0.0938
   25BDTP    C225122   7.134   1.997   4.895  0.0726 -0.0839  0.1493
   25BDTP    C325123   7.085   2.106   4.965  0.2993 -0.1636  0.4357
   25BDTP    C425124   7.106   2.234   4.910  0.0699 -0.1053  0.4853
   25BDTP    C525125   7.175   2.247   4.786 -0.3828  0.0321  0.2424
   25BDTP    C625126   7.224   2.137   4.716 -0.6096  0.1118 -0.0439
   25BDTP    C725127   7.064   2.362   4.964  0.2348 -0.1678  0.7623
   25BDTP    C825128   7.098   2.468   4.888 -0.0681 -0.0850  0.7391
   25BDTP    S125129   7.188   2.422   4.737 -0.6050  0.0836  0.3637
   25BDTP    C925130   7.245   1.881   4.716 -0.5451  0.1159 -0.3705
   25BDTP   C1025131   7.211   1.775   4.792 -0.2422  0.0332 -0.3476
   25BDTP    S225132   7.121   1.821   4.944  0.2947 -0.1355  0.0281
   26FTM     S125133   6.998   2.196   5.234 -0.5301  0.0024  0.1823
   26FTM     C125134   6.866   2.096   5.304 -0.4183 -0.0832  0.2733
   26FTM     C225135   6.830   1.999   5.216 -0.2067 -0.2985  0.4232
   26FTM     C325136   6.902   1.996   5.092 -0.1206 -0.4075  0.4752
   26FTM     C425137   6.996   2.095   5.085 -0.2713 -0.2710  0.3613
   26FTM     F125138   6.730   1.906   5.242 -0.0783 -0.4098  0.5223
   26FTM     C525139   6.794   2.141   5.435  0.6234  0.8775  0.0721
   26FTM     C625140   6.772   2.076   5.564 -0.1138  0.6430  0.7819
   26FTM     C725141   6.616   2.040   5.560  1.0312  1.3581 -0.2274
   26FTM     C825142   6.552   1.948   5.674  0.1830 -0.4418  0.5733
   26FTM     C925143   6.404   1.906   5.670  0.1104  0.1124 -1.1435
   26FTM    C1025144   6.319   2.031   5.669  0.5292  0.5431  0.3758
   26FTM    C1125145   6.832   2.129   5.692  1.0532 -0.2251  0.1813
   26FTM    C1225146   6.729   2.222   5.775 -0.9692  0.3415 -0.8005
   27FTM     S125147   7.231   2.065   4.442 -0.0183 -0.1020  0.2695
   27FTM     C125148   7.348   2.155   4.339 -0.2892 -0.2163 -0.1418
   27FTM     C225149   7.417   2.245   4.414 -0.0993 -0.1207 -0.4257
   27FTM     C325150   7.383   2.249   4.553  0.2601  0.0432 -0.3428
   27FTM     C425151   7.286   2.160   4.586  0.3479  0.0741  0.0165
   27FTM     F125152   7.514   2.329   4.361 -0.2393 -0.1761 -0.7778
   27FTM     C525153   7.369   2.135   4.181  0.3280  1.0583 -1.5185
   27FTM     C625154   7.270   2.066   4.085  1.1494 -0.3576 -0.5088
   27FTM     C725155   7.124   2.120   4.066  0.0311  0.0385 -0.6993
   27FTM     C825156   7.102   2.284   4.067  0.5824 -0.4330  0.0647
   27FTM     C925157   7.089   2.331   3.925 -0.7858 -0.2875  0.0553
   27FTM    C1025158   7.220   2.381   3.877 -0.3488 -1.1974  0.0513
   27FTM    C1125159   7.244   1.914   4.095  1.0656 -0.6116  0.0946
   27FTM    C1225160   7.364   1.834   4.071 -0.3678  1.6147  0.6004
   28TPM     C125161   7.240   1.639   4.752  0.5892 -0.5912 -0.0430
   28TPM     C225162   7.203   1.523   4.814  1.1637 -0.6167  0.2651
   28TPM     C325163   7.241   1.404   4.741  1.2484 -0.6094  0.2968
   28TPM     C425164   7.306   1.430   4.624  0.7385 -0.5783  0.0128
   28TPM     S125165   7.325   1.607   4.597  0.1066 -0.5557 -0.3192
   29BDD     C125166   7.224   1.210   4.310 -0.1311  0.1040 -0.0791
   29BDD     C225167   7.301   1.130   4.390 -0.1099  0.1156 -0.0875
   29BDD     C325168   7.344   1.195   4.512 -0.1745  0.0954 -0.0539
   29BDD     C425169   7.300   1.324   4.524 -0.2441  0.0688 -0.0202
   29BDD     S125170   7.201   1.373   4.382 -0.2338  0.0671 -0.0281
   29BDD     C525171   7.337   0.991   4.357 -0.0292  0.1456 -0.1270
   29BDD     C625172   7.427   1.128   4.614 -0.1650  0.1034 -0.0566
   29BDD     O125173   7.464   1.184   4.719 -0.2208  0.0860 -0.0277
   29BDD     O225174   7.300   0.935   4.252  0.0266  0.1630 -0.1559
   29BDD     C725175   7.463   0.988   4.581 -0.0842  0.1334 -0.0961
   29BDD     C825176   7.420   0.923   4.459 -0.0196  0.1536 -0.1297
   29BDD     C925177   7.464   0.794   4.447  0.0501  0.1802 -0.1633
   29BDD     S225178   7.563   0.745   4.589  0.0396  0.1820 -0.1554
   29BDD    C1025179   7.540   0.908   4.661 -0.0631  0.1450 -0.1047
   29BDD    C1125180   7.607   0.930   4.808  1.5439 -1.0040  0.3732
   29BDD    C1225181   7.556   0.858   4.936  0.1588 -0.9901 -1.0350
   29BDD    C1325182   7.395   0.869   4.924 -1.4344  0.5682 -0.4147
   29BDD    C1425183   7.317   0.986   4.986 -0.3105  1.2052  0.5171
   29BDD    C1525184   7.195   0.925   5.042  0.7167  0.0972  0.1002
   29BDD    C1625185   7.083   1.030   5.014  0.0315  0.7501 -0.7342
   29BDD    C1725186   7.624   0.865   5.070  1.0619  1.1679  0.3358
   29BDD    C1825187   7.680   0.978   5.130 -0.3057 -1.4961 -0.8689
   29BDD    C1925188   7.477   0.698   4.326  0.2194 -0.6780  0.1928
   29BDD    C2025189   7.629   0.708   4.272 -1.0439 -0.6016 -0.0536
   29BDD    C2125190   7.670   0.586   4.185  0.9758  0.0558  0.1484
   29BDD    C2225191   7.620   0.580   4.045  0.1160  0.8714  0.7307
   29BDD    C2325192   7.515   0.675   3.984  1.0591 -0.4804  0.3100
   29BDD    C2425193   7.496   0.631   3.836 -0.2587  1.0418 -0.9341
   29BDD    C2525194   7.703   0.838   4.236  0.9620 -1.8837  0.1994
   29BDD    C2625195   7.847   0.857   4.240 -0.2165 -0.7691  0.6311
   30TPM     C125196   7.157   1.193   4.172  0.2158  0.1021 -0.9326
   30TPM     C225197   7.142   1.301   4.090 -0.1080 -0.0850 -1.1247
   30TPM     C325198   7.050   1.279   3.981 -0.4870 -0.3596 -0.7567
   30TPM     C425199   6.995   1.155   3.980 -0.4519 -0.3818 -0.2840
   30TPM     S125200   7.055   1.055   4.118  0.0664 -0.0551 -0.2668
   31BDTP    C125201   7.002   0.864   3.428  0.5162  0.2046  0.2138
   31BDTP    C225202   7.016   1.001   3.390  0.4896  0.2410  0.3341
   31BDTP    C325203   7.013   1.105   3.482  0.2390  0.1759  0.3995
   31BDTP    C425204   6.994   1.073   3.618  0.0035  0.0700  0.3437
   31BDTP    C525205   6.980   0.936   3.656  0.0302  0.0336  0.2233
   31BDTP    C625206   6.984   0.832   3.564  0.2807  0.0987  0.1580
   31BDTP    C725207   6.987   1.163   3.731 -0.2774 -0.0120  0.3933
   31BDTP    C825208   6.969   1.102   3.850 -0.4604 -0.1070  0.3170
   31BDTP    S125209   6.958   0.921   3.836 -0.3030 -0.1058  0.1715
   31BDTP    C925210   7.009   0.774   3.315  0.7969  0.2866  0.1640
   31BDTP   C1025211   7.028   0.835   3.196  0.9801  0.3815  0.2404
   31BDTP    S225212   7.039   1.016   3.210  0.8225  0.3804  0.3859
   32FTM     S125213   6.908   1.331   3.326  0.0269 -0.1748 -0.3955
   32FTM     C125214   7.000   1.485   3.344  0.1454 -0.2508 -0.3471
   32FTM     C225215   7.108   1.465   3.424 -0.0514 -0.2817 -0.0868
   32FTM     C325216   7.125   1.332   3.475 -0.2999 -0.2488  0.0867
   32FTM     C425217   7.028   1.248   3.433 -0.2936 -0.1910 -0.0449
   32FTM     F125218   7.197   1.566   3.456 -0.0178 -0.3414  0.0098
   32FTM     C525219   6.963   1.613   3.300  0.6907 -0.5680 -0.5279
   32FTM     C625220   6.967   1.630   3.156 -0.7917 -0.1250  1.4327
   32FTM     C725221   6.904   1.763   3.115 -0.2657 -1.3135  0.0282
   32FTM     C825222   6.761   1.741   3.083 -0.4240 -0.3306  0.0888
   32FTM     C925223   6.668   1.867   3.097 -0.7409 -0.2606  0.4928
   32FTM    C1025224   6.659   1.916   3.236  0.9225 -0.1744 -0.6323
   32FTM    C1125225   7.109   1.606   3.087 -0.6273  1.1623  0.9077
   32FTM    C1225226   7.141   1.631   2.937 -0.7605 -1.7847  0.1257
   33FTM     S125227   7.130   0.601   3.674 -0.3084  0.0387  0.0287
   33FTM     C125228   7.021   0.480   3.752  0.0905 -0.3316  0.0180
   33FTM     C225229   6.891   0.519   3.738 -0.0223 -0.6124  0.2723
   33FTM     C325230   6.869   0.642   3.667 -0.4163 -0.5582  0.4860
   33FTM     C425231   6.985   0.699   3.626 -0.6114 -0.2249  0.3921
   33FTM     F125232   6.785   0.445   3.788  0.2244 -0.9353  0.3269
   33FTM     C525233   7.088   0.358   3.823 -0.6561 -0.8706  0.1486
   33FTM     C625234   7.080   0.207   3.822  0.9593  0.3220 -0.7619
   33FTM     C725235   7.132   0.132   3.943 -0.5266  0.7380 -0.2374
   33FTM     C825236   7.244   0.180   4.031  0.0090  0.5026  0.6038
   33FTM     C925237   7.352   0.080   4.052 -0.2564  0.4741  0.1634
   33FTM    C1025238   7.496   0.124   4.016  1.8613  0.1837  1.6572
   33FTM    C1125239   7.110   0.143   3.701 -0.5825  0.5349 -0.3848
   33FTM    C1225240   7.071   0.183   3.567 -0.1405 -1.2402 -1.5077
   34TPM     C125241   7.034   0.782   3.070 -0.3486  0.1379 -0.1347
   34TPM     C225242   7.134   0.801   2.979 -0.8572  0.7984 -0.5777
   34TPM     C325243   7.115   0.728   2.856 -1.0273  0.8518 -0.5837
   34TPM     C425244   7.000   0.654   2.853 -0.6483  0.2320 -0.1452
   34TPM     S125245   6.907   0.670   3.007 -0.0425 -0.4727  0.3129
   35BDD     C125246   6.803   0.560   2.533  0.0169 -0.3335 -0.0939
   35BDD     C225247   6.933   0.539   2.499  0.0451 -0.1600 -0.0954
   35BDD     C325248   7.026   0.569   2.606  0.0098  0.0117 -0.1130
   35BDD     C425249   6.965   0.613   2.720 -0.0450 -0.0333 -0.1248
   35BDD     S125250   6.787   0.620   2.702 -0.0556 -0.2938 -0.1146
   35BDD     C525251   6.977   0.490   2.367  0.1054 -0.1458 -0.0806
   35BDD     C625252   7.173   0.554   2.591  0.0314  0.2143 -0.1175
   35BDD     O125253   7.253   0.580   2.683  0.0008  0.3624 -0.1327
   35BDD     O225254   6.897   0.464   2.274  0.1359 -0.2939 -0.0655
   35BDD     C725255   7.217   0.505   2.459  0.0916  0.2285 -0.1029
   35BDD     C825256   7.123   0.474   2.352  0.1270  0.0567 -0.0853
   35BDD     C925257   7.184   0.431   2.237  0.1816  0.1018 -0.0736
   35BDD     S225258   7.363   0.424   2.256  0.1923  0.3622 -0.0837
   35BDD    C1025259   7.347   0.484   2.424  0.1198  0.4020 -0.1044
   35BDD    C1125260   7.472   0.483   2.505  0.3973 -0.3114  0.4038
   35BDD    C1225261   7.563   0.601   2.494  1.3708 -0.8016  2.1106
   35BDD    C1325262   7.675   0.579   2.603  1.1579  0.5419  0.1259
   35BDD    C1425263   7.781   0.481   2.573  0.0881 -0.0759  0.5916
   35BDD    C1525264   7.900   0.479   2.669  1.2581  2.4068 -0.8752
   35BDD    C1625265   7.998   0.360   2.646  0.1975  0.8698 -0.1824
   35BDD    C1725266   7.501   0.751   2.514  0.1303  0.5188  0.6418
   35BDD    C1825267   7.565   0.851   2.436 -0.9879  0.8418  0.5233
   35BDD    C1925268   7.138   0.402   2.088 -0.2174  1.4892 -0.3865
   35BDD    C2025269   7.078   0.518   1.993 -0.4967 -0.1284  0.4109
   35BDD    C2125270   7.135   0.663   2.009  0.6436  0.6509  0.3224
   35BDD    C2225271   7.131   0.745   2.137 -0.3968 -1.4604 -0.0700
   35BDD    C2325272   7.174   0.887   2.107  0.1604  0.6550 -0.5268
   35BDD    C2425273   7.139   0.967   2.227  0.2861 -0.6831  0.0268
   35BDD    C2525274   7.067   0.475   1.848  0.4805 -0.5778  1.7745
   35BDD    C2625275   6.964   0.369   1.779  0.3078 -0.3749 -0.6707
   36TPM     C125276   6.676   0.579   2.457 -0.3562 -0.2001  0.6430
   36TPM     C225277   6.632   0.481   2.374 -0.1466 -0.3317  0.6843
   36TPM     C325278   6.490   0.485   2.350 -0.0793 -0.3268  0.2679
   36TPM     C425279   6.426   0.586   2.416 -0.2378 -0.1914 -0.0911
   36TPM     S125280   6.541   0.685   2.513 -0.4861 -0.0586  0.0704
   37BDTP    C125281   5.807   0.710   2.466 -0.0029  0.3131  0.0229
   37BDTP    C225282   5.864   0.804   2.556  0.1496  0.2332  0.0106
   37BDTP    C325283   6.001   0.812   2.580  0.1707  0.0722 -0.0542
   37BDTP    C425284   6.085   0.722   2.512  0.0346 -0.0143 -0.1096
   37BDTP    C525285   6.028   0.627   2.422 -0.1180  0.0656 -0.0975
   37BDTP    C625286   5.892   0.620   2.398 -0.1390  0.2265 -0.0326
   37BDTP    C725287   6.229   0.711   2.521  0.0264 -0.1818 -0.1812
   37BDTP    C825288   6.283   0.614   2.443 -0.1229 -0.2309 -0.2227
   37BDTP    S125289   6.158   0.523   2.347 -0.2743 -0.0719 -0.1771
   37BDTP    C925290   5.663   0.721   2.457  0.0052  0.4806  0.0944
   37BDTP   C1025291   5.610   0.818   2.535  0.1544  0.5297  0.1360
   37BDTP    S225292   5.735   0.909   2.631  0.3060  0.3707  0.0902
   38FTM     S125293   6.215   0.974   2.690  0.0093  0.4971 -0.7738
   38FTM     C125294   6.183   1.040   2.854  0.7237 -0.0103 -0.4205
   38FTM     C225295   6.058   1.005   2.894  0.8482 -0.0218 -0.0374
   38FTM     C325296   5.981   0.927   2.802  0.4060  0.3542  0.0035
   38FTM     C425297   6.050   0.901   2.687 -0.0724  0.6637 -0.3599
   38FTM     F125298   6.005   1.042   3.017  1.3697 -0.3734  0.2987
   38FTM     C525299   6.289   1.096   2.957 -0.7984  1.1448  1.1627
   38FTM     C625300   6.434   1.033   2.958  0.6270  1.0842  0.4157
   38FTM     C725301   6.420   0.877   2.996  0.5603  0.4028 -0.0094
   38FTM     C825302   6.372   0.853   3.147 -0.3964  0.5909  0.6709
   38FTM     C925303   6.443   0.941   3.253  0.0184 -0.9220 -0.3857
   38FTM    C1025304   6.389   0.903   3.398 -0.2677  0.0620 -0.1026
   38FTM    C1125305   6.517   1.077   2.830 -0.5498  1.2050 -0.2639
   38FTM    C1225306   6.665   1.023   2.823  0.2904  0.0044  0.1832
   39FTM     S125307   5.881   0.449   2.172 -0.1258  0.6306  0.3885
   39FTM     C125308   5.774   0.305   2.182  0.3011  0.2640 -0.1594
   39FTM     C225309   5.703   0.309   2.298  0.5171 -0.5526  0.0108
   39FTM     C325310   5.727   0.421   2.384  0.3674 -0.9338  0.5643
   39FTM     C425311   5.820   0.506   2.332  0.0255 -0.3914  0.8265
   39FTM     F125312   5.612   0.210   2.333  0.8631 -1.0034 -0.3245
   39FTM     C525313   5.759   0.231   2.049 -0.4390 -0.3870 -1.3145
   39FTM     C625314   5.744   0.081   2.038  0.5266  0.3598 -0.7822
   39FTM     C725315   5.814   0.030   1.914 -0.5889  1.2106  0.8745
   39FTM     C825316   5.942  -0.032   1.959 -0.3126 -0.4836 -1.5921
   39FTM     C925317   6.043  -0.123   1.896 -0.3697  0.0388  1.4161
   39FTM    C1025318   6.004  -0.243   1.818  0.4079 -0.6491  0.2541
   39FTM    C1125319   5.603   0.013   2.026  1.1641 -0.4954 -0.6869
   39FTM    C1225320   5.499   0.035   2.139  1.3100  1.1232 -0.5391
   40TPM     C125321   5.472   0.859   2.551 -0.2252  0.3540  0.4185
   40TPM     C225322   5.432   0.950   2.644 -0.2866  0.5402  0.2128
   40TPM     C325323   5.289   0.955   2.662 -0.2948  0.5386  0.1473
   40TPM     C425324   5.221   0.868   2.583 -0.2399  0.3511  0.3033
   40TPM     S125325   5.332   0.772   2.478 -0.1728  0.1606  0.5466
   41BDD     C125326   4.852   0.968   2.606 -0.1440 -0.0684 -0.0181
   41BDD     C225327   4.850   0.832   2.597 -0.1156 -0.0733  0.0508
   41BDD     C325328   4.982   0.774   2.581 -0.0737 -0.0746  0.3787
   41BDD     C425329   5.082   0.867   2.577 -0.0709 -0.0706  0.5549
   41BDD     S125330   5.018   1.034   2.595 -0.1205 -0.0650  0.3226
   41BDD     C525331   4.727   0.750   2.603 -0.1255 -0.0770 -0.1822
   41BDD     C625332   5.004   0.628   2.569 -0.0379 -0.0797  0.5052
   41BDD     O125333   5.118   0.578   2.555 -0.0019 -0.0808  0.7879
   41BDD     O225334   4.614   0.800   2.617 -0.1616 -0.0759 -0.4648
   41BDD     C725335   4.882   0.546   2.575 -0.0480 -0.0834  0.2723
   41BDD     C825336   4.749   0.604   2.591 -0.0899 -0.0821 -0.0556
   41BDD     C925337   4.649   0.511   2.595 -0.0927 -0.0860 -0.2317
   41BDD     S225338   4.713   0.345   2.578 -0.0432 -0.0917  0.0005
   41BDD    C1025339   4.880   0.410   2.566 -0.0197 -0.0883  0.3413
   41BDD    C1125340   4.990   0.321   2.520  0.1782  0.5310 -0.2460
   41BDD    C1225341   4.979   0.181   2.567  0.4795  1.4846 -0.1833
   41BDD    C1325342   4.997   0.134   2.709 -0.7204  0.8326 -0.3644
   41BDD    C1425343   4.919   0.218   2.810  0.5273 -0.1355 -0.2391
   41BDD    C1525344   5.003   0.208   2.933 -0.1685  1.2854 -0.0577
   41BDD    C1625345   4.912   0.236   3.041 -1.2873 -0.8887 -0.5628
   41BDD    C1725346   5.026   0.060   2.479  1.0476 -0.3591  0.8712
   41BDD    C1825347   4.949   0.067   2.339 -0.3104  0.6584 -0.2097
   41BDD    C1925348   4.501   0.530   2.576 -0.3706  0.5467  0.6133
   41BDD    C2025349   4.413   0.451   2.681  0.8015 -0.1258  2.5738
   41BDD    C2125350   4.293   0.368   2.611 -1.2463  0.1432  0.8428
   41BDD    C2225351   4.312   0.217   2.591  1.3684  0.5048  0.2864
   41BDD    C2325352   4.378   0.166   2.714 -0.4857 -0.1241 -0.2763
   41BDD    C2425353   4.424   0.021   2.713 -0.2752 -0.5853 -0.2865
   41BDD    C2525354   4.365   0.521   2.802 -1.3088  0.4224 -0.4276
   41BDD    C2625355   4.485   0.563   2.890  0.7024 -0.0868 -0.7471
   42TPM     C125356   4.752   1.083   2.598  0.6939 -0.3856 -0.3871
   42TPM     C225357   4.779   1.215   2.619  0.7159 -0.4136 -0.2344
   42TPM     C325358   4.674   1.303   2.576  0.6820 -0.3515 -0.0275
   42TPM     C425359   4.567   1.239   2.522  0.6343 -0.2763 -0.0227
   42TPM     S125360   4.590   1.060   2.522  0.6282 -0.2778 -0.2808
   43BDTP    C125361   4.023   1.545   2.412 -0.0275  0.3161 -0.0358
   43BDTP    C225362   4.119   1.626   2.344 -0.0352  0.2619 -0.1119
   43BDTP    C325363   4.254   1.594   2.340 -0.0345  0.2625 -0.0948
   43BDTP    C425364   4.297   1.477   2.405 -0.0260  0.3192  0.0020
   43BDTP    C525365   4.201   1.396   2.472 -0.0185  0.3735  0.0781
   43BDTP    C625366   4.066   1.428   2.477 -0.0191  0.3729  0.0609
   43BDTP    C725367   4.431   1.424   2.414 -0.0238  0.3313  0.0376
   43BDTP    C825368   4.441   1.308   2.484 -0.0149  0.3912  0.1354
   43BDTP    S125369   4.281   1.250   2.549 -0.0082  0.4408  0.1963
   43BDTP    C925370   3.888   1.598   2.402 -0.0299  0.3041 -0.0714
   43BDTP   C1025371   3.879   1.713   2.332 -0.0387  0.2442 -0.1693
   43BDTP    S225372   4.039   1.771   2.268 -0.0452  0.1946 -0.2301
   44FTM     S125373   4.412   1.833   2.333  0.0860 -0.0198  0.4937
   44FTM     C125374   4.504   1.857   2.179 -0.0371 -0.0101  0.4214
   44FTM     C225375   4.475   1.758   2.092  0.1069 -0.1585  0.5425
   44FTM     C325376   4.382   1.658   2.137  0.3165 -0.2857  0.6952
   44FTM     C425377   4.339   1.683   2.264  0.3335 -0.2330  0.6910
   44FTM     F125378   4.531   1.750   1.965  0.0573 -0.1881  0.5222
   44FTM     C525379   4.575   1.987   2.185 -0.2999  0.4690 -0.9282
   44FTM     C625380   4.586   2.075   2.064  0.1262 -0.6745 -0.1578
   44FTM     C725381   4.712   2.159   2.052  1.2514  0.5501 -0.3364
   44FTM     C825382   4.847   2.090   2.015 -0.5318  1.1652 -0.3333
   44FTM     C925383   4.855   1.990   1.901 -0.4837  0.3527  0.4058
   44FTM    C1025384   4.855   1.837   1.929  0.5883  0.1929  1.7389
   44FTM    C1125385   4.450   2.109   1.987  0.8125 -1.8571 -1.1788
   44FTM    C1225386   4.452   2.152   1.835 -0.0258 -0.0363 -0.4312
   45FTM     S125387   3.809   1.384   2.609 -0.2647  0.2492 -0.0408
   45FTM     C125388   3.781   1.220   2.677  0.4149  0.3442  0.4922
   45FTM     C225389   3.890   1.142   2.657  0.8553  0.8122  1.0114
   45FTM     C325390   4.000   1.204   2.589  0.6947  1.1181  1.0262
   45FTM     C425391   3.974   1.333   2.556  0.1126  0.8764  0.5010
   45FTM     F125392   3.897   1.010   2.699  1.4297  0.9914  1.5044
   45FTM     C525393   3.643   1.177   2.736 -0.0573  0.1742  1.2735
   45FTM     C625394   3.508   1.260   2.726 -0.0469  0.1931 -1.3153
   45FTM     C725395   3.378   1.185   2.778  0.1728  0.7833 -0.5680
   45FTM     C825396   3.400   1.073   2.888 -0.7727 -0.6818  1.3674
   45FTM     C925397   3.288   0.987   2.894 -0.0934  1.0731 -0.4294
   45FTM    C1025398   3.314   0.898   3.016 -1.3314 -0.6171 -0.7598
   45FTM    C1125399   3.500   1.372   2.638 -0.3828 -2.1108  1.1970
   45FTM    C1225400   3.472   1.344   2.489  0.4482 -0.7558  0.2140
   46TPM     C125401   3.758   1.793   2.333 -1.4338 -0.2040 -0.7561
   46TPM     C225402   3.631   1.769   2.288 -1.5120  1.2086 -1.3825
   46TPM     C325403   3.556   1.889   2.263 -0.3598  2.0766 -0.8985
   46TPM     C425404   3.625   2.004   2.288  0.5967  1.3259  0.0968
   46TPM     S125405   3.792   1.970   2.346  0.1129 -0.5502  0.5034
   47BDD     C125406   3.354   2.281   2.197  0.0320  0.1155  0.0034
   47BDD     C225407   3.417   2.330   2.307  0.1103  0.0337 -0.0052
   47BDD     C325408   3.518   2.240   2.360  0.0784 -0.0487 -0.0841
   47BDD     C425409   3.530   2.124   2.289 -0.0236 -0.0284 -0.1345
   47BDD     S125410   3.416   2.119   2.151 -0.0869  0.0951 -0.0867
   47BDD     C525411   3.388   2.461   2.369  0.2171  0.0284  0.0588
   47BDD     C625412   3.599   2.272   2.480  0.1504 -0.1444 -0.1066
   47BDD     O125413   3.686   2.195   2.525  0.1228 -0.2154 -0.1746
   47BDD     O225414   3.301   2.538   2.323  0.2446  0.0994  0.1268
   47BDD     C725415   3.570   2.403   2.541  0.2572 -0.1498 -0.0426
   47BDD     C825416   3.469   2.493   2.488  0.2890 -0.0675  0.0363
   47BDD     C925417   3.457   2.609   2.559  0.3911 -0.0876  0.0867
   47BDD     S225418   3.571   2.614   2.698  0.4542 -0.2112  0.0390
   47BDD    C1025419   3.633   2.452   2.652  0.3353 -0.2316 -0.0512
   47BDD    C1125420   3.709   2.371   2.766 -1.3073 -0.9929  0.2173
   47BDD    C1225421   3.810   2.451   2.848 -1.6714  1.7241 -0.6796
   47BDD    C1325422   3.828   2.381   2.990  0.4637  0.1033  1.2830
   47BDD    C1425423   3.878   2.450   3.107  1.3534 -0.0070 -0.5298
   47BDD    C1525424   3.972   2.361   3.182 -0.5592  0.5515 -0.0456
   47BDD    C1625425   4.127   2.376   3.182 -0.6962 -0.5997 -0.1520
   47BDD    C1725426   3.944   2.495   2.788 -0.1999  0.4025 -0.1368
   47BDD    C1825427   3.955   2.579   2.663  0.0904 -0.1608  0.2423
   47BDD    C1925428   3.361   2.734   2.537  0.0004  0.0841  0.8273
   47BDD    C2025429   3.235   2.744   2.614 -1.2276 -0.2635  0.0970
   47BDD    C2125430   3.164   2.879   2.595  0.4651 -0.3457  0.2419
   47BDD    C2225431   3.216   3.020   2.596 -0.0203 -0.2255 -0.8956
   47BDD    C2325432   3.114   3.096   2.682 -0.7012 -1.0358 -1.4465
   47BDD    C2425433   3.191   3.206   2.760  0.5424 -0.7922  0.3315
   47BDD    C2525434   3.139   2.624   2.632 -0.7059  0.5055  0.1623
   47BDD    C2625435   3.026   2.616   2.738 -0.0810  0.5098 -0.5571
   48TPM     C125436   3.239   2.321   2.109  0.2417  0.3539  0.1356
   48TPM     C225437   3.138   2.405   2.144  0.0293  0.0771  0.1940
   48TPM     C325438   3.027   2.404   2.051  0.0231 -0.1489  0.2034
   48TPM     C425439   3.045   2.319   1.946  0.2306 -0.0445  0.1522
   48TPM     S125440   3.203   2.233   1.956  0.4517  0.3504  0.0877
   49BDTP    C125441   2.630   2.169   1.497  0.0482  0.0070  0.1381
   49BDTP    C225442   2.610   2.309   1.511  0.1329  0.0510 -0.1690
   49BDTP    C325443   2.685   2.387   1.597  0.0455  0.1593 -0.1907
   49BDTP    C425444   2.785   2.325   1.674 -0.1339  0.2277  0.1041
   49BDTP    C525445   2.806   2.184   1.660 -0.2186  0.1838  0.4112
   49BDTP    C625446   2.730   2.106   1.573 -0.1311  0.0754  0.4329
   49BDTP    C725447   2.876   2.385   1.769 -0.2515  0.3426  0.1434
   49BDTP    C825448   2.962   2.298   1.827 -0.4182  0.3862  0.4611
   49BDTP    S125449   2.940   2.127   1.769 -0.4498  0.2882  0.7552
   49BDTP    C925450   2.540   2.108   1.401  0.1659 -0.1078  0.0988
   49BDTP   C1025451   2.454   2.195   1.343  0.3325 -0.1515 -0.2189
   49BDTP    S225452   2.475   2.366   1.402  0.3642 -0.0535 -0.5130
   50FTM     S125453   2.579   2.654   1.551 -0.0984 -0.4349  0.1503
   50FTM     C125454   2.498   2.723   1.696 -0.4384 -0.6750  0.0769
   50FTM     C225455   2.521   2.644   1.805  0.2916 -0.2437  0.2487
   50FTM     C325456   2.602   2.528   1.782  1.1396  0.2872  0.4432
   50FTM     C425457   2.642   2.517   1.652  1.0560  0.2613  0.4195
   50FTM     F125458   2.471   2.672   1.931  0.2355 -0.3039  0.2400
   50FTM     C525459   2.416   2.854   1.703 -0.5253 -0.1074  0.6519
   50FTM     C625460   2.263   2.851   1.652 -0.1157  0.3640  0.2778
   50FTM     C725461   2.264   2.806   1.504 -0.4150 -1.8942 -1.0753
   50FTM     C825462   2.167   2.888   1.408  1.2213 -0.5788 -0.7029
   50FTM     C925463   2.168   2.840   1.264  0.4456  0.1247  0.3213
   50FTM    C1025464   2.274   2.900   1.178 -0.1019 -0.0858 -1.8736
   50FTM    C1125465   2.174   2.773   1.757 -1.0891 -0.6383 -1.1365
   50FTM    C1225466   2.057   2.698   1.697  0.4454  0.6507 -0.0233
   51FTM     S125467   2.817   1.839   1.662  0.3191 -0.1003  0.5978
   51FTM     C125468   2.824   1.717   1.531 -0.5404 -0.9131  1.2768
   51FTM     C225469   2.791   1.775   1.412 -0.6641 -1.4782  1.0293
   51FTM     C325470   2.759   1.914   1.416 -0.1114 -1.3176  0.3139
   51FTM     C425471   2.768   1.965   1.542  0.4540 -0.6061  0.0034
   51FTM     F125472   2.788   1.704   1.292 -1.2852 -2.1746  1.4359
   51FTM     C525473   2.821   1.573   1.550 -0.3229  0.9854 -1.9425
   51FTM     C625474   2.857   1.512   1.681 -0.0976  0.0283  0.2869
   51FTM     C725475   2.967   1.564   1.785 -0.2952 -0.4445 -1.8981
   51FTM     C825476   2.893   1.631   1.903 -0.2786  0.1523 -0.6315
   51FTM     C925477   2.998   1.704   1.982  1.1433  0.6888 -0.5739
   51FTM    C1025478   2.900   1.761   2.085 -0.0855 -0.1169 -0.4699
   51FTM    C1125479   2.802   1.372   1.681 -0.0906 -0.0647  0.1034
   51FTM    C1225480   2.857   1.271   1.786 -0.6269  0.7943  0.4710
   52TPM     C125481   2.337   2.162   1.260 -0.2921 -0.7018  0.7175
   52TPM     C225482   2.344   2.095   1.141 -0.1826 -0.6936  0.7188
   52TPM     C325483   2.223   2.105   1.063  0.0465 -0.3189  0.4086
   52TPM     C425484   2.125   2.179   1.121  0.1116 -0.0415  0.1708
   52TPM     S125485   2.177   2.243   1.282 -0.1130 -0.2334  0.3214
   53BDD     C125486   1.954   2.457   0.909 -0.1760  0.2773  0.0392
   53BDD     C225487   1.878   2.345   0.889 -0.0547  0.2038 -0.0146
   53BDD     C325488   1.931   2.227   0.955  0.1654  0.1909 -0.2133
   53BDD     C425489   2.047   2.250   1.024  0.2087  0.2545 -0.3080
   53BDD     S125490   2.097   2.422   1.011 -0.0231  0.3351 -0.1550
   53BDD     C525491   1.753   2.342   0.809 -0.1366  0.1429  0.1145
   53BDD     C625492   1.865   2.095   0.948  0.3248  0.1158 -0.3020
   53BDD     O125493   1.911   1.993   1.004  0.5146  0.1046 -0.4732
   53BDD     O225494   1.707   2.443   0.753 -0.3264  0.1541  0.2858
   53BDD     C725495   1.741   2.092   0.868  0.2428  0.0550 -0.1728
   53BDD     C825496   1.687   2.210   0.802  0.0228  0.0679  0.0259
   53BDD     C925497   1.572   2.186   0.733 -0.0205  0.0043  0.1206
   53BDD     S225498   1.521   2.014   0.746  0.2113 -0.0763 -0.0324
   53BDD    C1025499   1.665   1.980   0.848  0.3642 -0.0184 -0.2266
   53BDD    C1125500   1.671   1.823   0.881  0.5139 -0.6353  0.4376
   53BDD    C1225501   1.693   1.779   1.027  0.1580  1.0859 -0.3978
   53BDD    C1325502   1.727   1.631   1.069  0.4783  0.8739  1.2361
   53BDD    C1425503   1.864   1.584   1.030  0.5716  1.4399  1.1081
   53BDD    C1525504   1.981   1.642   1.089 -0.9338  0.5729  0.1277
   53BDD    C1625505   2.082   1.523   1.110 -0.1567 -1.3926 -0.3187
   53BDD    C1725506   1.584   1.794   1.144  0.1180 -1.3410  0.8801
   53BDD    C1825507   1.565   1.941   1.200  0.0388 -0.4118 -0.9595
   53BDD    C1925508   1.515   2.283   0.628  1.6359  0.3406 -1.1314
   53BDD    C2025509   1.377   2.219   0.569  0.0357  0.1699  0.7686
   53BDD    C2125510   1.259   2.178   0.659  0.7735  1.4585  0.1394
   53BDD    C2225511   1.174   2.283   0.741 -1.1488  0.0967  0.2550
   53BDD    C2325512   1.237   2.295   0.872 -0.5398 -2.2657 -1.1114
   53BDD    C2425513   1.194   2.430   0.925 -0.0720 -0.3030  1.0397
   53BDD    C2525514   1.339   2.308   0.441  0.3319  1.0183  0.0829
   53BDD    C2625515   1.247   2.261   0.333 -0.1506  1.2912 -0.0161
   54TPM     C125516   1.941   2.599   0.886 -0.5417 -0.3973  1.0982
   54TPM     C225517   1.961   2.640   0.757 -0.1126 -1.2551  0.8715
   54TPM     C325518   2.000   2.778   0.746  0.2917 -1.4209  0.0921
   54TPM     C425519   2.010   2.842   0.866  0.1710 -0.6896 -0.2754
   54TPM     S125520   1.971   2.732   1.003 -0.4678  0.2727  0.3391
   55BDTP    C125521   2.153   3.462   0.903  0.4184 -0.1203  0.2550
   55BDTP    C225522   2.082   3.441   1.024  0.2139 -0.1426  0.1323
   55BDTP    C325523   2.027   3.319   1.058 -0.0499 -0.0874 -0.0915
   55BDTP    C425524   2.042   3.212   0.968 -0.1154 -0.0064 -0.1995
   55BDTP    C525525   2.113   3.233   0.847  0.0891  0.0158 -0.0767
   55BDTP    C625526   2.169   3.355   0.813  0.3528 -0.0394  0.1469
   55BDTP    C725527   1.993   3.076   0.982 -0.3743  0.0614 -0.4298
   55BDTP    C825528   2.024   2.995   0.878 -0.3741  0.1325 -0.4851
   55BDTP    S125529   2.119   3.080   0.748 -0.0459  0.1236 -0.2533
   55BDTP    C925530   2.202   3.598   0.889  0.6772 -0.1882  0.4853
   55BDTP   C1025531   2.171   3.679   0.993  0.6770 -0.2593  0.5406
   55BDTP    S225532   2.076   3.595   1.123  0.3488 -0.2504  0.3088
   56FTM     S125533   1.801   3.430   1.195 -0.5313 -0.0792  0.0236
   56FTM     C125534   1.781   3.386   1.368  0.0241  0.0070  0.1137
   56FTM     C225535   1.871   3.290   1.402  0.0188 -0.1028 -0.1754
   56FTM     C325536   1.959   3.246   1.298 -0.4070 -0.2568 -0.4773
   56FTM     C425537   1.936   3.311   1.180 -0.7387 -0.2653 -0.4174
   56FTM     F125538   1.879   3.236   1.530  0.3993 -0.0702 -0.1837
   56FTM     C525539   1.705   3.485   1.450 -0.8126  1.8764  1.3281
   56FTM     C625540   1.577   3.430   1.508  1.0049  0.3279  0.0587
   56FTM     C725541   1.595   3.458   1.657 -0.0079 -0.5343  0.8797
   56FTM     C825542   1.708   3.383   1.739  0.0481  0.3157  0.7181
   56FTM     C925543   1.729   3.444   1.881 -1.1973  0.9629 -0.5648
   56FTM    C1025544   1.811   3.570   1.882 -1.1199 -0.6299 -0.0593
   56FTM    C1125545   1.440   3.375   1.437 -0.8969 -0.0744  0.8500
   56FTM    C1225546   1.421   3.224   1.467 -0.3199 -0.6163  1.1949
   57FTM     S125547   2.235   3.473   0.557 -0.1289  0.1195  0.8657
   57FTM     C125548   2.374   3.398   0.471 -0.3753  0.6977 -0.0608
   57FTM     C225549   2.430   3.301   0.548 -0.1892  0.1090 -0.9078
   57FTM     C325550   2.369   3.279   0.676  0.1482 -0.8054 -0.8885
   57FTM     C425551   2.263   3.363   0.697  0.2229 -0.9206  0.0024
   57FTM     F125552   2.539   3.226   0.507 -0.3133  0.3632 -1.7509
   57FTM     C525553   2.433   3.455   0.334 -0.1837  0.3714 -0.3993
   57FTM     C625554   2.429   3.605   0.277 -0.2208 -0.0646 -0.4210
   57FTM     C725555   2.543   3.709   0.338 -0.5228 -0.0109 -1.4741
   57FTM     C825556   2.688   3.643   0.348 -0.1771 -1.5859  0.4889
   57FTM     C925557   2.785   3.750   0.303 -0.0383 -0.4670 -0.7160
   57FTM    C1025558   2.816   3.823   0.432 -1.1794 -0.9471 -0.4232
   57FTM    C1125559   2.297   3.631   0.209  0.0022 -0.6995 -1.1637
   57FTM    C1225560   2.255   3.781   0.243 -0.4095  0.8594 -0.2731
   58TPM     C125561   2.234   3.805   1.016 -0.7834 -0.1374 -0.7682
   58TPM     C225562   2.251   3.881   1.128 -1.8331  0.1420 -0.7806
   58TPM     C325563   2.321   4.004   1.105 -1.5341  0.0426 -0.4169
   58TPM     C425564   2.359   4.022   0.975 -0.2567 -0.3126 -0.1270
   58TPM     S125565   2.307   3.884   0.872  0.6752 -0.5511 -0.2923
   59BDD     C125566   2.659   4.232   0.839  0.0830  0.1949  0.3103
   59BDD     C225567   2.552   4.317   0.844  0.0286  0.1240  0.3689
   59BDD     C325568   2.433   4.257   0.900  0.0936  0.0379  0.4152
   59BDD     C425569   2.450   4.126   0.938  0.1966  0.0448  0.3911
   59BDD     S125570   2.617   4.070   0.905  0.2193  0.1590  0.3090
   59BDD     C525571   2.556   4.457   0.796 -0.0851  0.1326  0.3845
   59BDD     C625572   2.305   4.330   0.915  0.0511 -0.0478  0.4815
   59BDD     O125573   2.202   4.279   0.963  0.1072 -0.1220  0.5214
   59BDD     O225574   2.659   4.509   0.747 -0.1411  0.2068  0.3446
   59BDD     C725575   2.309   4.470   0.867 -0.0627 -0.0391  0.4971
   59BDD     C825576   2.429   4.530   0.811 -0.1277  0.0470  0.4508
   59BDD     C925577   2.411   4.661   0.773 -0.2307  0.0402  0.4748
   59BDD     S225578   2.244   4.717   0.805 -0.2533 -0.0743  0.5570
   59BDD    C1025579   2.202   4.556   0.872 -0.1171 -0.1103  0.5557
   59BDD    C1125580   2.052   4.528   0.893 -0.9613  0.7941 -0.6353
   59BDD    C1225581   1.951   4.471   0.797  1.2963  0.6372  0.6404
   59BDD    C1325582   1.935   4.527   0.652 -0.5026 -0.0757 -0.2155
   59BDD    C1425583   1.796   4.530   0.566 -0.2121  0.7349  1.0420
   59BDD    C1525584   1.711   4.648   0.610  0.6004  0.5995  0.0712
   59BDD    C1625585   1.746   4.801   0.614  0.6041  0.6213 -0.4880
   59BDD    C1725586   1.874   4.360   0.848  0.1954  0.3969  1.0386
   59BDD    C1825587   1.917   4.227   0.770 -1.2837  0.1739 -0.0185
   59BDD    C1925588   2.518   4.752   0.734 -1.1263 -2.0094  0.8914
   59BDD    C2025589   2.559   4.873   0.832  0.4784  1.2294 -0.5156
   59BDD    C2125590   2.611   4.831   0.972  0.6851  0.4211 -0.4806
   59BDD    C2225591   2.724   4.920   1.010 -0.0154  0.8520 -0.7206
   59BDD    C2325592   2.801   4.857   1.113 -0.9789  0.9933 -0.6887
   59BDD    C2425593   2.738   4.847   1.254  1.2127 -0.1485  0.0050
   59BDD    C2525594   2.457   4.987   0.821 -1.1489 -0.1679  2.0150
   59BDD    C2625595   2.494   5.137   0.856  1.0846  0.5043 -0.3086
   60TPM     C125596   2.795   4.248   0.790  0.0073 -0.1776 -0.2393
   60TPM     C225597   2.862   4.150   0.724  0.0520  0.6514 -1.4950
   60TPM     C325598   2.997   4.184   0.688 -0.2769  1.5029 -1.9675
   60TPM     C425599   3.033   4.310   0.728 -0.5723  1.3233 -1.0721
   60TPM     S125600   2.899   4.394   0.813 -0.4574  0.0551  0.4492
    1BDTP    C125601   8.990   2.929  11.033 -0.0615 -0.0536 -0.2337
    1BDTP    C225602   8.919   2.809  11.005 -0.0815 -0.0250 -0.3071
    1BDTP    C325603   8.792   2.809  10.948 -0.1762  0.0377 -0.0947
    1BDTP    C425604   8.733   2.933  10.918 -0.2556  0.0739  0.2041
    1BDTP    C525605   8.804   3.053  10.946 -0.2363  0.0451  0.2778
    1BDTP    C625606   8.931   3.053  11.003 -0.1413 -0.0175  0.0654
    1BDTP    C725607   8.602   2.957  10.860 -0.3602  0.1395  0.4621
    1BDTP    C825608   8.573   3.088  10.843 -0.4194  0.1611  0.7226
    1BDTP    S125609   8.706   3.199  10.898 -0.3507  0.1015  0.6776
    1BDTP    C925610   9.121   2.904  11.091  0.0429 -0.1192 -0.4916
    1BDTP   C1025611   9.150   2.773  11.108  0.1018 -0.1410 -0.7517
    1BDTP    S225612   9.017   2.662  11.053  0.0334 -0.0812 -0.7070
    2FTM     S125613   8.618   2.634  10.800 -0.7384  0.1679  0.2531
    2FTM     C125614   8.575   2.479  10.881 -0.5200  0.1239  0.2867
    2FTM     C225615   8.633   2.473  11.004  0.3643 -0.2370 -0.1333
    2FTM     C325616   8.713   2.586  11.041  0.9127 -0.4951 -0.4981
    2FTM     C425617   8.716   2.682  10.944  0.4327 -0.3263 -0.3526
    2FTM     F125618   8.617   2.365  11.090  0.7296 -0.3552 -0.2127
    2FTM     C525619   8.487   2.390  10.781  0.0885 -1.1191 -0.3477
    2FTM     C625620   8.456   2.237  10.805 -0.6994  0.2903 -0.4658
    2FTM     C725621   8.571   2.129  10.823  0.5180  1.4871 -0.2842
    2FTM     C825622   8.688   2.142  10.738  0.3142 -0.1682  0.3978
    2FTM     C925623   8.808   2.072  10.812 -1.8821 -0.5166  0.5246
    2FTM    C1025624   8.817   1.921  10.790  0.6015  0.3455  0.5708
    2FTM    C1125625   8.303   2.215  10.774  1.3148 -0.8740 -0.7361
    2FTM    C1225626   8.242   2.076  10.786  0.5616 -0.3959 -0.4044
    3FTM     S125627   8.967   3.263  11.201 -0.5170  0.6519 -0.2422
    3FTM     C125628   9.061   3.404  11.141  0.2323  0.1558 -0.2634
    3FTM     C225629   9.093   3.386  11.010  0.6800 -0.3087 -0.0961
    3FTM     C325630   9.048   3.265  10.950  0.4718 -0.3072  0.0548
    3FTM     C425631   8.979   3.187  11.037 -0.1548  0.1743  0.0017
    3FTM     F125632   9.166   3.479  10.937  1.3041 -0.7629 -0.0696
    3FTM     C525633   9.121   3.506  11.229 -0.1622 -1.0241  0.8901
    3FTM     C625634   9.035   3.598  11.323 -0.4207 -0.9074  0.1622
    3FTM     C725635   8.989   3.728  11.261 -0.8711 -0.9929 -1.0774
    3FTM     C825636   8.957   3.847  11.353 -0.4391 -1.2899  0.2850
    3FTM     C925637   8.818   3.916  11.331 -0.3368  1.1576  0.2292
    3FTM    C1025638   8.834   4.036  11.418  1.0430 -1.1479  0.6966
    3FTM    C1125639   8.996   3.549  11.467  0.5122 -0.5211  0.1698
    3FTM    C1225640   9.114   3.559  11.581  0.2110  0.3756  1.0498
    4TPM     C125641   9.262   2.707  11.164 -0.1064 -0.3993 -0.2565
    4TPM     C225642   9.361   2.646  11.094 -0.4604 -0.8626 -0.3641
    4TPM     C325643   9.426   2.539  11.166 -0.3848 -0.6718 -0.1450
    4TPM     C425644   9.375   2.518  11.291  0.0268 -0.0630  0.1296
    4TPM     S125645   9.241   2.634  11.328  0.3532  0.3196  0.1328
    5BDD     C125646   9.528   2.385  11.622 -0.2874 -0.1483 -0.1295
    5BDD     C225647   9.561   2.291  11.528 -0.1087 -0.0969 -0.1192
    5BDD     C325648   9.517   2.325  11.394  0.0353 -0.0834 -0.1633
    5BDD     C425649   9.452   2.445  11.387 -0.0357 -0.1246 -0.2065
    5BDD     S125650   9.440   2.523  11.549 -0.2880 -0.1832 -0.1950
    5BDD     C525651   9.634   2.166  11.558 -0.0634 -0.0584 -0.0685
    5BDD     C625652   9.542   2.238  11.277  0.2384 -0.0302 -0.1609
    5BDD     O125653   9.504   2.268  11.162  0.3626 -0.0186 -0.1988
    5BDD     O225654   9.672   2.136  11.674 -0.1874 -0.0700 -0.0305
    5BDD     C725655   9.615   2.113  11.308  0.2832  0.0083 -0.1104
    5BDD     C825656   9.659   2.079  11.442  0.1392 -0.0051 -0.0661
    5BDD     C925657   9.724   1.959  11.448  0.2103  0.0361 -0.0229
    5BDD     S225658   9.736   1.881  11.287  0.4626  0.0946 -0.0344
    5BDD    C1025659   9.648   2.019  11.214  0.4618  0.0597 -0.0999
    5BDD    C1125660   9.578   1.999  11.060 -1.3530 -0.1988 -0.4846
    5BDD    C1225661   9.441   1.929  11.048  0.2520  1.6313  1.6789
    5BDD    C1325662   9.350   1.907  11.173 -0.5147  0.7543 -0.6553
    5BDD    C1425663   9.280   2.010  11.264 -0.6188 -0.1358 -0.4489
    5BDD    C1525664   9.209   1.934  11.375  0.7281 -0.3797 -1.3609
    5BDD    C1625665   9.181   2.017  11.499  0.9780  0.0543 -0.4484
    5BDD    C1725666   9.380   1.966  10.907 -0.7320  0.0092  0.3017
    5BDD    C1825667   9.274   1.884  10.845  0.2102 -0.3375 -0.1900
    5BDD    C1925668   9.795   1.875  11.540 -0.3469 -0.6543 -0.6250
    5BDD    C2025669   9.744   1.742  11.609 -0.7832 -1.7255 -1.8524
    5BDD    C2125670   9.774   1.616  11.527  0.4355  0.3594  0.6474
    5BDD    C2225671   9.672   1.506  11.478 -0.3394  0.8502 -1.1690
    5BDD    C2325672   9.768   1.379  11.464  1.3222 -0.6920 -1.5070
    5BDD    C2425673   9.706   1.294  11.367 -0.5450  1.2160 -0.8601
    5BDD    C2525674   9.825   1.740  11.764 -0.3287 -0.5370  0.8255
    5BDD    C2625675   9.977   1.735  11.758 -0.5212 -0.0574 -1.1698
    6TPM     C125676   9.569   2.412  11.767 -0.0904  0.5631  0.0717
    6TPM     C225677   9.576   2.537  11.822  0.5310  0.3546  0.4948
    6TPM     C325678   9.602   2.536  11.964  0.8745 -0.2387  0.4354
    6TPM     C425679   9.616   2.411  12.016  0.5154 -0.4827 -0.0328
    6TPM     S125680   9.596   2.283  11.890 -0.2913  0.0219 -0.4383
    7BDTP    C125681   9.799   2.238  12.591  0.0653  0.2559 -0.2424
    7BDTP    C225682   9.786   2.114  12.523  0.0477  0.2306 -0.1929
    7BDTP    C325683   9.740   2.105  12.392  0.0460  0.1850 -0.1890
    7BDTP    C425684   9.705   2.224  12.326  0.0620  0.1634 -0.2362
    7BDTP    C525685   9.718   2.348  12.394  0.0801  0.1888 -0.2857
    7BDTP    C625686   9.764   2.357  12.525  0.0818  0.2343 -0.2897
    7BDTP    C725687   9.655   2.239  12.191  0.0638  0.1166 -0.2421
    7BDTP    C825688   9.631   2.367  12.155  0.0815  0.1058 -0.2930
    7BDTP    S125689   9.667   2.486  12.287  0.0992  0.1534 -0.3407
    7BDTP    C925690   9.849   2.223  12.727  0.0641  0.3028 -0.2365
    7BDTP   C1025691   9.874   2.095  12.763  0.0460  0.3136 -0.1855
    7BDTP    S225692   9.837   1.976  12.630  0.0286  0.2660 -0.1378
    8FTM     S125693   9.565   1.915  12.306 -0.3136  0.3619  0.3379
    8FTM     C125694   9.624   1.786  12.195 -0.0249  0.2233  0.6521
    8FTM     C225695   9.758   1.801  12.173 -0.0896  0.5684  0.4860
    8FTM     C325696   9.820   1.912  12.240 -0.3612  0.9525  0.1134
    8FTM     C425697   9.732   1.983  12.315 -0.5093  0.8996 -0.0100
    8FTM     F125698   9.831   1.716  12.092  0.0932  0.5572  0.6616
    8FTM     C525699   9.527   1.699  12.134  0.3170  1.3784  1.2421
    8FTM     C625700   9.419   1.759  12.047  1.4934  0.2730 -1.3030
    8FTM     C725701   9.301   1.784  12.150  1.3356  0.6691 -0.7124
    8FTM     C825702   9.196   1.902  12.123 -0.4264  0.7897  0.0964
    8FTM     C925703   9.112   1.955  12.240  0.0167 -0.6728  0.5355
    8FTM    C1025704   9.144   2.104  12.257 -0.3544 -0.6180  0.0211
    8FTM    C1125705   9.437   1.873  11.952 -0.7033 -1.1386 -0.3226
    8FTM    C1225706   9.412   1.837  11.813  0.1383 -0.5836 -1.2049
    9FTM     S125707   9.684   2.512  12.761  0.2873  0.4356  0.2905
    9FTM     C125708   9.741   2.682  12.761  0.3272  0.4239  0.0325
    9FTM     C225709   9.814   2.707  12.649  0.2348  0.2712 -0.0620
    9FTM     C325710   9.829   2.598  12.558  0.1297  0.1568  0.0575
    9FTM     C425711   9.766   2.485  12.602  0.1419  0.2240  0.2499
    9FTM     F125712   9.872   2.831  12.622  0.2401  0.2260 -0.2624
    9FTM     C525713   9.697   2.785  12.855  0.2839  0.0543 -1.8773
    9FTM     C625714   9.707   2.794  13.011  0.6284 -1.5350  0.1856
    9FTM     C725715   9.608   2.907  13.053 -0.5143  0.9877 -0.5367
    9FTM     C825716   9.474   2.827  13.112 -0.4728  0.5566  1.3237
    9FTM     C925717   9.347   2.891  13.065  0.8267 -0.1186 -0.4551
    9FTM    C1025718   9.244   2.859  13.175  0.6327  0.2990  0.1441
    9FTM    C1125719   9.852   2.806  13.082 -0.1442 -1.2957 -0.9160
    9FTM    C1225720   9.969   2.737  13.031 -0.8916 -0.4834  1.0989
   10TPM     C125721   9.938   2.050  12.887  0.4510  0.3525 -0.2966
   10TPM     C225722   9.959   2.102  13.011  0.9980  0.4680 -0.4348
   10TPM     C325723  10.031   2.014  13.099  0.8352  0.2940 -0.4742
   10TPM     C425724  10.065   1.895  13.042  0.1644  0.0459 -0.3660
   10TPM     S125725  10.007   1.884  12.872 -0.3180  0.0125 -0.2047
   11BDD     C125726  10.101   1.571  13.266 -0.5543 -0.4761  0.2804
   11BDD     C225727  10.206   1.569  13.179 -0.4609 -0.3696  0.3891
   11BDD     C325728  10.217   1.690  13.098 -0.4590 -0.3301  0.4486
   11BDD     C425729  10.120   1.782  13.126 -0.5510 -0.4071  0.3844
   11BDD     S125730  10.009   1.725  13.254 -0.6461 -0.5342  0.2451
   11BDD     C525731  10.300   1.456  13.165 -0.3698 -0.3002  0.4423
   11BDD     C625732  10.323   1.709  12.997 -0.3660 -0.2175  0.5670
   11BDD     O125733  10.332   1.813  12.928 -0.3645 -0.1834  0.6183
   11BDD     O225734  10.291   1.352  13.234 -0.3715 -0.3343  0.3909
   11BDD     C725735  10.417   1.596  12.984 -0.2749 -0.1482  0.6202
   11BDD     C825736  10.406   1.475  13.064 -0.2766 -0.1876  0.5606
   11BDD     C925737  10.503   1.383  13.037 -0.1845 -0.1107  0.6248
   11BDD     S225738  10.615   1.440  12.909 -0.0893  0.0165  0.7642
   11BDD    C1025739  10.522   1.594  12.897 -0.1814 -0.0417  0.7289
   11BDD    C1125740  10.573   1.691  12.790  1.0619  0.5102 -0.5743
   11BDD    C1225741  10.511   1.674  12.642  0.5283  0.5299  0.8429
   11BDD    C1325742  10.616   1.607  12.543  0.4046  0.4906 -0.4386
   11BDD    C1425743  10.748   1.660  12.487  0.2713 -1.0454 -0.3375
   11BDD    C1525744  10.798   1.571  12.371  0.5897  0.2373  0.5768
   11BDD    C1625745  10.885   1.621  12.271 -0.6107  0.7291  0.0068
   11BDD    C1725746  10.359   1.630  12.634  0.4270  0.6275  0.9522
   11BDD    C1825747  10.292   1.621  12.483  0.1886  1.2820 -0.0883
   11BDD    C1925748  10.537   1.257  13.099  1.0960 -1.8044  1.0740
   11BDD    C2025749  10.644   1.230  13.200  0.0580 -0.0493 -0.5389
   11BDD    C2125750  10.678   1.337  13.319  0.5518  0.3748  1.2337
   11BDD    C2225751  10.740   1.296  13.450  0.3036  0.2860 -0.7982
   11BDD    C2325752  10.752   1.414  13.549 -0.5550 -0.3479  0.2927
   11BDD    C2425753  10.826   1.416  13.673  0.6607 -0.3052 -1.0516
   11BDD    C2525754  10.771   1.174  13.126 -0.0271 -1.5031 -0.3094
   11BDD    C2625755  10.867   1.269  13.034  0.4960 -0.3000  0.1480
   12TPM     C125756  10.038   1.483  13.354 -0.1621 -0.4601  0.3712
   12TPM     C225757  10.108   1.416  13.450 -0.5846 -0.2849  0.8063
   12TPM     C325758  10.024   1.345  13.544 -0.9987 -0.2193  0.4923
   12TPM     C425759   9.891   1.358  13.519 -0.8924 -0.3445 -0.1823
   12TPM     S125760   9.860   1.461  13.374 -0.2557 -0.5566 -0.4755
   13BDTP    C125761   9.578   1.277  14.062  0.0074 -0.1157 -0.1717
   13BDTP    C225762   9.604   1.417  14.062  0.2811 -0.1633 -0.1620
   13BDTP    C325763   9.672   1.481  13.959  0.4158 -0.2919 -0.1518
   13BDTP    C425764   9.719   1.403  13.852  0.2747 -0.3777 -0.1511
   13BDTP    C525765   9.694   1.262  13.852  0.0010 -0.3300 -0.1608
   13BDTP    C625766   9.625   1.199  13.955 -0.1338 -0.2015 -0.1710
   13BDTP    C725767   9.793   1.446  13.735  0.3719 -0.5148 -0.1415
   13BDTP    C825768   9.824   1.347  13.649  0.1869 -0.5716 -0.1433
   13BDTP    S125769   9.764   1.184  13.703 -0.1364 -0.4596 -0.1578
   13BDTP    C925770   9.505   1.233  14.179 -0.0899  0.0215 -0.1815
   13BDTP   C1025771   9.474   1.333  14.265  0.0951  0.0784 -0.1795
   13BDTP    S225772   9.533   1.496  14.211  0.4185 -0.0338 -0.1651
   14FTM     S125773   9.842   1.720  13.928  0.6421  0.0329  0.0223
   14FTM     C125774   9.748   1.873  13.919 -0.1667 -0.4366  0.3017
   14FTM     C225775   9.616   1.847  13.939 -0.0608 -1.1914  0.0917
   14FTM     C325776   9.581   1.710  13.962  0.6387 -1.4447 -0.2900
   14FTM     C425777   9.690   1.628  13.960  1.0830 -0.8648 -0.3751
   14FTM     F125778   9.518   1.946  13.937 -0.5906 -1.6979  0.2327
   14FTM     C525779   9.817   2.014  13.897  0.3994 -1.0050 -0.8265
   14FTM     C625780   9.970   2.009  13.870 -1.0915  1.6850 -0.1793
   14FTM     C725781  10.048   1.907  13.776 -1.8266 -0.9337 -0.5147
   14FTM     C825782   9.989   1.927  13.632  0.6905  0.3288 -0.4266
   14FTM     C925783  10.059   1.990  13.510 -0.0257  0.6509 -0.7704
   14FTM    C1025784  10.198   1.957  13.471  1.0679 -0.9390  0.8057
   14FTM    C1125785  10.029   2.147  13.884  0.0997 -0.9343 -0.9291
   14FTM    C1225786  10.169   2.180  13.826  0.0559  0.6060 -0.8276
   15FTM     S125787   9.684   0.950  14.069 -0.2330 -0.1304  0.5594
   15FTM     C125788   9.625   0.801  13.987 -0.3581  0.1417  0.1482
   15FTM     C225789   9.553   0.834  13.877 -0.2048  0.5017  0.1540
   15FTM     C325790   9.540   0.975  13.850  0.0136  0.5858  0.4710
   15FTM     C425791   9.603   1.051  13.943  0.0282  0.2803  0.7159
   15FTM     F125792   9.495   0.740  13.793 -0.2532  0.7764 -0.1274
   15FTM     C525793   9.633   0.663  14.040  0.0719  0.0705 -0.2258
   15FTM     C625794   9.771   0.598  14.027  2.0397  0.2426 -0.3311
   15FTM     C725795   9.876   0.676  14.100 -0.1804  1.5931 -0.0943
   15FTM     C825796   9.866   0.647  14.251 -0.0720 -0.6814  0.0131
   15FTM     C925797   9.951   0.556  14.334  1.3646  0.7054 -0.3660
   15FTM    C1025798   9.923   0.408  14.335 -0.2365  0.5848  0.9446
   15FTM    C1125799   9.820   0.576  13.879  0.3358 -0.8277 -1.0866
   15FTM    C1225800   9.732   0.497  13.768  0.4871 -1.2529 -0.8149
   16TPM     C125801   9.398   1.321  14.385 -0.5093 -0.1279 -0.5252
   16TPM     C225802   9.382   1.214  14.468 -0.1037 -0.3652 -0.7463
   16TPM     C325803   9.309   1.244  14.589  0.4952 -0.7015 -0.2890
   16TPM     C425804   9.270   1.374  14.598  0.5461 -0.7208  0.2806
   16TPM     S125805   9.322   1.470  14.454 -0.1640 -0.3124  0.2839
   17BDD     C125806   8.969   1.498  14.817  0.3375  0.3472 -0.5937
   17BDD     C225807   9.084   1.505  14.891  0.2263  0.2399 -0.4089
   17BDD     C325808   9.202   1.459  14.819  0.2899  0.0700 -0.1984
   17BDD     C425809   9.175   1.418  14.692  0.4493  0.0503 -0.2260
   17BDD     S125810   9.000   1.433  14.653  0.5302  0.2430 -0.5172
   17BDD     C525811   9.090   1.554  15.030  0.0570  0.2895 -0.4188
   17BDD     C625812   9.336   1.458  14.880  0.1907 -0.0665  0.0222
   17BDD     O125813   9.438   1.419  14.818  0.2458 -0.2130  0.2036
   17BDD     O225814   8.988   1.593  15.092  0.0019  0.4359 -0.6003
   17BDD     C725815   9.342   1.507  15.019  0.0217 -0.0169  0.0122
   17BDD     C825816   9.224   1.553  15.091 -0.0422  0.1529 -0.1982
   17BDD     C925817   9.251   1.594  15.219 -0.2012  0.1726 -0.1706
   17BDD     S225818   9.426   1.578  15.258 -0.2823 -0.0201  0.1205
   17BDD    C1025819   9.457   1.514  15.093 -0.0896 -0.1243  0.1971
   17BDD    C1125820   9.600   1.502  15.071  0.7715 -0.3365  0.5151
   17BDD    C1225821   9.667   1.371  15.034 -0.7311 -1.0961 -0.1521
   17BDD    C1325822   9.816   1.399  15.056 -0.1161 -0.0934 -0.2052
   17BDD    C1425823   9.947   1.359  14.967  0.5137  0.2946  0.5623
   17BDD    C1525824   9.923   1.366  14.803 -0.2036 -0.1332 -0.6929
   17BDD    C1625825   9.864   1.499  14.764  0.9830  0.3064  0.7379
   17BDD    C1725826   9.590   1.235  15.021  1.0673  1.2300  0.6083
   17BDD    C1825827   9.618   1.116  14.916 -0.0301 -0.8592  0.4213
   17BDD    C1925828   9.168   1.666  15.313  0.1798 -0.7288 -0.4191
   17BDD    C2025829   9.203   1.812  15.363 -0.4750  1.6895  1.2533
   17BDD    C2125830   9.067   1.883  15.399  1.2981  0.0019 -0.5506
   17BDD    C2225831   9.079   2.034  15.431  0.9978  0.6053  0.2228
   17BDD    C2325832   9.065   2.143  15.312  0.1713  0.1290  0.0720
   17BDD    C2425833   8.942   2.134  15.231 -0.3986  0.5486 -0.3544
   17BDD    C2525834   9.333   1.799  15.453 -0.0170  0.1141 -0.2828
   17BDD    C2625835   9.394   1.919  15.510 -0.2779 -0.0221 -0.6320
   18TPM     C125836   8.827   1.505  14.848  0.0730  0.3488 -0.1212
   18TPM     C225837   8.736   1.433  14.777  0.0489  0.3228 -0.0641
   18TPM     C325838   8.600   1.452  14.822  0.1066  0.0084  0.2498
   18TPM     C425839   8.588   1.537  14.928  0.1753 -0.2054  0.4320
   18TPM     S125840   8.749   1.602  14.979  0.1717 -0.0247  0.2197
   19BDTP    C125841   8.014   1.771  14.970 -0.1478 -0.0955  0.2487
   19BDTP    C225842   8.094   1.877  15.021 -0.3026  0.0236  0.2446
   19BDTP    C325843   8.231   1.865  15.042 -0.2878  0.2184  0.2622
   19BDTP    C425844   8.292   1.743  15.010 -0.1111  0.2999  0.2850
   19BDTP    C525845   8.212   1.636  14.958  0.0439  0.1808  0.2891
   19BDTP    C625846   8.075   1.648  14.938  0.0284 -0.0140  0.2715
   19BDTP    C725847   8.432   1.707  15.023 -0.0615  0.4979  0.3060
   19BDTP    C825848   8.460   1.580  14.984  0.1209  0.5327  0.3255
   19BDTP    S125849   8.314   1.489  14.925  0.2553  0.3196  0.3200
   19BDTP    C925850   7.874   1.807  14.957 -0.1972 -0.2934  0.2277
   19BDTP   C1025851   7.846   1.933  14.996 -0.3798 -0.3282  0.2082
   19BDTP    S225852   7.992   2.025  15.054 -0.5144 -0.1152  0.2138
   20FTM     S125853   8.455   2.074  15.050 -0.1098  0.2857  0.3276
   20FTM     C125854   8.465   2.156  15.210 -0.5945  0.0358  0.4913
   20FTM     C225855   8.367   2.110  15.292 -1.2226  0.3241 -0.0692
   20FTM     C325856   8.281   2.009  15.238 -1.3614  0.7467 -0.6461
   20FTM     C425857   8.314   1.978  15.109 -0.8227  0.7832 -0.5235
   20FTM     F125858   8.350   2.155  15.422 -1.7087  0.2224 -0.0930
   20FTM     C525859   8.573   2.254  15.235 -2.0008  0.0654  0.1557
   20FTM     C625860   8.605   2.385  15.155  0.5140  0.3722 -0.2764
   20FTM     C725861   8.692   2.493  15.220 -0.6102  1.2977  0.6970
   20FTM     C825862   8.801   2.542  15.131 -0.4615 -1.3586 -0.7229
   20FTM     C925863   8.918   2.637  15.197 -1.3560  0.4283  0.3384
   20FTM    C1025864   9.058   2.565  15.170  0.8526  0.7837  0.3881
   20FTM    C1125865   8.479   2.447  15.089 -0.3037  0.3810 -0.9348
   20FTM    C1225866   8.360   2.520  15.163  0.7685  1.5691  0.3247
   21FTM     S125867   7.860   1.454  14.955  0.1376 -0.0375  0.3206
   21FTM     C125868   7.843   1.352  14.807 -0.6575  0.3987  0.1008
   21FTM     C225869   7.936   1.387  14.715 -0.6224  0.1266  0.0293
   21FTM     C325870   8.025   1.494  14.752  0.0093 -0.4244  0.1386
   21FTM     C425871   7.998   1.541  14.877  0.4736 -0.5792  0.2988
   21FTM     F125872   7.947   1.326  14.591 -1.1607  0.3602 -0.1390
   21FTM     C525873   7.747   1.234  14.801  0.8422 -0.4383 -0.1552
   21FTM     C625874   7.596   1.260  14.768 -1.7258  0.3824 -0.4384
   21FTM     C725875   7.544   1.116  14.778  0.3017  0.9248 -0.2965
   21FTM     C825876   7.422   1.102  14.889 -0.5830  0.0943  0.6231
   21FTM     C925877   7.399   0.967  14.941 -0.8784  1.0249  0.2493
   21FTM    C1025878   7.325   0.977  15.065 -0.2415  0.5420 -1.5146
   21FTM    C1125879   7.602   1.321  14.630  0.7618  0.4259  0.0083
   21FTM    C1225880   7.528   1.455  14.650 -0.7381  0.7934  0.0833
   22TPM     C125881   7.717   1.984  15.030 -0.1739 -0.8248 -0.4329
   22TPM     C225882   7.678   2.093  15.102  0.1619 -0.7526 -0.3591
   22TPM     C325883   7.535   2.106  15.115  0.1905 -0.1864 -0.5591
   22TPM     C425884   7.465   2.007  15.053 -0.1236  0.1731 -0.7853
   22TPM     S125885   7.575   1.889  14.972 -0.4825 -0.1782 -0.7633
   23BDD     C125886   7.096   1.890  15.084  0.2641 -0.0636  0.2576
   23BDD     C225887   7.087   2.014  15.028  0.1632 -0.1133  0.1609
   23BDD     C325888   7.216   2.078  15.008  0.1193 -0.0780 -0.0094
   23BDD     C425889   7.321   2.000  15.048  0.1875 -0.0017 -0.0400
   23BDD     S125890   7.266   1.843  15.115  0.3110  0.0309  0.1421
   23BDD     C525891   6.960   2.080  14.992  0.1035 -0.1951  0.2216
   23BDD     C625892   7.230   2.212  14.949  0.0117 -0.1211 -0.1353
   23BDD     O125893   7.342   2.267  14.931 -0.0261 -0.0905 -0.2820
   23BDD     O225894   6.848   2.026  15.010  0.1411 -0.2257  0.3683
   23BDD     C725895   7.103   2.278  14.913 -0.0479 -0.2030 -0.0747
   23BDD     C825896   6.974   2.215  14.933 -0.0041 -0.2382  0.0955
   23BDD     C925897   6.869   2.292  14.893 -0.0722 -0.3145  0.1263
   23BDD     S225898   6.924   2.450  14.827 -0.1957 -0.3472 -0.0558
   23BDD    C1025899   7.094   2.403  14.857 -0.1488 -0.2527 -0.1712
   23BDD    C1125900   7.153   2.544  14.867 -0.5402 -0.5844  0.6871
   23BDD    C1225901   7.231   2.598  14.753 -0.8674  0.4531 -1.1995
   23BDD    C1325902   7.295   2.737  14.782  0.4229 -0.3117  0.9287
   23BDD    C1425903   7.410   2.775  14.690 -1.0117 -0.0331  0.4870
   23BDD    C1525904   7.399   2.926  14.686 -0.8457  0.1401 -0.3873
   23BDD    C1625905   7.532   3.001  14.661 -0.4628  0.1622  0.2249
   23BDD    C1725906   7.197   2.583  14.608 -0.3371  0.2732 -0.0075
   23BDD    C1825907   7.106   2.667  14.533 -0.2307  0.0732  1.1916
   23BDD    C1925908   6.723   2.266  14.882  0.7560 -0.2354 -0.5841
   23BDD    C2025909   6.627   2.368  14.809  1.1492 -0.1015 -0.9671
   23BDD    C2125910   6.649   2.406  14.665  0.8260 -0.6301 -0.0723
   23BDD    C2225911   6.615   2.299  14.572 -0.8961 -0.0984  1.3715
   23BDD    C2325912   6.701   2.309  14.437  0.9727 -0.2065 -1.3191
   23BDD    C2425913   6.841   2.256  14.443 -0.8531  0.4840  0.2578
   23BDD    C2525914   6.562   2.496  14.899  1.0891  1.0860 -1.4978
   23BDD    C2625915   6.448   2.572  14.828 -0.4064  0.1470 -0.6778
   24TPM     C125916   6.997   1.788  15.114  0.3596  0.2377  0.2139
   24TPM     C225917   6.995   1.679  15.033  1.0742  0.0849  0.3889
   24TPM     C325918   6.890   1.585  15.065  1.3615 -0.3028  0.2125
   24TPM     C425919   6.812   1.624  15.170  0.8655 -0.4455 -0.0969
   24TPM     S125920   6.865   1.782  15.238 -0.0093 -0.0987 -0.1904
   25BDTP    C125921   6.316   1.367  15.464 -0.2300 -0.1524 -0.3850
   25BDTP    C225922   6.414   1.263  15.469 -0.0819  0.0003 -0.0912
   25BDTP    C325923   6.541   1.277  15.416 -0.0050  0.1321  0.1249
   25BDTP    C425924   6.574   1.399  15.354 -0.0771  0.1129  0.0479
   25BDTP    C525925   6.476   1.503  15.349 -0.2252 -0.0397 -0.2460
   25BDTP    C625926   6.349   1.489  15.402 -0.3023 -0.1716 -0.4622
   25BDTP    C725927   6.699   1.437  15.292 -0.0200  0.2319  0.2338
   25BDTP    C825928   6.700   1.563  15.241 -0.1169  0.1767  0.0954
   25BDTP    S125929   6.543   1.651  15.264 -0.2941 -0.0338 -0.2899
   25BDTP    C925930   6.191   1.329  15.526 -0.2872 -0.2714 -0.5710
   25BDTP   C1025931   6.190   1.204  15.577 -0.1903 -0.2161 -0.4325
   25BDTP    S225932   6.347   1.116  15.554 -0.0131 -0.0057 -0.0473
   26FTM     S125933   6.650   1.086  15.606 -0.3391 -0.1846  0.0388
   26FTM     C125934   6.649   0.925  15.527 -0.4191 -0.0480 -0.2429
   26FTM     C225935   6.642   0.939  15.392 -0.2503  0.1933 -0.2275
   26FTM     C325936   6.637   1.073  15.343 -0.0532  0.2845 -0.0010
   26FTM     C425937   6.641   1.165  15.444 -0.0715  0.1073  0.1623
   26FTM     F125938   6.640   0.831  15.305 -0.2640  0.3460 -0.4174
   26FTM     C525939   6.591   0.818  15.615 -0.9033  0.3857  0.6849
   26FTM     C625940   6.545   0.669  15.594 -1.6905 -0.0207 -0.2033
   26FTM     C725941   6.462   0.617  15.708  0.3481 -0.2269  0.0121
   26FTM     C825942   6.538   0.573  15.830 -0.6720  0.9358 -0.9521
   26FTM     C925943   6.459   0.590  15.962 -0.7096 -0.3837  0.0739
   26FTM    C1025944   6.416   0.449  16.021 -0.4729 -1.2058 -0.9166
   26FTM    C1125945   6.673   0.580  15.542  1.2970  0.0881 -1.2375
   26FTM    C1225946   6.638   0.431  15.488  0.6994 -0.1190 -0.1566
   27FTM     S125947   6.128   1.639  15.267 -0.6504  0.1079  0.1428
   27FTM     C125948   6.061   1.771  15.370  0.3593  0.5353  0.2672
   27FTM     C225949   6.132   1.779  15.486  1.3661  0.8768 -0.3468
   27FTM     C325950   6.240   1.686  15.501  1.4127  0.8282 -0.9371
   27FTM     C425951   6.252   1.603  15.393  0.4087  0.4367 -0.7696
   27FTM     F125952   6.104   1.872  15.585  2.3055  1.2537 -0.4107
   27FTM     C525953   5.943   1.840  15.320  0.9495 -1.0707 -0.8683
   27FTM     C625954   5.815   1.773  15.266 -0.0331  0.0255 -2.0143
   27FTM     C725955   5.723   1.864  15.180  0.8448  0.9909  0.5562
   27FTM     C825956   5.803   1.951  15.076  0.5314  0.1182 -0.1534
   27FTM     C925957   5.746   1.974  14.941  0.4590 -0.1690  0.6967
   27FTM    C1025958   5.704   1.859  14.843  0.2475  1.4956  0.3245
   27FTM    C1125959   5.736   1.694  15.389 -0.3494 -0.0176  1.3966
   27FTM    C1225960   5.642   1.765  15.492  0.1795  0.3537 -0.0661
   28TPM     C125961   6.089   1.144  15.651  0.1018 -0.3056  0.2497
   28TPM     C225962   6.089   1.012  15.684 -0.4400 -0.1777  0.7915
   28TPM     C325963   5.961   0.964  15.730 -0.6566  0.5137  0.9400
   28TPM     C425964   5.864   1.059  15.731 -0.2798  0.9131  0.5111
   28TPM     S125965   5.927   1.219  15.675  0.3827  0.4431 -0.1184
   29BDD     C125966   5.485   1.065  15.714 -0.0207 -0.0603  0.2339
   29BDD     C225967   5.512   0.986  15.823 -0.0029 -0.0894  0.2084
   29BDD     C325968   5.654   0.970  15.848  0.0037 -0.2220  0.0890
   29BDD     C425969   5.733   1.037  15.758 -0.0094 -0.2919  0.0250
   29BDD     S125970   5.635   1.124  15.636 -0.0306 -0.1968  0.1104
   29BDD     C525971   5.409   0.923  15.907  0.0089  0.0036  0.2928
   29BDD     C625972   5.707   0.889  15.960  0.0225 -0.2743  0.0423
   29BDD     O125973   5.829   0.875  15.981  0.0283 -0.3886 -0.0608
   29BDD     O225974   5.286   0.937  15.886  0.0032  0.1179  0.3958
   29BDD     C725975   5.603   0.826  16.044  0.0342 -0.1814  0.1266
   29BDD     C825976   5.461   0.842  16.019  0.0277 -0.0488  0.2462
   29BDD     C925977   5.382   0.775  16.109  0.0405  0.0212  0.3099
   29BDD     S225978   5.481   0.688  16.231  0.0619 -0.0739  0.2247
   29BDD    C1025979   5.631   0.747  16.153  0.0520 -0.2104  0.1011
   29BDD    C1125980   5.772   0.712  16.218  0.4124  0.4003  0.6998
   29BDD    C1225981   5.820   0.570  16.200 -0.1884 -0.1129  1.0273
   29BDD    C1325982   5.714   0.469  16.209 -0.1491  0.2825  0.8130
   29BDD    C1425983   5.658   0.438  16.062 -0.1022  0.6243  0.5130
   29BDD    C1525984   5.762   0.391  15.955 -0.1409 -0.0271  1.1038
   29BDD    C1625985   5.701   0.304  15.852 -0.1587 -0.0751  1.2557
   29BDD    C1725986   5.921   0.536  16.309 -1.4401 -1.1648 -0.9317
   29BDD    C1825987   6.070   0.588  16.278 -0.0552 -1.4031 -0.5159
   29BDD    C1925988   5.230   0.741  16.110  0.1011  0.6158 -1.0091
   29BDD    C2025989   5.189   0.594  16.101 -0.3141  1.2441 -0.5152
   29BDD    C2125990   5.240   0.492  15.986  0.8149 -0.8536  0.1207
   29BDD    C2225991   5.251   0.520  15.837 -0.4768 -1.8005  0.7422
   29BDD    C2325992   5.149   0.621  15.776  0.3203 -0.2870 -1.3871
   29BDD    C2425993   5.138   0.614  15.625 -0.4010  0.5783 -0.0224
   29BDD    C2525994   5.037   0.587  16.116  1.0505 -0.1429  0.2938
   29BDD    C2625995   4.933   0.630  15.994  0.1475 -0.6907 -0.5663
   30TPM     C125996   5.360   1.110  15.655  0.2217  0.2636  0.1058
   30TPM     C225997   5.305   1.231  15.686  0.5528  0.6119 -0.6132
   30TPM     C325998   5.170   1.246  15.641  0.7054  0.8556 -1.0016
   30TPM     C425999   5.121   1.137  15.575  0.4906  0.6930 -0.5788
   30TPM     S126000   5.244   1.006  15.565  0.0758  0.2159  0.3500
   31BDTP    C126001   4.566   1.176  15.277 -0.0697 -0.3080 -0.1730
   31BDTP    C226002   4.589   1.036  15.278 -0.0273 -0.3012 -0.2541
   31BDTP    C326003   4.701   0.978  15.336  0.0160 -0.2970 -0.3331
   31BDTP    C426004   4.795   1.063  15.397  0.0175 -0.2995 -0.3320
   31BDTP    C526005   4.772   1.204  15.397 -0.0248 -0.3062 -0.2508
   31BDTP    C626006   4.660   1.261  15.338 -0.0681 -0.3104 -0.1719
   31BDTP    C726007   4.919   1.026  15.463  0.0583 -0.2961 -0.4052
   31BDTP    C826008   4.989   1.131  15.512  0.0486 -0.2998 -0.3833
   31BDTP    S126009   4.908   1.291  15.481 -0.0135 -0.3083 -0.2668
   31BDTP    C926010   4.443   1.213  15.211 -0.1104 -0.3115 -0.0997
   31BDTP   C1026011   4.373   1.108  15.162 -0.1005 -0.3076 -0.1217
   31BDTP    S226012   4.453   0.948  15.193 -0.0385 -0.2992 -0.2381
   32FTM     S126013   4.741   0.804  15.134  0.2282 -0.0915  0.0278
   32FTM     C126014   4.789   0.634  15.168  0.0715 -0.1400  0.0070
   32FTM     C226015   4.797   0.614  15.302 -0.1764 -0.2289  0.0116
   32FTM     C326016   4.768   0.728  15.385 -0.2577 -0.2638  0.0311
   32FTM     C426017   4.736   0.838  15.311 -0.0658 -0.1996  0.0418
   32FTM     F126018   4.833   0.492  15.358 -0.3445 -0.2839 -0.0016
   32FTM     C526019   4.820   0.532  15.056 -0.0721 -0.7003  0.2667
   32FTM     C626020   4.952   0.452  15.034 -0.0226 -0.1334 -0.0693
   32FTM     C726021   4.950   0.331  14.915  0.2017  0.4276 -1.6535
   32FTM     C826022   5.005   0.202  14.961  0.3591 -0.6772  0.4362
   32FTM     C926023   4.988   0.118  14.837  0.6932 -0.4715 -0.7897
   32FTM    C1026024   5.042  -0.019  14.832  0.2140  0.0131  0.4772
   32FTM    C1126025   5.087   0.518  15.064  0.6594  1.3389  0.7397
   32FTM    C1226026   5.168   0.604  14.961 -0.4311 -0.5039  0.7441
   33FTM     S126027   4.785   1.474  15.177  0.3802 -0.2488  0.2244
   33FTM     C126028   4.740   1.642  15.225 -0.4418 -0.3001 -0.3366
   33FTM     C226029   4.645   1.638  15.322 -0.9794 -0.4206 -0.8520
   33FTM     C326030   4.603   1.507  15.364 -0.7894 -0.4789 -0.8423
   33FTM     C426031   4.668   1.408  15.297 -0.0835 -0.4006 -0.3017
   33FTM     F126032   4.590   1.752  15.379 -1.6752 -0.4852 -1.3633
   33FTM     C526033   4.816   1.760  15.150  0.7515 -0.2436 -1.4217
   33FTM     C626034   4.829   1.904  15.213 -0.4680  0.8081 -0.3144
   33FTM     C726035   4.923   1.927  15.328 -0.8547 -0.0547 -0.5789
   33FTM     C826036   4.870   1.936  15.466 -1.6926 -0.1329 -0.8849
   33FTM     C926037   4.926   2.079  15.529  0.8949  0.5781 -1.2348
   33FTM    C1026038   4.842   2.050  15.660 -0.1212 -0.7701  0.4163
   33FTM    C1126039   4.848   2.006  15.105  0.8613  0.4784 -0.3151
   33FTM    C1226040   4.972   2.022  15.036 -0.5176  0.7251 -0.2611
   34TPM     C126041   4.250   1.140  15.108  0.6660  0.2883 -0.1927
   34TPM     C226042   4.157   1.053  15.059  0.7888  0.3059 -0.4612
   34TPM     C326043   4.041   1.117  15.003  0.7486  0.3181 -0.3645
   34TPM     C426044   4.046   1.253  15.010  0.5955  0.3098 -0.0222
   34TPM     S126045   4.198   1.311  15.087  0.4891  0.2857  0.2063
   35BDD     C126046   3.674   1.400  15.032 -0.2055  0.0527  0.1661
   35BDD     C226047   3.744   1.492  14.959 -0.1842  0.1306  0.2834
   35BDD     C326048   3.883   1.455  14.938 -0.0733  0.3448  0.6222
   35BDD     C426049   3.917   1.335  14.996 -0.0116  0.4272  0.7583
   35BDD     S126050   3.777   1.261  15.080 -0.0882  0.2422  0.4717
   35BDD     C526051   3.686   1.617  14.906 -0.2650  0.0108  0.0885
   35BDD     C626052   3.977   1.539  14.862 -0.0325  0.4600  0.7987
   35BDD     O126053   4.097   1.507  14.844  0.0629  0.6448  1.0909
   35BDD     O226054   3.567   1.649  14.924 -0.3605 -0.1739 -0.2038
   35BDD     C726055   3.920   1.664  14.809 -0.1134  0.3403  0.6037
   35BDD     C826056   3.781   1.701  14.829 -0.2242  0.1261  0.2649
   35BDD     C926057   3.747   1.821  14.772 -0.2859  0.0437  0.1289
   35BDD     S226058   3.887   1.895  14.688 -0.2094  0.2287  0.4155
   35BDD    C1026059   3.990   1.756  14.735 -0.0921  0.4182  0.7210
   35BDD    C1126060   4.116   1.748  14.653  0.3174  0.3111 -0.6317
   35BDD    C1226061   4.224   1.843  14.661 -0.4899  0.8086 -1.4393
   35BDD    C1326062   4.289   1.811  14.804 -0.1304  0.4911 -0.0288
   35BDD    C1426063   4.402   1.897  14.895  0.4201  1.1308 -0.0547
   35BDD    C1526064   4.519   1.972  14.835 -0.9731 -0.5808 -0.5529
   35BDD    C1626065   4.483   2.112  14.812  1.1687 -1.5790 -0.0177
   35BDD    C1726066   4.296   1.870  14.518  2.0225  0.2526 -1.0669
   35BDD    C1826067   4.437   1.837  14.490 -0.8661  0.1955  0.0675
   35BDD    C1926068   3.625   1.898  14.731  1.5668  0.0880 -0.1159
   35BDD    C2026069   3.524   1.924  14.841  1.2047 -0.6026  0.5344
   35BDD    C2126070   3.375   1.958  14.777 -0.3504 -0.2733 -0.3359
   35BDD    C2226071   3.366   2.093  14.698  0.4269  0.5787 -1.4128
   35BDD    C2326072   3.357   2.234  14.778 -0.4853 -0.9829 -0.1490
   35BDD    C2426073   3.461   2.341  14.778 -0.2678 -0.3987 -1.1795
   35BDD    C2526074   3.583   2.011  14.934 -1.7254 -0.2918 -0.3328
   35BDD    C2626075   3.515   2.077  15.049  0.1663 -0.2209  0.4346
   36TPM     C126076   3.532   1.375  15.076  0.2159 -0.9161 -0.2727
   36TPM     C226077   3.518   1.284  15.176  0.1757 -0.6203 -0.0070
   36TPM     C326078   3.387   1.285  15.237  0.3210 -0.0599  0.3197
   36TPM     C426079   3.302   1.376  15.182  0.4720  0.0716  0.3030
   36TPM     S126080   3.381   1.470  15.049  0.4421 -0.5066 -0.1298
   37BDTP    C126081   2.678   1.383  15.264  0.2498 -0.3164  0.1397
   37BDTP    C226082   2.694   1.446  15.137  0.1779 -0.0630  0.2561
   37BDTP    C326083   2.818   1.469  15.080  0.1452  0.0517  0.2307
   37BDTP    C426084   2.933   1.428  15.150  0.1852 -0.0898  0.0833
   37BDTP    C526085   2.917   1.364  15.277  0.2571 -0.3431 -0.0331
   37BDTP    C626086   2.793   1.341  15.335  0.2898 -0.4578 -0.0076
   37BDTP    C726087   3.071   1.440  15.111  0.1629 -0.0114  0.0299
   37BDTP    C826088   3.160   1.390  15.200  0.2139 -0.1914 -0.1193
   37BDTP    S126089   3.079   1.320  15.348  0.2975 -0.4854 -0.2130
   37BDTP    C926090   2.540   1.370  15.304  0.2722 -0.3947  0.1932
   37BDTP   C1026091   2.451   1.420  15.214  0.2211 -0.2147  0.3422
   37BDTP    S226092   2.532   1.490  15.067  0.1375  0.0794  0.4360
   38FTM     S126093   2.950   1.676  14.920 -0.4731  0.2404  0.0541
   38FTM     C126094   2.878   1.702  14.757  0.0345 -0.3412 -0.2737
   38FTM     C226095   2.775   1.616  14.738  0.5336 -0.8813 -0.5705
   38FTM     C326096   2.747   1.526  14.846  0.5510 -0.8759 -0.5615
   38FTM     C426097   2.831   1.544  14.951  0.0490 -0.3134 -0.2474
   38FTM     F126098   2.700   1.613  14.621  1.0042 -1.4126 -0.8682
   38FTM     C526099   2.955   1.774  14.662 -0.9583 -0.7117 -0.1706
   38FTM     C626100   2.916   1.883  14.562 -0.1815 -0.2129 -1.8665
   38FTM     C726101   2.864   1.855  14.431  1.7415  1.5027  0.5939
   38FTM     C826102   2.910   1.723  14.346  0.8508  0.4983 -0.0211
   38FTM     C926103   3.044   1.676  14.313 -0.8093 -0.9226 -0.5687
   38FTM    C1026104   3.074   1.527  14.284  0.5859 -0.3990 -0.8463
   38FTM    C1126105   2.853   1.991  14.655 -0.1432  0.3365  0.5321
   38FTM    C1226106   2.894   2.134  14.637  1.6811  0.9286 -0.5469
   39FTM     S126107   2.658   1.316  15.589  0.0097 -0.1841 -0.1810
   39FTM     C126108   2.692   1.169  15.688  0.4032  0.1651  0.2105
   39FTM     C226109   2.788   1.095  15.629  0.7982  0.3988  0.5493
   39FTM     C326110   2.841   1.146  15.505  0.8185  0.3223  0.5262
   39FTM     C426111   2.782   1.264  15.469  0.4261  0.0203  0.1572
   39FTM     F126112   2.835   0.976  15.682  1.1650  0.6957  0.9007
   39FTM     C526113   2.613   1.144  15.809 -0.3959  0.5124 -0.0768
   39FTM     C626114   2.508   1.258  15.853  0.7675  0.3949  1.0460
   39FTM     C726115   2.538   1.410  15.859 -2.3492  0.0555 -0.1666
   39FTM     C826116   2.648   1.456  15.967 -0.6895  0.2575  0.4911
   39FTM     C926117   2.714   1.587  15.927 -1.0687 -0.4120  0.2617
   39FTM    C1026118   2.782   1.654  16.058 -0.5028  0.1039  0.1020
   39FTM    C1126119   2.360   1.240  15.833  0.1173 -0.3579  0.8772
   39FTM    C1226120   2.326   1.098  15.869  0.7394 -0.3286  0.4523
   40TPM     C126121   2.307   1.435  15.234  0.0377 -0.7552 -0.1084
   40TPM     C226122   2.228   1.410  15.342 -0.2487 -1.0289 -0.3757
   40TPM     C326123   2.099   1.473  15.336 -0.2416 -1.0325 -0.5680
   40TPM     C426124   2.079   1.546  15.223  0.0505 -0.7616 -0.4470
   40TPM     S126125   2.223   1.541  15.114  0.3412 -0.4787 -0.0784
   41BDD     C126126   1.889   1.896  15.207 -0.7606  0.2088 -0.2870
   41BDD     C226127   1.803   1.811  15.272 -0.5850  0.1623 -0.1120
   41BDD     C326128   1.854   1.676  15.285 -0.3452  0.2703  0.0818
   41BDD     C426129   1.979   1.660  15.230 -0.3415  0.3976  0.0517
   41BDD     S126130   2.040   1.812  15.159 -0.6379  0.3909 -0.2213
   41BDD     C526131   1.670   1.851  15.324 -0.6310  0.0170 -0.1165
   41BDD     C626132   1.778   1.568  15.351 -0.1284  0.2434  0.2897
   41BDD     O126133   1.823   1.451  15.362  0.0783  0.3365  0.4569
   41BDD     O226134   1.626   1.968  15.313 -0.8377 -0.0761 -0.2836
   41BDD     C726135   1.646   1.608  15.403 -0.1746  0.0980  0.2854
   41BDD     C826136   1.594   1.743  15.390 -0.4143 -0.0100  0.0915
   41BDD     C926137   1.470   1.759  15.445 -0.4180 -0.1372  0.1216
   41BDD     S226138   1.409   1.606  15.516 -0.1216 -0.1306  0.3946
   41BDD    C1026139   1.560   1.523  15.467  0.0011  0.0515  0.4603
   41BDD    C1126140   1.582   1.376  15.530 -0.8325  0.2753 -0.0137
   41BDD    C1226141   1.550   1.340  15.679 -0.9565 -0.1874  1.1198
   41BDD    C1326142   1.639   1.385  15.794  0.9832  0.1024 -0.4409
   41BDD    C1426143   1.787   1.406  15.773  0.4441 -0.0705  0.4742
   41BDD    C1526144   1.875   1.401  15.890 -0.5440 -0.2653  0.7717
   41BDD    C1626145   2.007   1.373  15.818  0.3539  0.0813  0.0768
   41BDD    C1726146   1.401   1.316  15.716 -0.1487  0.0470  1.2561
   41BDD    C1826147   1.360   1.279  15.852 -0.3630 -0.5076 -1.0150
   41BDD    C1926148   1.360   1.872  15.469  0.1872 -0.1254 -0.9993
   41BDD    C2026149   1.248   1.888  15.360  0.3089 -0.4473 -0.8828
   41BDD    C2126150   1.283   1.987  15.251  0.7772 -0.0577  0.3057
   41BDD    C2226151   1.182   2.032  15.145 -0.2550 -1.1749 -1.3441
   41BDD    C2326152   1.211   1.990  15.009  0.4795 -0.6868 -0.0217
   41BDD    C2426153   1.085   2.011  14.920  0.9406  0.1272  0.9514
   41BDD    C2526154   1.112   1.817  15.367 -0.5789 -0.2683  0.6200
   41BDD    C2626155   1.090   1.670  15.409  0.2705 -0.8875  0.5120
   42TPM     C126156   1.895   2.040  15.195  0.6075 -0.5332 -1.0223
   42TPM     C226157   1.999   2.114  15.243  0.4695 -0.5761 -0.6540
   42TPM     C326158   1.986   2.255  15.218  0.1451 -0.4525  0.1602
   42TPM     C426159   1.873   2.290  15.151  0.0357 -0.3152  0.4126
   42TPM     S126160   1.772   2.145  15.114  0.3364 -0.3318 -0.3645
   43BDTP    C126161   1.713   2.882  14.992  0.1398 -0.2204  0.0546
   43BDTP    C226162   1.793   2.903  15.108  0.2600 -0.2876 -0.0165
   43BDTP    C326163   1.852   2.798  15.178  0.2984 -0.3313 -0.1134
   43BDTP    C426164   1.830   2.667  15.131  0.2146 -0.3076 -0.1420
   43BDTP    C526165   1.750   2.647  15.015  0.0944 -0.2403 -0.0710
   43BDTP    C626166   1.691   2.751  14.945  0.0559 -0.1967  0.0261
   43BDTP    C726167   1.880   2.543  15.187  0.2335 -0.3434 -0.2380
   43BDTP    C826168   1.842   2.432  15.120  0.1346 -0.3069 -0.2427
   43BDTP    S126169   1.737   2.469  14.976  0.0036 -0.2218 -0.1258
   43BDTP    C926170   1.662   3.006  14.936  0.1209 -0.1845  0.1507
   43BDTP   C1026171   1.701   3.117  15.003  0.2198 -0.2210  0.1553
   43BDTP    S226172   1.806   3.080  15.147  0.3508 -0.3061  0.0384
   44FTM     S126173   1.825   2.935  15.431  0.0228 -0.0367 -0.3604
   44FTM     C126174   1.963   2.917  15.546 -0.1528 -0.2730 -0.1850
   44FTM     C226175   2.059   2.839  15.491 -0.2798 -0.5596 -0.0033
   44FTM     C326176   2.033   2.789  15.359 -0.2490 -0.6117  0.0099
   44FTM     C426177   1.912   2.831  15.312 -0.0934 -0.3566 -0.1671
   44FTM     F126178   2.178   2.807  15.557 -0.4314 -0.7918  0.1614
   44FTM     C526179   1.941   2.992  15.672 -0.1366 -1.1352  0.0244
   44FTM     C626180   1.837   2.977  15.786 -0.3300  0.1800  0.7014
   44FTM     C726181   1.791   2.838  15.816 -0.9954 -0.2642  0.7052
   44FTM     C826182   1.878   2.697  15.768 -0.4445  0.3175 -0.4887
   44FTM     C926183   2.004   2.659  15.821 -1.1971  0.8791  0.3427
   44FTM    C1026184   2.026   2.658  15.973 -0.1478  0.6055  0.3492
   44FTM    C1126185   1.803   3.102  15.863 -0.4189  0.7182  1.3395
   44FTM    C1226186   1.661   3.168  15.835  0.0357  0.0046 -0.3112
   45FTM     S126187   1.719   2.622  14.689  0.1743  0.4533  0.1867
   45FTM     C126188   1.569   2.623  14.589  0.3333  0.3835 -0.0539
   45FTM     C226189   1.473   2.698  14.650 -0.0099 -0.1775  0.1055
   45FTM     C326190   1.510   2.757  14.776 -0.4078 -0.5776  0.4172
   45FTM     C426191   1.638   2.727  14.812 -0.3681 -0.3144  0.4991
   45FTM     F126192   1.347   2.717  14.596  0.0159 -0.3620 -0.0212
   45FTM     C526193   1.556   2.522  14.474  0.9484 -1.7476  0.7956
   45FTM     C626194   1.529   2.373  14.525 -0.4880  0.3266 -0.4641
   45FTM     C726195   1.535   2.266  14.408 -0.1194  0.3696 -0.2242
   45FTM     C826196   1.503   2.292  14.264  0.5097 -0.4362 -0.6363
   45FTM     C926197   1.460   2.169  14.183  1.1940 -0.2415 -0.2929
   45FTM    C1026198   1.383   2.223  14.060  1.0167  0.0129 -0.6500
   45FTM    C1126199   1.396   2.345  14.584  0.4481  1.6034 -1.0981
   45FTM    C1226200   1.270   2.426  14.543  0.7084 -0.6682 -0.0438
   46TPM     C126201   1.718   3.248  14.951 -0.1512 -0.6371 -0.6627
   46TPM     C226202   1.795   3.339  15.018 -0.1695 -0.9896 -0.1580
   46TPM     C326203   1.770   3.475  14.981 -0.1007 -0.7913  0.5026
   46TPM     C426204   1.674   3.490  14.886 -0.0300 -0.2875  0.5017
   46TPM     S126205   1.607   3.330  14.835 -0.0449 -0.0226 -0.3401
   47BDD     C126206   1.569   3.845  14.761 -0.2171  0.3099  0.2321
   47BDD     C226207   1.487   3.814  14.866 -0.2468  0.3608  0.2242
   47BDD     C326208   1.508   3.680  14.918 -0.2449  0.3945  0.3107
   47BDD     C426209   1.606   3.611  14.852 -0.2138  0.3687  0.3833
   47BDD     S126210   1.678   3.709  14.720 -0.1848  0.3005  0.3483
   47BDD     C526211   1.386   3.906  14.922 -0.2780  0.3802  0.1369
   47BDD     C626212   1.431   3.625  15.031 -0.2739  0.4508  0.3183
   47BDD     O126213   1.450   3.510  15.076 -0.2723  0.4800  0.3929
   47BDD     O226214   1.368   4.021  14.878 -0.2797  0.3512  0.0623
   47BDD     C726215   1.330   3.717  15.088 -0.3051  0.4705  0.2309
   47BDD     C826216   1.309   3.851  15.036 -0.3071  0.4368  0.1444
   47BDD     C926217   1.211   3.920  15.102 -0.3382  0.4625  0.0719
   47BDD     S226218   1.139   3.822  15.234 -0.3672  0.5307  0.1068
   47BDD    C1026219   1.248   3.686  15.193 -0.3348  0.5214  0.2232
   47BDD    C1126220   1.209   3.578  15.286 -1.5631  0.8815  0.3731
   47BDD    C1226221   1.124   3.471  15.230 -0.0399 -0.1995 -0.4949
   47BDD    C1326222   1.158   3.335  15.200 -0.4960 -0.3667 -0.1678
   47BDD    C1426223   1.218   3.267  15.320 -0.4395  0.5837 -0.0390
   47BDD    C1526224   1.114   3.209  15.408 -0.4270 -0.2706 -0.1146
   47BDD    C1626225   1.174   3.114  15.514  0.8517 -0.2406 -0.9991
   47BDD    C1726226   0.967   3.474  15.204 -0.8552  0.4356 -1.1886
   47BDD    C1826227   0.925   3.541  15.069 -1.0632 -0.7276 -0.3517
   47BDD    C1926228   1.151   4.064  15.093  0.7069 -0.2999  0.4091
   47BDD    C2026229   0.996   4.083  15.072  1.0220  1.2915  0.9996
   47BDD    C2126230   0.922   4.180  15.178 -0.3658 -0.1176  0.3828
   47BDD    C2226231   0.997   4.318  15.180 -0.7581 -0.0341  0.1167
   47BDD    C2326232   0.951   4.381  15.299 -0.1132  0.4081 -1.0986
   47BDD    C2426233   0.982   4.530  15.323 -0.7499  1.3727 -0.4977
   47BDD    C2526234   0.942   4.108  14.931 -1.1622 -0.0299  0.4734
   47BDD    C2626235   0.954   3.997  14.823  1.2823  0.2066 -0.3457
   48TPM     C126236   1.601   3.955  14.664 -0.0769  0.1276  0.2697
   48TPM     C226237   1.720   3.968  14.600  0.2212  0.5273  0.8862
   48TPM     C326238   1.730   4.086  14.518  0.4665  0.8482  1.3632
   48TPM     C426239   1.617   4.162  14.519  0.3555  0.6929  1.1104
   48TPM     S126240   1.490   4.091  14.625 -0.0708  0.1253  0.2437
   49BDTP    C126241   1.562   4.725  14.265  0.0784 -0.0433 -0.4371
   49BDTP    C226242   1.453   4.718  14.356  0.2486  0.0644 -0.2208
   49BDTP    C326243   1.424   4.604  14.430  0.2556  0.0780 -0.1971
   49BDTP    C426244   1.507   4.491  14.413  0.0869 -0.0193 -0.3958
   49BDTP    C526245   1.617   4.499  14.322 -0.0834 -0.1270 -0.6120
   49BDTP    C626246   1.645   4.613  14.249 -0.0903 -0.1405 -0.6358
   49BDTP    C726247   1.497   4.362  14.479  0.0594 -0.0262 -0.4137
   49BDTP    C826248   1.593   4.274  14.442 -0.1210 -0.1326 -0.6304
   49BDTP    S126249   1.709   4.341  14.319 -0.2814 -0.2389 -0.8420
   49BDTP    C926250   1.572   4.854  14.200  0.1059 -0.0364 -0.4191
   49BDTP   C1026251   1.477   4.943  14.237  0.2863  0.0701 -0.2025
   49BDTP    S226252   1.361   4.875  14.360  0.4467  0.1764  0.0091
   50FTM     S126253   1.190   4.508  14.539  0.3255  0.7034  0.1915
   50FTM     C126254   1.152   4.549  14.710  0.3986  0.2291  0.3254
   50FTM     C226255   1.242   4.641  14.756  0.5285 -0.0342  0.6003
   50FTM     C326256   1.343   4.683  14.664  0.5779  0.1131  0.7201
   50FTM     C426257   1.330   4.622  14.543  0.4827  0.5020  0.5314
   50FTM     F126258   1.238   4.691  14.885  0.6103 -0.4245  0.7592
   50FTM     C526259   1.040   4.524  14.808  0.3993 -0.3883 -0.2077
   50FTM     C626260   0.894   4.530  14.778 -0.5621  0.0331 -0.4137
   50FTM     C726261   0.798   4.544  14.890 -1.2707 -0.1976 -0.2150
   50FTM     C826262   0.700   4.666  14.889 -1.7517 -0.9728  0.0543
   50FTM     C926263   0.719   4.771  15.007  0.2502  0.0636  0.0596
   50FTM    C1026264   0.719   4.929  14.966 -0.2554  0.3764 -0.0586
   50FTM    C1126265   0.854   4.448  14.657 -0.6502  0.6721  0.1513
   50FTM    C1226266   0.761   4.525  14.557  0.2786 -0.7309  0.2080
   51FTM     S126267   1.928   4.649  14.297  0.5057  0.1467  0.0275
   51FTM     C126268   2.035   4.593  14.164 -0.1110 -0.7736 -0.0975
   51FTM     C226269   1.960   4.556  14.057 -0.5900 -1.1090  0.3461
   51FTM     C326270   1.818   4.569  14.072 -0.5088 -0.6810  0.7993
   51FTM     C426271   1.783   4.617  14.194  0.0508  0.0042  0.6994
   51FTM     F126272   2.015   4.509  13.939 -1.1306 -1.8233  0.3682
   51FTM     C526273   2.170   4.560  14.208  0.1101  0.2354  0.1883
   51FTM     C626274   2.186   4.497  14.346 -0.6594  0.0845  0.1774
   51FTM     C726275   2.340   4.457  14.364 -1.1808 -0.1858  0.3338
   51FTM     C826276   2.440   4.581  14.361  0.1533  0.4685  0.8047
   51FTM     C926277   2.578   4.599  14.441  0.5675  0.3660  0.5964
   51FTM    C1026278   2.615   4.473  14.509  0.8445 -0.6537 -0.0980
   51FTM    C1126279   2.085   4.413  14.408 -1.2901 -0.1625  0.4777
   51FTM    C1226280   2.080   4.275  14.337  0.6608 -0.1300 -0.4869
   52TPM     C126281   1.456   5.078  14.202  0.7739 -0.8496 -0.8157
   52TPM     C226282   1.353   5.167  14.217  0.4410 -1.1765 -1.1228
   52TPM     C326283   1.392   5.304  14.196  0.2069 -0.9969 -0.4265
   52TPM     C426284   1.523   5.320  14.165  0.3614 -0.5331  0.4114
   52TPM     S126285   1.610   5.162  14.160  0.8179 -0.2850  0.3860
   53BDD     C126286   1.665   5.591  13.925 -0.0595 -0.3953  0.2222
   53BDD     C226287   1.660   5.647  14.049 -0.0903 -0.3129  0.1839
   53BDD     C326288   1.608   5.557  14.151 -0.2678 -0.1931  0.2009
   53BDD     C426289   1.575   5.434  14.102 -0.3698 -0.1856  0.2521
   53BDD     S126290   1.606   5.422  13.926 -0.2506 -0.3284  0.2822
   53BDD     C526291   1.702   5.786  14.079  0.0424 -0.3413  0.1301
   53BDD     C626292   1.594   5.597  14.292 -0.3298 -0.0900  0.1659
   53BDD     O126293   1.550   5.520  14.380 -0.4829  0.0135  0.1806
   53BDD     O226294   1.746   5.863  13.991  0.1955 -0.4448  0.1155
   53BDD     C726295   1.636   5.736  14.322 -0.1971 -0.1185  0.1122
   53BDD     C826296   1.688   5.826  14.221 -0.0196 -0.2384  0.0951
   53BDD     C926297   1.721   5.949  14.269  0.0824 -0.2456  0.0439
   53BDD     S226298   1.691   5.961  14.445 -0.0368 -0.1029  0.0139
   53BDD    C1026299   1.631   5.792  14.447 -0.2280 -0.0360  0.0738
   53BDD    C1126300   1.581   5.733  14.567 -1.1513  0.6031 -1.9681
   53BDD    C1226301   1.434   5.759  14.635 -1.3051 -1.1531  0.8320
   53BDD    C1326302   1.405   5.813  14.763 -1.0049 -0.1198 -0.0321
   53BDD    C1426303   1.423   5.960  14.790 -1.3285  0.7928  0.8185
   53BDD    C1526304   1.567   6.000  14.783  1.4792 -1.4695 -0.2699
   53BDD    C1626305   1.592   6.117  14.874 -0.6810  0.9256 -0.3361
   53BDD    C1726306   1.332   5.658  14.573  0.9116 -1.1700  0.6389
   53BDD    C1826307   1.310   5.525  14.636  0.1133 -0.4442 -0.2238
   53BDD    C1926308   1.732   6.083  14.208  0.0482 -0.1707  0.2763
   53BDD    C2026309   1.852   6.170  14.241 -0.1368 -1.1207 -1.1045
   53BDD    C2126310   1.837   6.325  14.207 -0.6777  1.6784  0.0455
   53BDD    C2226311   1.970   6.406  14.256  0.8174  1.1607 -2.3989
   53BDD    C2326312   1.977   6.537  14.197  1.1331  0.3381 -0.3030
   53BDD    C2426313   2.107   6.553  14.130 -0.2772  0.3747  0.0496
   53BDD    C2526314   1.992   6.103  14.232  1.1978  0.6390  1.9960
   53BDD    C2626315   2.016   6.072  14.076  1.2384 -1.1713 -1.3083
   54TPM     C126316   1.665   5.658  13.793  0.5167 -0.3025 -0.8815
   54TPM     C226317   1.778   5.721  13.749  0.2441 -0.1326 -1.3458
   54TPM     C326318   1.780   5.742  13.606 -0.5588  0.2434 -1.3149
   54TPM     C426319   1.669   5.695  13.542 -0.8986  0.3603 -0.8272
   54TPM     S126320   1.553   5.620  13.657 -0.2254  0.0016 -0.3653
   55BDTP    C126321   1.621   5.736  12.917  0.0969  0.0885  0.0800
   55BDTP    C226322   1.487   5.711  12.960  0.1660 -0.1950  0.1301
   55BDTP    C326323   1.452   5.701  13.094  0.2420 -0.3024  0.1426
   55BDTP    C426324   1.553   5.717  13.190  0.2505 -0.1221  0.1040
   55BDTP    C526325   1.686   5.743  13.147  0.1814  0.1614  0.0539
   55BDTP    C626326   1.722   5.753  13.013  0.1054  0.2688  0.0414
   55BDTP    C726327   1.541   5.712  13.334  0.3230 -0.1857  0.1079
   55BDTP    C826328   1.657   5.732  13.401  0.3119  0.0335  0.0638
   55BDTP    S126329   1.798   5.760  13.290  0.2079  0.3515  0.0110
   55BDTP    C926330   1.633   5.742  12.773  0.0244  0.1521  0.0762
   55BDTP   C1026331   1.517   5.722  12.706  0.0355 -0.0672  0.1203
   55BDTP    S226332   1.375   5.694  12.816  0.1394 -0.3852  0.1730
   56FTM     S126333   1.183   5.801  13.059  0.0237  0.3414 -0.3055
   56FTM     C126334   1.045   5.700  13.116 -0.4772  0.9481 -0.4208
   56FTM     C226335   1.092   5.591  13.182 -1.0203  0.8539 -0.1826
   56FTM     C326336   1.235   5.579  13.193 -1.0785  0.3173  0.0972
   56FTM     C426337   1.299   5.683  13.132 -0.5632 -0.0102  0.0726
   56FTM     F126338   1.009   5.495  13.237 -1.4968  1.2481 -0.2039
   56FTM     C526339   0.898   5.732  13.099  1.0834  0.2744  0.5823
   56FTM     C626340   0.814   5.846  13.024  0.3371  0.5883 -0.6176
   56FTM     C726341   0.669   5.852  13.054  0.3496 -1.6844 -0.2965
   56FTM     C826342   0.571   5.741  13.055 -0.6638  0.9176 -0.1320
   56FTM     C926343   0.563   5.694  12.904 -0.5067  0.0301 -0.1186
   56FTM    C1026344   0.540   5.556  12.868  0.8425  0.2857 -0.9030
   56FTM    C1126345   0.879   5.985  13.034 -0.2553 -0.4088  0.3397
   56FTM    C1226346   0.909   6.036  13.184  1.0509 -0.1121  0.0357
   57FTM     S126347   1.961   5.912  13.036  0.3173 -0.0196  0.0010
   57FTM     C126348   2.096   5.881  12.922  0.5458  0.0298  0.2546
   57FTM     C226349   2.072   5.767  12.852  0.7530 -0.0175  0.2587
   57FTM     C326350   1.950   5.698  12.883  0.7468 -0.0932  0.0694
   57FTM     C426351   1.878   5.762  12.979  0.5278 -0.1043 -0.0846
   57FTM     F126352   2.159   5.717  12.756  0.9605  0.0050  0.4340
   57FTM     C526353   2.197   5.989  12.929 -0.7430  0.0106  1.4620
   57FTM     C626354   2.317   5.989  13.019  0.2199  0.1072 -1.0387
   57FTM     C726355   2.289   5.967  13.173 -0.5531  0.5890  0.8028
   57FTM     C826356   2.413   5.966  13.276  0.2946  0.9663 -0.6472
   57FTM     C926357   2.382   5.973  13.428 -0.1145  0.3700 -0.2872
   57FTM    C1026358   2.355   5.825  13.448  1.1255 -0.5680  0.2055
   57FTM    C1126359   2.403   6.109  12.998  0.3087  0.2207 -0.0149
   57FTM    C1226360   2.506   6.100  12.885  0.7231 -0.9346  0.2673
   58TPM     C126361   1.475   5.714  12.571  0.6765  0.2395 -0.1191
   58TPM     C226362   1.463   5.616  12.478  0.4059  0.1340  0.0263
   58TPM     C326363   1.438   5.664  12.345 -0.0342 -0.0190  0.0497
   58TPM     C426364   1.431   5.800  12.336 -0.0992 -0.0297 -0.0778
   58TPM     S126365   1.456   5.878  12.497  0.3944  0.1535 -0.2386
   59BDD     C126366   1.518   5.958  11.982 -0.0020 -0.2094 -0.1880
   59BDD     C226367   1.386   5.987  12.008  0.0339 -0.0757 -0.1542
   59BDD     C326368   1.339   5.936  12.135  0.1380  0.3586  0.0649
   59BDD     C426369   1.435   5.868  12.205  0.1799  0.5499  0.1950
   59BDD     S126370   1.591   5.864  12.116  0.0919  0.1993  0.0521
   59BDD     C526371   1.300   6.064  11.916 -0.0260 -0.3424 -0.3220
   59BDD     C626372   1.201   5.956  12.182  0.1922  0.5682  0.1373
   59BDD     O126373   1.160   5.911  12.292  0.2820  0.9426  0.3262
   59BDD     O226374   1.340   6.109  11.806 -0.1158 -0.7168 -0.5109
   59BDD     C726375   1.114   6.032  12.091  0.1323  0.3016 -0.0305
   59BDD     C826376   1.161   6.084  11.963  0.0281 -0.1328 -0.2496
   59BDD     C926377   1.065   6.152  11.893 -0.0138 -0.3241 -0.3796
   59BDD     S226378   0.909   6.156  11.982  0.0743  0.0264 -0.2368
   59BDD    C1026379   0.983   6.061  12.116  0.1682  0.4350  0.0033
   59BDD    C1126380   0.895   6.035  12.240 -0.1781  0.0183  0.1869
   59BDD    C1226381   0.770   6.121  12.288  1.2933  0.2491  0.2891
   59BDD    C1326382   0.624   6.088  12.244  0.9150  1.1285  0.3052
   59BDD    C1426383   0.604   6.106  12.090 -0.5315  0.2291 -1.2667
   59BDD    C1526384   0.465   6.072  12.055  0.1035  0.8406  0.1767
   59BDD    C1626385   0.461   6.057  11.897 -0.2299  0.1471 -0.8595
   59BDD    C1726386   0.796   6.242  12.371 -0.4717 -0.5962 -0.3602
   59BDD    C1826387   0.748   6.376  12.348  0.3615 -1.5504  0.3532
   59BDD    C1926388   1.075   6.236  11.773 -0.8804 -1.2607  0.0158
   59BDD    C2026389   0.957   6.202  11.681 -0.2839  0.6842  0.6231
   59BDD    C2126390   0.946   6.322  11.596 -0.7932 -0.1129 -0.7160
   59BDD    C2226391   0.816   6.410  11.578 -0.0304  0.8958 -0.3038
   59BDD    C2326392   0.746   6.488  11.697 -0.8976 -0.0658 -1.5244
   59BDD    C2426393   0.789   6.644  11.688  0.5692  0.9318  0.0116
   59BDD    C2526394   0.926   6.069  11.613  0.2173 -0.1159 -1.6611
   59BDD    C2626395   0.982   6.025  11.487  0.0324 -0.5139  0.2445
   60TPM     C126396   1.616   5.993  11.882 -0.3945  0.2258  0.6192
   60TPM     C226397   1.744   6.023  11.917 -0.3830  0.1872  0.6105
   60TPM     C326398   1.830   6.053  11.806 -0.4285  0.3453  0.6175
   60TPM     C426399   1.767   6.046  11.685 -0.4745  0.5047  0.6316
   60TPM     S126400   1.594   6.001  11.703 -0.4641  0.4667  0.6371
    1BDTP    C126401   1.342   7.406   1.181  0.2302 -0.0098  0.3383
    1BDTP    C226402   1.420   7.377   1.065  0.2491 -0.1004  0.3731
    1BDTP    C326403   1.405   7.261   0.991  0.2632 -0.1602  0.4628
    1BDTP    C426404   1.307   7.169   1.032  0.2586 -0.1292  0.5210
    1BDTP    C526405   1.229   7.197   1.148  0.2397 -0.0385  0.4863
    1BDTP    C626406   1.245   7.313   1.223  0.2255  0.0211  0.3966
    1BDTP    C726407   1.273   7.042   0.971  0.2708 -0.1787  0.6163
    1BDTP    C826408   1.174   6.975   1.035  0.2622 -0.1302  0.6543
    1BDTP    S126409   1.110   7.062   1.181  0.2373 -0.0153  0.5747
    1BDTP    C926410   1.377   7.532   1.242  0.2179  0.0396  0.2431
    1BDTP   C1026411   1.476   7.600   1.179  0.2266 -0.0086  0.2051
    1BDTP    S226412   1.539   7.512   1.033  0.2515 -0.1239  0.2847
    2FTM     S126413   1.672   7.225   0.891  0.1749  0.1612 -0.1382
    2FTM     C126414   1.686   7.155   0.726  0.2388  1.0308 -0.5150
    2FTM     C226415   1.562   7.142   0.670  0.2466  1.1642 -0.5643
    2FTM     C326416   1.452   7.185   0.751  0.2043  0.6118 -0.3181
    2FTM     C426417   1.492   7.232   0.872  0.1628  0.0364 -0.0722
    2FTM     F126418   1.542   7.090   0.543  0.2924  1.7946 -0.8354
    2FTM     C526419   1.809   7.087   0.699  0.0430  0.0020 -0.0733
    2FTM     C626420   1.900   7.115   0.571 -1.2238 -0.1455 -0.0306
    2FTM     C726421   1.995   7.000   0.539 -0.2552  0.2477  0.1207
    2FTM     C826422   1.939   6.883   0.460 -0.0021 -0.4395  1.1949
    2FTM     C926423   2.025   6.750   0.477  0.5946 -0.0849  0.8005
    2FTM    C1026424   2.116   6.751   0.350  0.0705  1.0554  0.0067
    2FTM    C1126425   1.880   7.246   0.474 -0.2315 -0.0998  0.7635
    2FTM    C1226426   1.822   7.383   0.529  0.2770 -0.4159 -0.1449
    3FTM     S126427   1.072   7.465   1.408  0.1486 -0.1932  0.0439
    3FTM     C126428   1.021   7.368   1.552 -0.6393 -0.3814 -0.3485
    3FTM     C226429   1.075   7.244   1.545 -1.2102 -0.6250 -0.5800
    3FTM     C326430   1.158   7.216   1.431 -1.0731 -0.6785 -0.4691
    3FTM     C426431   1.167   7.323   1.347 -0.3744 -0.4693 -0.1420
    3FTM     F126432   1.054   7.147   1.642 -1.8908 -0.8135 -0.9061
    3FTM     C526433   0.969   7.421   1.682 -0.1118 -0.9736  1.2845
    3FTM     C626434   0.818   7.454   1.706 -0.3228  0.0602 -0.2312
    3FTM     C726435   0.726   7.498   1.586  0.6657 -1.3809 -0.0753
    3FTM     C826436   0.734   7.652   1.541 -0.6858  1.6340  0.1641
    3FTM     C926437   0.646   7.760   1.602  1.3276  0.9669 -0.0905
    3FTM    C1026438   0.639   7.783   1.743  0.5480 -0.3778 -1.6821
    3FTM    C1126439   0.742   7.356   1.775 -0.2750  1.7583 -1.3936
    3FTM    C1226440   0.800   7.311   1.913 -0.1626 -0.2210 -0.1951
    4TPM     C126441   1.545   7.731   1.183  0.2237  0.4801  0.0169
    4TPM     C226442   1.638   7.798   1.108  0.6537  0.3048  0.3857
    4TPM     C326443   1.682   7.922   1.167  0.8941  0.0684  0.7122
    4TPM     C426444   1.622   7.950   1.286  0.6473  0.0634  0.5923
    4TPM     S126445   1.506   7.821   1.334  0.0878  0.3592  0.0536
    5BDD     C126446   1.515   8.276   1.469  0.1599 -0.2110  0.0507
    5BDD     C226447   1.645   8.255   1.507  0.1321 -0.1781  0.1630
    5BDD     C326448   1.706   8.140   1.443  0.1626 -0.2656  0.3457
    5BDD     C426449   1.623   8.075   1.356  0.2130 -0.3638  0.3702
    5BDD     S126450   1.461   8.153   1.349  0.2259 -0.3536  0.1661
    5BDD     C526451   1.717   8.339   1.605  0.0767 -0.0656  0.1064
    5BDD     C626452   1.846   8.099   1.469  0.1405 -0.2489  0.4896
    5BDD     O126453   1.899   8.000   1.414  0.1667 -0.3242  0.6472
    5BDD     O226454   1.664   8.438   1.660  0.0505  0.0098 -0.0512
    5BDD     C726455   1.918   8.184   1.567  0.0850 -0.1359  0.4329
    5BDD     C826456   1.856   8.298   1.631  0.0546 -0.0486  0.2502
    5BDD     C926457   1.940   8.363   1.718  0.0042  0.0496  0.2258
    5BDD     S226458   2.101   8.285   1.725 -0.0087  0.0393  0.4299
    5BDD    C1026459   2.047   8.163   1.605  0.0573 -0.1032  0.5452
    5BDD    C1126460   2.138   8.045   1.592 -0.7334 -0.8660 -0.2025
    5BDD    C1226461   2.104   7.916   1.644 -0.6861  0.5802 -0.5819
    5BDD    C1326462   2.001   7.897   1.754 -0.3420  0.9874  0.1493
    5BDD    C1426463   2.031   7.913   1.909 -0.9860 -1.0251  0.6391
    5BDD    C1526464   1.938   7.926   2.024  0.5515 -0.3060 -0.8849
    5BDD    C1626465   1.831   7.820   2.061 -0.2771 -0.6003 -0.4395
    5BDD    C1726466   2.209   7.808   1.621 -0.6429  1.2815 -0.8274
    5BDD    C1826467   2.186   7.661   1.674  1.5464  0.4677 -1.1651
    5BDD    C1926468   1.921   8.476   1.811  0.5553 -0.2300  0.9934
    5BDD    C2026469   2.028   8.485   1.924  0.4696 -0.1312  0.6453
    5BDD    C2126470   2.018   8.645   1.953 -0.4421 -0.3931 -0.1345
    5BDD    C2226471   2.127   8.700   2.045  0.3572  0.0541  1.8500
    5BDD    C2326472   2.271   8.669   2.001  1.1398  0.0108 -0.3706
    5BDD    C2426473   2.363   8.708   2.119 -0.4965  0.1878  1.6455
    5BDD    C2526474   2.005   8.407   2.064  1.3475  0.4608  1.4943
    5BDD    C2626475   1.857   8.364   2.102 -0.7302  0.2744 -0.1797
    6TPM     C126476   1.413   8.379   1.492  0.0433  0.4022  0.4698
    6TPM     C226477   1.422   8.515   1.485 -0.3735  0.4525  0.7881
    6TPM     C326478   1.301   8.584   1.520 -0.6306 -0.0062  0.8107
    6TPM     C426479   1.198   8.500   1.554 -0.4097 -0.4062  0.5096
    6TPM     S126480   1.248   8.327   1.544  0.1443 -0.2330  0.1716
    7BDTP    C126481   0.699   8.717   1.894  0.0147  0.1385 -0.0858
    7BDTP    C226482   0.712   8.815   1.791 -0.3200 -0.0343 -0.2965
    7BDTP    C326483   0.809   8.807   1.693 -0.3859  0.0107 -0.3651
    7BDTP    C426484   0.898   8.698   1.695 -0.1092  0.2365 -0.2194
    7BDTP    C526485   0.885   8.600   1.798  0.2255  0.4101 -0.0087
    7BDTP    C626486   0.788   8.608   1.897  0.2915  0.3650  0.0599
    7BDTP    C726487   1.007   8.669   1.604 -0.1148  0.3243 -0.2539
    7BDTP    C826488   1.075   8.556   1.632  0.1956  0.5517 -0.0816
    7BDTP    S126489   1.011   8.470   1.779  0.5386  0.6869  0.1487
    7BDTP    C926490   0.590   8.746   1.986  0.0203  0.0513 -0.0513
    7BDTP   C1026491   0.522   8.859   1.957 -0.2900 -0.1762 -0.2236
    7BDTP    S226492   0.586   8.945   1.810 -0.6330 -0.3111 -0.4539
    8FTM     S126493   0.691   9.028   1.544  0.0065 -0.3740  0.1362
    8FTM     C126494   0.814   9.138   1.471 -0.4690  0.0138 -0.0884
    8FTM     C226495   0.937   9.081   1.476 -0.3194  0.2747 -0.5770
    8FTM     C326496   0.943   8.951   1.536  0.1623  0.1905 -0.8010
    8FTM     C426497   0.821   8.907   1.578  0.3891 -0.1452 -0.4733
    8FTM     F126498   1.051   9.143   1.428 -0.6099  0.6044 -0.8503
    8FTM     C526499   0.778   9.282   1.485  0.6568 -0.5513 -0.0509
    8FTM     C626500   0.766   9.351   1.620  0.4529  0.1465 -1.4068
    8FTM     C726501   0.688   9.488   1.597 -0.0214 -0.3567 -0.2039
    8FTM     C826502   0.644   9.589   1.707 -1.2598 -0.4574 -0.4524
    8FTM     C926503   0.537   9.547   1.807  0.2953  1.8739  0.1488
    8FTM    C1026504   0.544   9.637   1.923  1.8768 -0.9911 -0.0185
    8FTM    C1126505   0.903   9.366   1.703  1.4673 -0.6898 -0.2783
    8FTM    C1226506   1.003   9.485   1.676  0.3383 -0.3311  0.5105
    9FTM     S126507   0.600   8.388   1.939 -0.9690 -0.1265  0.0874
    9FTM     C126508   0.641   8.285   2.081 -0.2307 -0.1812 -0.1555
    9FTM     C226509   0.756   8.330   2.139 -0.0846 -0.0248 -0.5586
    9FTM     C326510   0.818   8.444   2.077 -0.5272  0.1438 -0.6998
    9FTM     C426511   0.748   8.488   1.969 -1.0285  0.1149 -0.3948
    9FTM     F126512   0.812   8.270   2.251  0.4585 -0.0246 -0.8237
    9FTM     C526513   0.574   8.165   2.131  0.6043 -0.7879  1.6161
    9FTM     C626514   0.437   8.111   2.091  0.9526  0.9067  0.7472
    9FTM     C726515   0.321   8.175   2.021 -0.4317 -1.3326 -0.3949
    9FTM     C826516   0.247   8.294   2.074 -0.3638 -0.0718 -0.5366
    9FTM     C926517   0.126   8.292   1.992 -0.5165 -1.5105  0.7617
    9FTM    C1026518   0.043   8.403   2.054 -0.6830 -0.3794  0.3604
    9FTM    C1126519   0.422   7.971   2.141  0.2125  0.7376  0.5148
    9FTM    C1226520   0.289   7.888   2.139  0.5488 -0.6557  1.4613
   10TPM     C126521   0.402   8.901   2.017 -0.1664  0.1373  0.5249
   10TPM     C226522   0.374   9.025   2.067 -0.1246 -0.0832  1.1088
   10TPM     C326523   0.236   9.042   2.105 -0.1290 -0.1969  1.1464
   10TPM     C426524   0.159   8.932   2.083 -0.1742 -0.0632  0.5911
   10TPM     S126525   0.255   8.796   2.013 -0.2150  0.2188 -0.0272
   11BDD     C126526  -0.178   8.803   2.241  0.1967  0.2196  0.3022
   11BDD     C226527  -0.207   8.932   2.204  0.0422  0.1719  0.2549
   11BDD     C326528  -0.095   9.000   2.142 -0.0756  0.2446  0.1228
   11BDD     C426529   0.017   8.924   2.132 -0.0096  0.3474  0.0713
   11BDD     S126530  -0.009   8.760   2.200  0.2048  0.3595  0.1845
   11BDD     C526531  -0.338   8.996   2.225 -0.0019  0.0572  0.3294
   11BDD     C626532  -0.104   9.140   2.094 -0.2491  0.2098  0.0525
   11BDD     O126533  -0.008   9.199   2.041 -0.3507  0.2725 -0.0614
   11BDD     O226534  -0.435   8.936   2.279  0.0997 -0.0057  0.4434
   11BDD     C726535  -0.236   9.204   2.115 -0.2935  0.0951  0.1270
   11BDD     C826536  -0.347   9.135   2.177 -0.1757  0.0222  0.2592
   11BDD     C926537  -0.460   9.212   2.187 -0.2415 -0.0803  0.3107
   11BDD     S226538  -0.434   9.376   2.119 -0.4558 -0.0927  0.1975
   11BDD    C1026539  -0.265   9.333   2.078 -0.4475  0.0470  0.0798
   11BDD    C1126540  -0.177   9.460   2.057  1.4806  0.3790  0.3706
   11BDD    C1226541  -0.177   9.579   2.162 -2.3145 -0.4947  1.3465
   11BDD    C1326542  -0.107   9.536   2.300 -0.4609  0.7677 -0.8525
   11BDD    C1426543   0.030   9.477   2.327 -1.1909 -0.0827  0.7199
   11BDD    C1526544   0.150   9.569   2.276  0.4178  0.5257 -0.4850
   11BDD    C1626545   0.222   9.517   2.147 -0.5493  0.1603 -0.5622
   11BDD    C1726546  -0.118   9.723   2.126 -0.8905  0.2014 -1.1134
   11BDD    C1826547  -0.207   9.795   2.005 -1.6033 -0.4643  0.9696
   11BDD    C1926548  -0.581   9.201   2.278 -0.3111  0.2073 -0.0791
   11BDD    C2026549  -0.599   9.327   2.374  0.5894  0.9863 -0.1663
   11BDD    C2126550  -0.738   9.339   2.431  0.6634 -1.8474 -1.4062
   11BDD    C2226551  -0.786   9.484   2.438  0.9050 -2.0430  0.0944
   11BDD    C2326552  -0.908   9.509   2.355  0.1010 -0.6073 -0.2880
   11BDD    C2426553  -0.924   9.662   2.333 -0.5817  0.3251  0.0446
   11BDD    C2526554  -0.489   9.371   2.466 -1.4866  0.4207 -0.2871
   11BDD    C2626555  -0.417   9.292   2.564 -0.2670 -0.1313 -0.2828
   12TPM     C126556  -0.255   8.697   2.307 -0.1835 -0.0699  1.1209
   12TPM     C226557  -0.239   8.671   2.440 -1.1942  0.4499  1.3627
   12TPM     C326558  -0.325   8.567   2.489 -1.7066  0.7734  1.1709
   12TPM     C426559  -0.407   8.513   2.394 -1.0867  0.4999  0.7828
   12TPM     S126560  -0.381   8.591   2.233  0.2025 -0.1927  0.6285
   13BDTP    C126561  -0.840   8.059   2.450  0.5524 -0.2193  0.0285
   13BDTP    C226562  -0.849   8.092   2.312  0.4241 -0.1209  0.0593
   13BDTP    C326563  -0.770   8.190   2.253  0.2589  0.0312  0.0879
   13BDTP    C426564  -0.678   8.259   2.335  0.2177  0.0889  0.0858
   13BDTP    C526565  -0.669   8.225   2.473  0.3455 -0.0095  0.0549
   13BDTP    C626566  -0.749   8.128   2.532  0.5111 -0.1614  0.0264
   13BDTP    C726567  -0.586   8.364   2.297  0.0551  0.2419  0.1120
   13BDTP    C826568  -0.509   8.410   2.398  0.0553  0.2630  0.1023
   13BDTP    S126569  -0.544   8.328   2.557  0.2608  0.0923  0.0587
   13BDTP    C926570  -0.933   7.954   2.488  0.7145 -0.3724  0.0023
   13BDTP   C1026571  -1.009   7.907   2.387  0.7148 -0.3937  0.0119
   13BDTP    S226572  -0.975   7.990   2.228  0.5089 -0.2225  0.0555
   14FTM     S126573  -0.808   8.335   2.005  0.4440  0.2435  0.5741
   14FTM     C126574  -0.710   8.272   1.868 -0.0293 -0.3277  0.4940
   14FTM     C226575  -0.640   8.162   1.907 -0.5319 -0.6609  0.4728
   14FTM     C326576  -0.658   8.121   2.043 -0.5779 -0.4964  0.5164
   14FTM     C426577  -0.744   8.203   2.110 -0.0955 -0.0214  0.5729
   14FTM     F126578  -0.556   8.092   1.822 -0.9794 -1.1346  0.4125
   14FTM     C526579  -0.766   8.320   1.728 -0.3383  0.7775 -0.7049
   14FTM     C626580  -0.734   8.452   1.653  1.2799 -0.4632  0.5513
   14FTM     C726581  -0.796   8.585   1.667  0.1534 -1.3391  0.3241
   14FTM     C826582  -0.947   8.603   1.659 -0.8761  0.2798  0.6739
   14FTM     C926583  -1.037   8.596   1.530 -0.3766 -0.0356 -0.1981
   14FTM    C1026584  -1.026   8.513   1.406  0.0723  0.6729 -0.3570
   14FTM    C1126585  -0.611   8.457   1.601 -1.3140 -0.6455 -0.8034
   14FTM    C1226586  -0.479   8.466   1.687  0.8788 -0.8723 -0.0699
   15FTM     S126587  -0.826   8.148   2.819 -0.0923  0.3383  0.0491
   15FTM     C126588  -0.734   8.035   2.924 -0.1496  0.6425  0.4338
   15FTM     C226589  -0.646   7.963   2.848 -0.0525  0.4758  0.7026
   15FTM     C326590  -0.646   7.991   2.708  0.0696  0.1100  0.6276
   15FTM     C426591  -0.736   8.088   2.674  0.0660 -0.0073  0.2905
   15FTM     F126592  -0.562   7.867   2.902 -0.0687  0.6444  1.0326
   15FTM     C526593  -0.732   8.067   3.067 -0.3611  0.9028 -0.5275
   15FTM     C626594  -0.817   7.961   3.151 -0.0443 -0.4968 -1.1633
   15FTM     C726595  -0.846   8.014   3.290 -0.5153  0.5213 -1.0442
   15FTM     C826596  -0.971   8.011   3.374 -0.2695  0.2059 -0.0485
   15FTM     C926597  -0.975   8.063   3.518 -0.2406  1.7246  0.3623
   15FTM    C1026598  -1.107   8.111   3.545 -1.4377  0.1772 -0.5561
   15FTM    C1126599  -0.793   7.817   3.129 -0.7945 -0.6054 -0.9792
   15FTM    C1226600  -0.674   7.749   3.203  0.6081  0.8901 -0.3913
   16TPM     C126601  -1.121   7.816   2.406 -0.2449 -0.4431 -0.2345
   16TPM     C226602  -1.216   7.760   2.324 -0.4439 -0.4025 -0.0339
   16TPM     C326603  -1.306   7.671   2.392 -0.3729 -0.3200  0.1696
   16TPM     C426604  -1.280   7.658   2.526 -0.1203 -0.2973  0.1242
   16TPM     S126605  -1.139   7.759   2.576  0.0494 -0.3793 -0.1815
   17BDD     C126606  -1.485   7.436   2.772 -0.2929 -0.2237 -0.0383
   17BDD     C226607  -1.555   7.553   2.762 -0.1435 -0.1320 -0.0167
   17BDD     C326608  -1.493   7.650   2.674  0.1469 -0.0741  0.2478
   17BDD     C426609  -1.377   7.606   2.618  0.2148 -0.1228  0.4242
   17BDD     S126610  -1.336   7.440   2.671 -0.0801 -0.2441  0.2711
   17BDD     C526611  -1.682   7.579   2.834 -0.2623 -0.0939 -0.2385
   17BDD     C626612  -1.552   7.784   2.649  0.3467  0.0271  0.3161
   17BDD     O126613  -1.498   7.868   2.574  0.5970  0.0769  0.5442
   17BDD     O226614  -1.735   7.495   2.910 -0.5126 -0.1439 -0.4666
   17BDD     C726615  -1.678   7.810   2.721  0.2277  0.0651  0.0944
   17BDD     C826616  -1.740   7.713   2.809 -0.0627  0.0075 -0.1703
   17BDD     C926617  -1.857   7.757   2.866 -0.1307  0.0559 -0.3467
   17BDD     S226618  -1.897   7.923   2.813  0.1643  0.1772 -0.1937
   17BDD    C1026619  -1.748   7.927   2.712  0.3769  0.1569  0.1158
   17BDD    C1126620  -1.751   8.055   2.633  0.8293 -0.1152  0.3634
   17BDD    C1226621  -1.630   8.124   2.574  0.8705  0.3163 -0.3217
   17BDD    C1326622  -1.648   8.200   2.443  0.4076 -0.7024  0.1585
   17BDD    C1426623  -1.763   8.210   2.345 -0.0750 -0.9671 -1.3624
   17BDD    C1526624  -1.819   8.097   2.267 -0.3464  0.3618 -0.1566
   17BDD    C1626625  -1.955   8.149   2.207 -0.3379 -0.2289  0.3472
   17BDD    C1726626  -1.504   8.154   2.663  0.9679  0.5696 -0.1456
   17BDD    C1826627  -1.533   8.250   2.778 -0.9704 -0.4354 -0.0466
   17BDD    C1926628  -1.948   7.727   2.989 -1.6132 -0.0152  1.0213
   17BDD    C2026629  -2.090   7.671   2.966 -1.2665 -0.6712 -0.5919
   17BDD    C2126630  -2.127   7.577   2.853  0.4748  0.4884 -0.4150
   17BDD    C2226631  -2.023   7.448   2.839  0.9105 -1.5356 -1.2053
   17BDD    C2326632  -2.075   7.328   2.919  0.0032  0.1400  0.0024
   17BDD    C2426633  -1.968   7.229   2.962  0.6218 -1.0724 -0.5554
   17BDD    C2526634  -2.196   7.739   3.064  0.0009 -0.4805  0.2353
   17BDD    C2626635  -2.225   7.888   3.046 -0.2010 -0.4679  0.4551
   18TPM     C126636  -1.510   7.310   2.850 -0.6309  0.1047  0.2024
   18TPM     C226637  -1.417   7.276   2.944 -1.1761  0.6748  0.9676
   18TPM     C326638  -1.455   7.164   3.026 -1.4148  0.8206  1.0575
   18TPM     C426639  -1.577   7.112   2.994 -1.0512  0.3617  0.3609
   18TPM     S126640  -1.654   7.202   2.858 -0.3740 -0.2954 -0.4691
   19BDTP    C126641  -1.832   6.591   3.225  0.1500  0.0843  0.2065
   19BDTP    C226642  -1.947   6.672   3.202  0.1287 -0.0031 -0.0025
   19BDTP    C326643  -1.939   6.800   3.149  0.1047 -0.0945 -0.2286
   19BDTP    C426644  -1.811   6.851   3.117  0.1018 -0.1003 -0.2501
   19BDTP    C526645  -1.697   6.769   3.140  0.1228 -0.0128 -0.0412
   19BDTP    C626646  -1.705   6.641   3.193  0.1468  0.0785  0.1849
   19BDTP    C726647  -1.778   6.980   3.061  0.0788 -0.1865 -0.4651
   19BDTP    C826648  -1.646   7.000   3.041  0.0815 -0.1684 -0.4283
   19BDTP    S126649  -1.544   6.857   3.090  0.1137 -0.0393 -0.1159
   19BDTP    C926650  -1.865   6.462   3.281  0.1729  0.1706  0.4215
   19BDTP   C1026651  -1.998   6.442   3.301  0.1702  0.1523  0.3846
   19BDTP    S226652  -2.099   6.585   3.252  0.1380  0.0233  0.0723
   20FTM     S126653  -2.175   6.885   3.275 -0.6913 -0.6222  0.0802
   20FTM     C126654  -2.300   6.953   3.165  0.3919  0.7664 -0.3516
   20FTM     C226655  -2.252   6.960   3.038  1.1601  0.9964 -0.0560
   20FTM     C326656  -2.117   6.914   3.019  0.9577  0.1281  0.5106
   20FTM     C426657  -2.061   6.870   3.135  0.0038 -0.7971  0.6534
   20FTM     F126658  -2.326   7.008   2.931  2.0919  2.0071 -0.2810
   20FTM     C526659  -2.422   6.998   3.232  0.0491 -1.3828 -0.5291
   20FTM     C626660  -2.559   6.959   3.181  0.2081  0.7250 -0.4072
   20FTM     C726661  -2.585   6.809   3.156 -0.9117 -0.6451 -0.9125
   20FTM     C826662  -2.527   6.703   3.253  0.3458  0.4750 -0.5960
   20FTM     C926663  -2.594   6.576   3.200  0.5614  0.9207  1.2686
   20FTM    C1026664  -2.683   6.501   3.288  0.1517  0.3230 -0.0214
   20FTM    C1126665  -2.631   7.045   3.059  0.3792 -0.2625  0.3244
   20FTM    C1226666  -2.792   7.033   3.046 -0.3160 -0.8445 -0.2658
   21FTM     S126667  -1.484   6.596   3.379  0.0248  0.0935  0.0946
   21FTM     C126668  -1.359   6.478   3.324 -0.0150  0.1384 -0.0955
   21FTM     C226669  -1.394   6.425   3.205 -0.1271  0.2015 -0.0904
   21FTM     C326670  -1.518   6.470   3.149 -0.1876  0.2182  0.0577
   21FTM     C426671  -1.580   6.562   3.229 -0.1192  0.1662  0.1700
   21FTM     F126672  -1.317   6.331   3.138 -0.1819  0.2477 -0.2198
   21FTM     C526673  -1.217   6.453   3.378  0.1785 -0.0679 -1.1655
   21FTM     C626674  -1.195   6.344   3.474  0.1773  0.7091  1.1502
   21FTM     C726675  -1.261   6.346   3.614 -0.0388 -0.9352 -0.0590
   21FTM     C826676  -1.420   6.319   3.635 -2.1830 -0.9697 -1.3948
   21FTM     C926677  -1.471   6.209   3.555  0.0259  0.3919  1.4093
   21FTM    C1026678  -1.624   6.195   3.569  0.2671 -0.7152  0.2598
   21FTM    C1126679  -1.073   6.272   3.428  0.0689  0.1976 -0.7470
   21FTM    C1226680  -1.041   6.130   3.474  0.3837 -0.5755  0.2517
   22TPM     C126681  -2.072   6.347   3.374  0.5143  0.8275  0.1941
   22TPM     C226682  -2.125   6.239   3.310  1.5109  0.3359  0.1588
   22TPM     C326683  -2.199   6.151   3.397  1.6670  0.0314 -0.0117
   22TPM     C426684  -2.203   6.192   3.527  0.7899  0.2907 -0.1067
   22TPM     S126685  -2.112   6.346   3.550 -0.3107  0.9447  0.0129
   23BDD     C126686  -2.393   5.934   3.747 -0.2496  0.2547 -0.2145
   23BDD     C226687  -2.459   6.051   3.771 -0.1326  0.2995 -0.1052
   23BDD     C326688  -2.402   6.165   3.702  0.0989  0.3431  0.1569
   23BDD     C426689  -2.292   6.134   3.627  0.1551  0.3309  0.2437
   23BDD     S126690  -2.253   5.959   3.637 -0.0780  0.2642  0.0032
   23BDD     C526691  -2.578   6.062   3.858 -0.2294  0.3036 -0.2376
   23BDD     C626692  -2.458   6.302   3.714  0.2561  0.3949  0.3119
   23BDD     O126693  -2.408   6.400   3.654  0.4559  0.4326  0.5380
   23BDD     O226694  -2.628   5.964   3.917 -0.4289  0.2660 -0.4637
   23BDD     C726695  -2.577   6.313   3.800  0.1590  0.3992  0.1795
   23BDD     C826696  -2.634   6.199   3.869 -0.0725  0.3556 -0.0827
   23BDD     C926697  -2.744   6.230   3.945 -0.1287  0.3678 -0.1695
   23BDD     S226698  -2.783   6.405   3.935  0.1043  0.4344  0.0710
   23BDD    C1026699  -2.643   6.430   3.824  0.2761  0.4439  0.2888
   23BDD    C1126700  -2.612   6.572   3.816 -1.3639 -0.1808  0.8996
   23BDD    C1226701  -2.469   6.628   3.841  1.4826 -0.4758 -0.4719
   23BDD    C1326702  -2.478   6.774   3.797 -0.7695  0.4355  0.2040
   23BDD    C1426703  -2.352   6.855   3.787 -0.6320 -0.2896 -0.7943
   23BDD    C1526704  -2.289   6.818   3.653  0.0203 -0.0013 -0.3609
   23BDD    C1626705  -2.135   6.807   3.647 -0.1393  0.1935  0.7851
   23BDD    C1726706  -2.407   6.602   3.972  0.7270 -0.1627 -0.6510
   23BDD    C1826707  -2.276   6.649   4.021 -1.9302  1.4180  0.2420
   23BDD    C1926708  -2.827   6.156   4.051 -0.0671 -0.2067 -0.5347
   23BDD    C2026709  -2.955   6.115   3.986 -0.3567  1.1059 -1.0322
   23BDD    C2126710  -2.972   6.072   3.846  0.1530 -1.0028  1.6008
   23BDD    C2226711  -2.904   5.959   3.771  0.0575  0.0547 -0.8672
   23BDD    C2326712  -2.923   5.815   3.825  0.3489  0.7746 -0.2358
   23BDD    C2426713  -2.829   5.729   3.761 -0.7456  0.7274 -0.2429
   23BDD    C2526714  -3.073   6.063   4.089 -0.3962 -0.1908  0.4761
   23BDD    C2626715  -3.229   6.100   4.066  0.9841  0.3702  0.0077
   24TPM     C126716  -2.401   5.787   3.782 -0.7088  0.0697  0.0807
   24TPM     C226717  -2.285   5.717   3.765 -0.0653  0.9028  0.8302
   24TPM     C326718  -2.288   5.586   3.825  0.6590  1.0271  1.1573
   24TPM     C426719  -2.405   5.556   3.887  0.5675  0.2888  0.6573
   24TPM     S126720  -2.523   5.693   3.875 -0.4483 -0.6279 -0.2728
   25BDTP    C126721  -2.557   4.983   4.089 -0.2165  0.0526  0.0231
   25BDTP    C226722  -2.659   5.015   3.995 -0.1633  0.0571 -0.0329
   25BDTP    C326723  -2.665   5.137   3.929 -0.0265 -0.0043 -0.1605
   25BDTP    C426724  -2.566   5.233   3.958  0.0620 -0.0734 -0.2365
   25BDTP    C526725  -2.464   5.201   4.052  0.0088 -0.0781 -0.1805
   25BDTP    C626726  -2.458   5.079   4.118 -0.1277 -0.0168 -0.0528
   25BDTP    C726727  -2.551   5.366   3.902  0.2070 -0.1447 -0.3709
   25BDTP    C826728  -2.444   5.434   3.950  0.2646 -0.2017 -0.4176
   25BDTP    S126729  -2.347   5.340   4.071  0.1435 -0.1734 -0.2984
   25BDTP    C926730  -2.572   4.850   4.145 -0.3612  0.1236  0.1575
   25BDTP   C1026731  -2.679   4.782   4.097 -0.4191  0.1807  0.2043
   25BDTP    S226732  -2.776   4.876   3.976 -0.2977  0.1522  0.0850
   26FTM     S126733  -2.958   5.153   3.871 -0.8087  0.0014  0.2024
   26FTM     C126734  -2.993   5.208   3.704 -0.2391  0.6068  0.2743
   26FTM     C226735  -2.877   5.238   3.639  0.0114  0.4139  0.6315
   26FTM     C326736  -2.757   5.220   3.715 -0.2189 -0.2016  0.8655
   26FTM     C426737  -2.781   5.175   3.841 -0.6599 -0.4892  0.6813
   26FTM     F126738  -2.873   5.283   3.508  0.4640  0.7830  0.7680
   26FTM     C526739  -3.135   5.264   3.673  0.5098  0.8956 -0.0886
   26FTM     C626740  -3.234   5.204   3.568 -1.2178 -0.1140 -0.4986
   26FTM     C726741  -3.344   5.310   3.563  0.0686  0.4424  0.6810
   26FTM     C826742  -3.310   5.412   3.451  0.0532 -1.2596 -1.6783
   26FTM     C926743  -3.428   5.447   3.362  0.8430  0.0794  0.1112
   26FTM    C1026744  -3.449   5.345   3.260 -0.9209 -0.5847 -0.2980
   26FTM    C1126745  -3.311   5.078   3.582 -1.1976  1.0771  0.0472
   26FTM    C1226746  -3.368   5.030   3.712 -1.2777  0.1502 -0.1766
   27FTM     S126747  -2.267   4.890   4.221 -0.1223  0.4263  0.1517
   27FTM     C126748  -2.168   4.935   4.364  0.6202  0.8122 -0.4689
   27FTM     C226749  -2.198   5.062   4.404  0.7191  0.8652 -0.5618
   27FTM     C326750  -2.298   5.130   4.327  0.2353  0.6155 -0.1659
   27FTM     C426751  -2.346   5.053   4.225 -0.2497  0.3625  0.2436
   27FTM     F126752  -2.137   5.123   4.512  1.2534  1.1432 -1.0111
   27FTM     C526753  -2.090   4.825   4.442  0.3761 -1.2178  0.5086
   27FTM     C626754  -2.087   4.791   4.580 -0.0353  0.5087  0.0905
   27FTM     C726755  -1.952   4.761   4.651 -0.4453  0.7545  1.3043
   27FTM     C826756  -1.899   4.862   4.730  0.5067 -0.3624  0.3652
   27FTM     C926757  -1.808   4.934   4.623  0.4788 -0.2220 -1.3094
   27FTM    C1026758  -1.778   5.067   4.681 -0.5295 -0.5900  0.2431
   27FTM    C1126759  -2.218   4.761   4.653  0.4511  0.5870 -1.0422
   27FTM    C1226760  -2.312   4.641   4.631  0.4782 -0.8152 -0.3117
   28TPM     C126761  -2.724   4.644   4.098 -0.5615  0.2685  0.1898
   28TPM     C226762  -2.660   4.537   4.042 -1.1384  0.5952 -1.1964
   28TPM     C326763  -2.730   4.412   4.058 -1.0443  0.5209 -1.3583
   28TPM     C426764  -2.848   4.424   4.126 -0.3952  0.1376 -0.0958
   28TPM     S126765  -2.880   4.594   4.175  0.1511 -0.1617  1.4076
   29BDD     C126766  -3.037   4.158   4.333 -0.1513 -0.0692  0.1068
   29BDD     C226767  -3.068   4.133   4.203 -0.1695 -0.1372  0.1241
   29BDD     C326768  -2.998   4.220   4.109 -0.1919 -0.1779  0.0699
   29BDD     C426769  -2.915   4.310   4.170 -0.1900 -0.1402  0.0117
   29BDD     S126770  -2.919   4.292   4.349 -0.1605 -0.0514  0.0210
   29BDD     C526771  -3.162   4.028   4.159 -0.1671 -0.1674  0.1913
   29BDD     C626772  -3.016   4.210   3.963 -0.2139 -0.2528  0.0772
   29BDD     O126773  -2.957   4.285   3.882 -0.2329 -0.2879  0.0305
   29BDD     O226774  -3.222   3.953   4.239 -0.1478 -0.1323  0.2383
   29BDD     C726775  -3.111   4.105   3.919 -0.2117 -0.2828  0.1445
   29BDD     C826776  -3.181   4.019   4.012 -0.1895 -0.2421  0.1990
   29BDD     C926777  -3.263   3.928   3.952 -0.1915 -0.2797  0.2568
   29BDD     S226778  -3.260   3.946   3.773 -0.2211 -0.3688  0.2475
   29BDD    C1026779  -3.142   4.080   3.788 -0.2303 -0.3508  0.1618
   29BDD    C1126780  -3.126   4.160   3.661  0.1946 -0.4122  0.1887
   29BDD    C1226781  -3.092   4.085   3.536 -1.4508 -0.7744  0.2229
   29BDD    C1326782  -3.152   4.145   3.415  0.4136  1.5069 -0.5685
   29BDD    C1426783  -3.302   4.169   3.386  0.5917 -0.1639 -0.6802
   29BDD    C1526784  -3.406   4.124   3.485  0.9760  0.5208  1.2647
   29BDD    C1626785  -3.551   4.139   3.418 -0.7125 -0.8730 -0.7840
   29BDD    C1726786  -2.945   4.031   3.505 -0.7924 -0.0230 -0.3223
   29BDD    C1826787  -2.827   4.120   3.482 -0.3342 -0.5401 -0.9327
   29BDD    C1926788  -3.342   3.803   3.981 -0.3130  0.4281 -1.3452
   29BDD    C2026789  -3.475   3.822   4.052 -0.8202  0.5122  0.0593
   29BDD    C2126790  -3.505   3.736   4.163  0.9810 -1.1698 -0.1221
   29BDD    C2226791  -3.577   3.818   4.284 -0.5311  1.1718  0.2640
   29BDD    C2326792  -3.719   3.775   4.298  0.5353  1.4746 -0.1837
   29BDD    C2426793  -3.735   3.628   4.327 -0.8549  0.3187 -1.2374
   29BDD    C2526794  -3.588   3.904   3.978 -0.7640  0.3683 -0.2242
   29BDD    C2626795  -3.643   3.883   3.835 -0.5944 -1.3331 -1.0029
   30TPM     C126796  -3.087   4.099   4.460 -0.0480  0.3676  0.5388
   30TPM     C226797  -3.195   4.160   4.516  0.4022  0.6975  1.0737
   30TPM     C326798  -3.245   4.094   4.633  0.4659  0.5530  1.0194
   30TPM     C426799  -3.175   3.982   4.667  0.0643  0.1128  0.4430
   30TPM     S126800  -3.039   3.952   4.552 -0.4299 -0.1555 -0.0798
   31BDTP    C126801  -3.427   3.487   4.961 -0.3043 -0.1010 -0.2273
   31BDTP    C226802  -3.399   3.438   4.830 -0.0401 -0.0532 -0.1901
   31BDTP    C326803  -3.342   3.516   4.731  0.1793 -0.0226 -0.0393
   31BDTP    C426804  -3.310   3.650   4.763  0.1359 -0.0401  0.0803
   31BDTP    C526805  -3.338   3.699   4.893 -0.1285 -0.0881  0.0432
   31BDTP    C626806  -3.396   3.620   4.992 -0.3478 -0.1187 -0.1076
   31BDTP    C726807  -3.250   3.750   4.677  0.3310 -0.0153  0.2450
   31BDTP    C826808  -3.231   3.870   4.736  0.2277 -0.0418  0.3320
   31BDTP    S126809  -3.288   3.874   4.909 -0.1321 -0.1022  0.2178
   31BDTP    C926810  -3.488   3.387   5.047 -0.4996 -0.1259 -0.3918
   31BDTP   C1026811  -3.506   3.267   4.987 -0.3960 -0.0994 -0.4789
   31BDTP    S226812  -3.450   3.263   4.815 -0.0364 -0.0391 -0.3647
   32FTM     S126813  -3.436   3.403   4.480 -0.1396  0.3598  0.4770
   32FTM     C126814  -3.304   3.374   4.361 -0.2279  0.0686  0.4498
   32FTM     C226815  -3.184   3.408   4.415 -0.2065  0.3777  0.2179
   32FTM     C326816  -3.187   3.457   4.550 -0.1223  0.8483  0.0514
   32FTM     C426817  -3.314   3.461   4.600 -0.0777  0.9015  0.1592
   32FTM     F126818  -3.065   3.395   4.346 -0.2618  0.2527  0.1427
   32FTM     C526819  -3.335   3.326   4.223  0.2501  0.7893  0.1957
   32FTM     C626820  -3.371   3.184   4.166  0.3907 -0.0784 -0.7060
   32FTM     C726821  -3.375   3.161   4.007 -0.4593 -0.6671 -0.4678
   32FTM     C826822  -3.269   3.234   3.928 -0.5459 -0.4109 -0.6387
   32FTM     C926823  -3.134   3.203   3.960 -0.3194 -1.0021  0.5023
   32FTM    C1026824  -3.062   3.095   3.880 -0.1336 -0.1677  0.5502
   32FTM    C1126825  -3.324   3.064   4.235  0.0138  1.0319 -1.2579
   32FTM    C1226826  -3.379   3.051   4.379 -0.0737 -1.2575  1.1829
   33FTM     S126827  -3.289   3.704   5.250 -0.1529  0.0329 -0.4036
   33FTM     C126828  -3.412   3.763   5.368 -0.0984 -0.1402 -0.2587
   33FTM     C226829  -3.535   3.762   5.311 -0.1063  0.0672 -0.2465
   33FTM     C326830  -3.541   3.716   5.175 -0.1541  0.3660 -0.3467
   33FTM     C426831  -3.419   3.681   5.127 -0.1837  0.3882 -0.4385
   33FTM     F126832  -3.650   3.803   5.377 -0.0708 -0.0013 -0.1439
   33FTM     C526833  -3.381   3.778   5.517 -0.3012 -1.1690 -1.4111
   33FTM     C626834  -3.235   3.800   5.574 -0.0899  1.2352 -0.9093
   33FTM     C726835  -3.116   3.890   5.511 -0.8624 -0.4853  0.2729
   33FTM     C826836  -2.964   3.870   5.500 -1.1048  0.9878 -0.9503
   33FTM     C926837  -2.901   3.844   5.635 -1.1385 -0.0090  0.4710
   33FTM    C1026838  -2.743   3.845   5.649  0.5204  0.2680  1.3040
   33FTM    C1126839  -3.225   3.788   5.736 -0.4058  0.0954 -0.2964
   33FTM    C1226840  -3.230   3.936   5.793  1.5106  0.4318  0.1146
   34TPM     C126841  -3.570   3.152   5.047  0.0496 -0.1250 -0.5758
   34TPM     C226842  -3.543   3.104   5.172  0.0194  0.1096 -0.4783
   34TPM     C326843  -3.629   2.996   5.212 -0.2824  0.4766 -0.1161
   34TPM     C426844  -3.721   2.961   5.118 -0.4821  0.5218  0.0626
   34TPM     S126845  -3.707   3.063   4.970 -0.3032  0.1011 -0.2151
   35BDD     C126846  -3.756   2.565   5.069 -0.1833 -0.0905  0.0342
   35BDD     C226847  -3.830   2.599   5.179 -0.2370 -0.1768  0.0248
   35BDD     C326848  -3.824   2.741   5.210 -0.4293 -0.1644  0.0075
   35BDD     C426849  -3.745   2.813   5.125 -0.5194 -0.0688  0.0041
   35BDD     S126850  -3.673   2.708   4.998 -0.3699  0.0122  0.0221
   35BDD     C526851  -3.909   2.503   5.258 -0.1136 -0.2737  0.0314
   35BDD     C626852  -3.897   2.800   5.325 -0.5168 -0.2478 -0.0049
   35BDD     O126853  -3.892   2.922   5.352 -0.6826 -0.2372 -0.0197
   35BDD     O226854  -3.914   2.381   5.231  0.0522 -0.2844  0.0461
   35BDD     C726855  -3.976   2.704   5.404 -0.3932 -0.3448  0.0015
   35BDD     C826856  -3.982   2.562   5.372 -0.2009 -0.3572  0.0188
   35BDD     C926857  -4.061   2.491   5.458 -0.1107 -0.4526  0.0223
   35BDD     S226858  -4.133   2.595   5.584 -0.2603 -0.5337  0.0042
   35BDD    C1026859  -4.051   2.738   5.513 -0.4469 -0.4310 -0.0079
   35BDD    C1126860  -4.086   2.864   5.589  1.2408  0.8141 -0.4179
   35BDD    C1226861  -4.168   2.979   5.513 -0.0427  1.0083  0.6217
   35BDD    C1326862  -4.219   3.100   5.584  0.0537 -1.1576  0.8135
   35BDD    C1426863  -4.164   3.247   5.552  0.2521  0.8136 -0.4360
   35BDD    C1526864  -4.104   3.305   5.673  0.2681 -0.1863  0.1569
   35BDD    C1626865  -4.182   3.375   5.782  0.1469  1.4168 -0.2252
   35BDD    C1726866  -4.280   2.960   5.405 -1.3218 -0.7348 -1.6326
   35BDD    C1826867  -4.260   2.854   5.288 -0.6238 -1.0789 -0.4624
   35BDD    C1926868  -4.110   2.339   5.439  0.4791 -0.9714 -0.5952
   35BDD    C2026869  -4.032   2.244   5.520  0.9381  0.7396 -0.3519
   35BDD    C2126870  -4.076   2.093   5.558  0.5748 -0.3145  0.1290
   35BDD    C2226871  -4.094   2.017   5.436  0.6462 -0.0874  0.4137
   35BDD    C2326872  -4.043   1.871   5.455 -0.3907 -0.6148 -0.0948
   35BDD    C2426873  -4.159   1.778   5.424 -0.8605 -0.2659  0.3306
   35BDD    C2526874  -3.907   2.290   5.600  2.1506  0.9094 -1.0591
   35BDD    C2626875  -3.964   2.289   5.751 -0.1754 -0.3152  1.1481
   36TPM     C126876  -3.745   2.446   4.990 -0.1882  0.4961  0.0953
   36TPM     C226877  -3.713   2.324   5.043 -0.2449  0.6126  0.3988
   36TPM     C326878  -3.682   2.224   4.945  0.0805  0.4536  0.6596
   36TPM     C426879  -3.690   2.269   4.816  0.3852  0.2160  0.5549
   36TPM     S126880  -3.738   2.443   4.810  0.2842  0.1743  0.1156
   37BDTP    C126881  -3.524   1.847   4.382  0.3144  0.1976 -0.0160
   37BDTP    C226882  -3.493   1.969   4.316 -0.0869  0.2061 -0.1938
   37BDTP    C326883  -3.515   2.093   4.374 -0.3704  0.2170 -0.3211
   37BDTP    C426884  -3.570   2.097   4.503 -0.2531  0.2199 -0.2711
   37BDTP    C526885  -3.601   1.974   4.569  0.1479  0.2114 -0.0933
   37BDTP    C626886  -3.579   1.850   4.511  0.4315  0.2005  0.0341
   37BDTP    C726887  -3.602   2.213   4.583 -0.4937  0.2307 -0.3798
   37BDTP    C826888  -3.654   2.185   4.705 -0.2949  0.2308 -0.2933
   37BDTP    S126889  -3.671   2.006   4.735  0.2247  0.2173 -0.0620
   37BDTP    C926890  -3.492   1.730   4.301  0.5547  0.1868  0.0927
   37BDTP   C1026891  -3.440   1.759   4.180  0.3561  0.1867  0.0061
   37BDTP    S226892  -3.423   1.938   4.150 -0.1638  0.2002 -0.2251
   38FTM     S126893  -3.329   2.300   4.296 -0.4172  0.3098 -0.3292
   38FTM     C126894  -3.372   2.407   4.158 -0.3860  0.0571 -0.5377
   38FTM     C226895  -3.502   2.390   4.123 -0.3049 -0.2069 -0.7170
   38FTM     C326896  -3.575   2.294   4.201 -0.2630 -0.2281 -0.7036
   38FTM     C426897  -3.498   2.236   4.297 -0.3136  0.0279 -0.5076
   38FTM     F126898  -3.563   2.459   4.020 -0.2639 -0.4448 -0.9041
   38FTM     C526899  -3.266   2.486   4.085 -0.4455 -0.2786  0.5425
   38FTM     C626900  -3.155   2.540   4.172 -0.3065 -0.3773 -0.4547
   38FTM     C726901  -3.219   2.637   4.284  0.0758  1.0266  0.5820
   38FTM     C826902  -3.168   2.651   4.433 -0.1407  0.1884  0.1516
   38FTM     C926903  -3.184   2.523   4.523 -1.2110 -0.8008 -0.3697
   38FTM    C1026904  -3.052   2.500   4.588 -0.3740  0.6156 -0.6575
   38FTM    C1126905  -3.081   2.615   4.065 -1.2307  0.9834  0.5345
   38FTM    C1226906  -2.958   2.702   4.079 -0.9083  0.3615 -0.3054
   39FTM     S126907  -3.398   1.649   4.619  0.1110 -0.3911  0.6021
   39FTM     C126908  -3.480   1.532   4.729 -0.3833  0.0228  0.6798
   39FTM     C226909  -3.610   1.568   4.747 -0.3934  0.2453  0.1768
   39FTM     C326910  -3.652   1.687   4.677 -0.0261  0.1108 -0.2886
   39FTM     C426911  -3.552   1.742   4.605  0.2750 -0.2258 -0.1371
   39FTM     F126912  -3.698   1.497   4.826 -0.7358  0.5841  0.1079
   39FTM     C526913  -3.403   1.419   4.777  1.7606 -0.4192  1.7910
   39FTM     C626914  -3.291   1.391   4.881  0.7319 -0.8726  0.6327
   39FTM     C726915  -3.167   1.469   4.896  0.4067 -0.8000  0.6625
   39FTM     C826916  -3.190   1.616   4.935  0.2863 -0.5779 -0.0350
   39FTM     C926917  -3.238   1.623   5.083 -1.4123 -0.5664  0.3991
   39FTM    C1026918  -3.222   1.765   5.151 -1.2436 -1.1335 -0.1695
   39FTM    C1126919  -3.284   1.254   4.946  0.1999  0.1426 -1.0543
   39FTM    C1226920  -3.172   1.148   4.928 -0.4406  1.7359 -0.3354
   40TPM     C126921  -3.367   1.681   4.101  0.0625  0.4835  0.0519
   40TPM     C226922  -3.406   1.638   3.977 -0.2887  0.5551  0.1360
   40TPM     C326923  -3.324   1.532   3.924 -0.5996  0.4042 -0.0462
   40TPM     C426924  -3.223   1.494   4.007 -0.4863  0.2175 -0.2692
   40TPM     S126925  -3.223   1.589   4.160  0.0268  0.2179 -0.2666
   41BDD     C126926  -2.879   1.297   4.010 -0.0565  0.1061 -0.0250
   41BDD     C226927  -2.967   1.212   3.948 -0.0463  0.0827 -0.0075
   41BDD     C326928  -3.099   1.269   3.930 -0.0424  0.0772 -0.0528
   41BDD     C426929  -3.111   1.396   3.979 -0.0499  0.0964 -0.1042
   41BDD     S126930  -2.957   1.453   4.051 -0.0618  0.1228 -0.0995
   41BDD     C526931  -2.932   1.076   3.902 -0.0398  0.0646  0.0518
   41BDD     C626932  -3.210   1.195   3.866 -0.0322  0.0530 -0.0432
   41BDD     O126933  -3.324   1.244   3.851 -0.0291  0.0482 -0.0823
   41BDD     O226934  -2.818   1.027   3.917 -0.0432  0.0693  0.0909
   41BDD     C726935  -3.175   1.058   3.820 -0.0253  0.0349  0.0159
   41BDD     C826936  -3.042   1.002   3.838 -0.0288  0.0404  0.0612
   41BDD     C926937  -3.031   0.875   3.789 -0.0212  0.0212  0.1128
   41BDD     S226938  -3.185   0.817   3.717 -0.0095 -0.0052  0.1080
   41BDD    C1026939  -3.262   0.974   3.758 -0.0148  0.0115  0.0335
   41BDD    C1126940  -3.391   1.008   3.686  0.0935  0.2977 -1.2451
   41BDD    C1226941  -3.516   0.949   3.764 -0.2791 -0.6628  0.5731
   41BDD    C1326942  -3.546   0.794   3.737  0.8777 -0.1580 -1.0761
   41BDD    C1426943  -3.638   0.727   3.619  0.0187  0.4998  0.4666
   41BDD    C1526944  -3.625   0.579   3.616  0.2059  0.0264 -1.2569
   41BDD    C1626945  -3.492   0.546   3.555  0.2355 -0.2959  0.3540
   41BDD    C1726946  -3.643   1.027   3.731  0.5303 -0.6290  0.3655
   41BDD    C1826947  -3.746   1.037   3.839 -0.3089 -1.0162  0.0163
   41BDD    C1926948  -2.920   0.770   3.780  1.4662 -0.3578  0.3218
   41BDD    C2026949  -2.948   0.659   3.869  0.1580  0.4837 -0.4359
   41BDD    C2126950  -2.917   0.516   3.805 -0.5325  0.1500 -0.2692
   41BDD    C2226951  -3.028   0.412   3.781 -0.5887 -0.7072  0.7198
   41BDD    C2326952  -2.973   0.276   3.733 -1.1475  0.2076 -0.1310
   41BDD    C2426953  -3.084   0.170   3.751 -1.0352  1.0700 -0.3615
   41BDD    C2526954  -2.939   0.671   4.025  0.1714  1.9000 -0.1320
   41BDD    C2626955  -2.811   0.705   4.099  1.0464  0.4547 -0.4727
   42TPM     C126956  -2.734   1.289   4.026  0.3218  0.0233  0.3332
   42TPM     C226957  -2.649   1.270   3.921  0.4740  0.5552  0.3533
   42TPM     C326958  -2.511   1.300   3.952  0.3214  1.1721  0.4612
   42TPM     C426959  -2.492   1.342   4.080  0.0528  1.1106  0.5236
   42TPM     S126960  -2.647   1.347   4.173 -0.0293  0.2622  0.4502
   43BDTP    C126961  -2.022   1.627   4.381  0.2415  0.3282 -0.0006
   43BDTP    C226962  -1.954   1.513   4.328  0.0749  0.0976  0.2731
   43BDTP    C326963  -2.017   1.418   4.249 -0.0782 -0.0320  0.5484
   43BDTP    C426964  -2.154   1.436   4.220 -0.0663  0.0704  0.5546
   43BDTP    C526965  -2.222   1.549   4.274  0.1001  0.3012  0.2809
   43BDTP    C626966  -2.159   1.644   4.353  0.2533  0.4307  0.0058
   43BDTP    C726967  -2.241   1.351   4.141 -0.2070 -0.0296  0.8122
   43BDTP    C826968  -2.368   1.395   4.132 -0.1540  0.1130  0.7463
   43BDTP    S126969  -2.397   1.549   4.223  0.0806  0.3941  0.3484
   43BDTP    C926970  -1.935   1.712   4.460  0.3817  0.4283 -0.2582
   43BDTP   C1026971  -1.808   1.668   4.469  0.3290  0.2857 -0.1924
   43BDTP    S226972  -1.779   1.513   4.378  0.0942  0.0047  0.2056
   44FTM     S126973  -1.840   1.329   4.043 -0.3979 -0.4552  0.4375
   44FTM     C126974  -1.748   1.178   4.079  0.1360 -0.2101  0.1264
   44FTM     C226975  -1.792   1.124   4.196  0.9418 -0.1253  0.4846
   44FTM     C326976  -1.897   1.195   4.262  1.1876 -0.2427  1.0101
   44FTM     C426977  -1.935   1.306   4.194  0.5489 -0.4235  1.0556
   44FTM     F126978  -1.739   1.007   4.250  1.5051  0.0640  0.3579
   44FTM     C526979  -1.640   1.130   3.995  1.1531 -0.3341  0.7802
   44FTM     C626980  -1.508   1.202   3.968 -1.0595  0.3498  0.0525
   44FTM     C726981  -1.401   1.133   3.891 -0.5079  0.1842 -0.3477
   44FTM     C826982  -1.383   0.980   3.928 -0.4961  0.0843 -1.1415
   44FTM     C926983  -1.250   0.903   3.892  0.6013  0.8408  1.1175
   44FTM    C1026984  -1.247   0.872   3.746  0.4562  0.7967  0.2391
   44FTM    C1126985  -1.452   1.277   4.085  0.2754 -2.3152 -1.3820
   44FTM    C1226986  -1.381   1.204   4.205 -1.1105 -1.0928 -1.5198
   45FTM     S126987  -2.350   1.873   4.368  0.4260  0.6051  0.2486
   45FTM     C126988  -2.422   1.888   4.532 -0.4167  0.7570 -0.1243
   45FTM     C226989  -2.358   1.805   4.619 -0.9086  0.7745  0.2681
   45FTM     C326990  -2.251   1.727   4.564 -0.6661  0.6733  0.8681
   45FTM     C426991  -2.233   1.751   4.431  0.0343  0.5751  0.9375
   45FTM     F126992  -2.392   1.796   4.753 -1.6081  0.8833  0.1073
   45FTM     C526993  -2.516   2.004   4.561  0.4496  1.4071 -1.8794
   45FTM     C626994  -2.486   2.148   4.578 -0.5016 -1.5930  0.4192
   45FTM     C726995  -2.338   2.179   4.633  0.9364 -0.3529  0.6236
   45FTM     C826996  -2.199   2.223   4.557  0.8779 -0.2548  0.1293
   45FTM     C926997  -2.235   2.344   4.475 -0.5697  0.1010 -0.9510
   45FTM    C1026998  -2.278   2.317   4.332  1.0169 -0.6617  0.2819
   45FTM    C1126999  -2.595   2.258   4.639  0.7340  1.0252 -0.0169
   45FTM    C1227000  -2.650   2.233   4.785  0.5087 -0.4375  0.5739
   46TPM     C127001  -1.710   1.724   4.560  1.2888  0.6678 -0.4648
   46TPM     C227002  -1.577   1.692   4.563  1.2841  0.6725 -0.0849
   46TPM     C327003  -1.511   1.728   4.685  0.7749  0.0444  0.3886
   46TPM     C427004  -1.594   1.788   4.776  0.3916 -0.4392  0.3700
   46TPM     S127005  -1.762   1.804   4.713  0.6457 -0.1365 -0.2520
   47BDD     C127006  -1.613   1.876   5.157  0.2251  0.1236  0.2576
   47BDD     C227007  -1.483   1.903   5.124  0.2284  0.0500  0.2073
   47BDD     C327008  -1.454   1.884   4.983  0.1740 -0.0088  0.2040
   47BDD     C427009  -1.562   1.842   4.910  0.1308  0.0208  0.2517
   47BDD     S127010  -1.708   1.824   5.013  0.1545  0.1244  0.3043
   47BDD     C527011  -1.381   1.948   5.221  0.2811  0.0311  0.1605
   47BDD     C627012  -1.320   1.908   4.925  0.1676 -0.0922  0.1534
   47BDD     O127013  -1.295   1.892   4.803  0.1209 -0.1429  0.1506
   47BDD     O227014  -1.406   1.964   5.342  0.3278  0.0818  0.1634
   47BDD     C727015  -1.218   1.953   5.022  0.2201 -0.1112  0.1067
   47BDD     C827016  -1.247   1.972   5.163  0.2744 -0.0524  0.1100
   47BDD     C927017  -1.139   2.013   5.236  0.3181 -0.0820  0.0622
   47BDD     S227018  -0.993   2.032   5.132  0.2941 -0.1856  0.0096
   47BDD    C1027019  -1.088   1.980   4.989  0.2234 -0.1848  0.0564
   47BDD    C1127020  -1.014   1.974   4.862 -0.3793  2.3212 -0.3937
   47BDD    C1227021  -0.900   1.861   4.845 -1.0801  0.5050 -1.1756
   47BDD    C1327022  -0.792   1.896   4.738 -0.0673 -0.2950  1.1903
   47BDD    C1427023  -0.761   1.783   4.635  0.2569 -1.7240  0.3177
   47BDD    C1527024  -0.687   1.780   4.499  0.0202 -1.2505  0.3034
   47BDD    C1627025  -0.762   1.850   4.388 -0.1051  0.2621  2.0010
   47BDD    C1727026  -0.918   1.713   4.865 -0.5188  0.3357 -0.5706
   47BDD    C1827027  -0.953   1.671   5.009  0.2138 -2.0187  0.9926
   47BDD    C1927028  -1.119   2.044   5.378 -1.2706  0.9819  0.4513
   47BDD    C2027029  -1.072   1.933   5.469  0.3284  0.5568 -0.9426
   47BDD    C2127030  -1.094   1.956   5.630 -0.4400  0.6252 -0.2947
   47BDD    C2227031  -1.162   1.835   5.692  0.0365  0.8388  1.3319
   47BDD    C2327032  -1.299   1.792   5.637  0.2148  0.6294  0.6120
   47BDD    C2427033  -1.405   1.883   5.702  0.5028 -0.0943 -0.0234
   47BDD    C2527034  -0.966   1.826   5.419  0.1174  1.9681  0.9722
   47BDD    C2627035  -0.822   1.874   5.403 -0.5256 -1.1772 -0.2990
   48TPM     C127036  -1.701   1.888   5.273 -0.1530 -0.5496 -0.1463
   48TPM     C227037  -1.711   1.804   5.380 -0.4210 -0.9706 -0.4950
   48TPM     C327038  -1.824   1.831   5.465 -0.2093 -0.8185 -0.2601
   48TPM     C427039  -1.900   1.936   5.423  0.2206 -0.2816  0.2679
   48TPM     S127040  -1.834   2.009   5.272  0.3920  0.0765  0.5109
   49BDTP    C127041  -2.352   2.270   5.704  0.2861 -0.3071  0.0175
   49BDTP    C227042  -2.351   2.150   5.781  0.1204 -0.2953  0.0401
   49BDTP    C327043  -2.269   2.042   5.750  0.0734 -0.3607  0.1404
   49BDTP    C427044  -2.185   2.053   5.637  0.1938 -0.4415  0.2226
   49BDTP    C527045  -2.187   2.173   5.561  0.3588 -0.4533  0.2000
   49BDTP    C627046  -2.268   2.281   5.592  0.4068 -0.3880  0.0999
   49BDTP    C727047  -2.092   1.955   5.586  0.1738 -0.5187  0.3326
   49BDTP    C827048  -2.025   1.995   5.475  0.3147 -0.5870  0.3932
   49BDTP    S127049  -2.069   2.163   5.421  0.4921 -0.5631  0.3194
   49BDTP    C927050  -2.445   2.369   5.756  0.3061 -0.2300 -0.0924
   49BDTP   C1027051  -2.513   2.329   5.867  0.1652 -0.1616 -0.1529
   49BDTP    S227052  -2.468   2.161   5.920 -0.0121 -0.1854 -0.0790
   50FTM     S127053  -2.160   1.797   5.853 -0.3362  0.1962  0.4558
   50FTM     C127054  -2.279   1.680   5.920 -0.3187 -0.1654 -0.1338
   50FTM     C227055  -2.405   1.731   5.911 -0.3984 -0.4091 -0.4548
   50FTM     C327056  -2.416   1.862   5.853 -0.4759 -0.3313 -0.2664
   50FTM     C427057  -2.295   1.912   5.816 -0.4546 -0.0178  0.2144
   50FTM     F127058  -2.517   1.663   5.955 -0.4058 -0.7170 -0.9382
   50FTM     C527059  -2.213   1.554   5.980  1.6338 -0.1829  0.5056
   50FTM     C627060  -2.147   1.543   6.116 -0.8883  0.4970  0.0634
   50FTM     C727061  -2.013   1.606   6.122  0.3748 -0.3229  0.5178
   50FTM     C827062  -1.894   1.548   6.039  0.2479 -0.6826 -0.0729
   50FTM     C927063  -1.783   1.595   6.117 -1.5876 -1.9375  0.3285
   50FTM    C1027064  -1.712   1.692   6.023  0.6789  0.6218 -0.5281
   50FTM    C1127065  -2.189   1.597   6.257  1.0742 -0.4388  0.3366
   50FTM    C1227066  -2.325   1.678   6.267 -0.6631 -1.2426 -0.5141
   51FTM     S127067  -2.083   2.469   5.481 -0.2259 -0.2955 -0.4789
   51FTM     C127068  -2.156   2.616   5.406 -0.2681 -0.3856 -0.6153
   51FTM     C227069  -2.291   2.613   5.420 -0.2193 -0.0722  0.0166
   51FTM     C327070  -2.345   2.499   5.487 -0.1476  0.2494  0.6306
   51FTM     C427071  -2.248   2.412   5.527 -0.1416  0.1800  0.4636
   51FTM     F127072  -2.374   2.713   5.372 -0.2367 -0.0579  0.0764
   51FTM     C527073  -2.058   2.710   5.364  0.0399 -0.9592 -0.4948
   51FTM     C627074  -2.016   2.718   5.219  0.2415 -0.2285 -0.8266
   51FTM     C727075  -1.910   2.620   5.193  0.7268 -0.5441  1.5075
   51FTM     C827076  -1.761   2.683   5.173  1.3017 -0.4292 -0.6785
   51FTM     C927077  -1.705   2.816   5.222 -0.0401 -1.0087 -1.1569
   51FTM    C1027078  -1.663   2.798   5.380 -1.4329 -0.2221  1.3671
   51FTM    C1127079  -2.110   2.762   5.104  0.3342 -0.9513  1.3983
   51FTM    C1227080  -2.149   2.914   5.098  1.2540 -0.5927 -0.2204
   52TPM     C127081  -2.622   2.379   5.935 -0.2225  0.4606 -0.1180
   52TPM     C227082  -2.654   2.512   5.938 -0.2670  0.4470  0.0514
   52TPM     C327083  -2.743   2.548   6.046 -0.4025  0.2514  0.0068
   52TPM     C427084  -2.778   2.443   6.125 -0.4616  0.1161 -0.1965
   52TPM     S127085  -2.702   2.289   6.070 -0.3495  0.2259 -0.3487
   53BDD     C127086  -3.058   2.521   6.381 -0.3296 -0.0384  0.1956
   53BDD     C227087  -2.961   2.463   6.457 -0.2630 -0.0144  0.1296
   53BDD     C327088  -2.844   2.424   6.381 -0.2108  0.2207  0.0870
   53BDD     C427089  -2.853   2.452   6.248 -0.2384  0.3727  0.1213
   53BDD     S127090  -3.010   2.531   6.209 -0.3312  0.2320  0.2091
   53BDD     C527091  -2.972   2.442   6.603 -0.2456 -0.2070  0.1032
   53BDD     C627092  -2.726   2.359   6.444 -0.1357  0.2860  0.0139
   53BDD     O127093  -2.625   2.325   6.378 -0.0906  0.4888 -0.0228
   53BDD     O227094  -3.073   2.476   6.669 -0.2906 -0.4097  0.1401
   53BDD     C727095  -2.737   2.338   6.590 -0.1178  0.0936 -0.0124
   53BDD     C827096  -2.855   2.377   6.666 -0.1702 -0.1416  0.0302
   53BDD     C927097  -2.845   2.349   6.799 -0.1431 -0.2936 -0.0039
   53BDD     S227098  -2.689   2.270   6.839 -0.0500 -0.1529 -0.0918
   53BDD    C1027099  -2.640   2.280   6.666 -0.0515  0.1175 -0.0784
   53BDD    C1127100  -2.507   2.227   6.633  0.9384 -0.5042  2.1613
   53BDD    C1227101  -2.483   2.089   6.589  0.9735  0.3797 -1.3754
   53BDD    C1327102  -2.581   1.971   6.648 -0.3793 -0.1460 -1.6277
   53BDD    C1427103  -2.505   1.840   6.666 -0.8443  0.5782 -0.2877
   53BDD    C1527104  -2.441   1.811   6.796 -0.5173  0.0895 -0.7780
   53BDD    C1627105  -2.390   1.670   6.795  1.5355  1.0657  0.0372
   53BDD    C1727106  -2.400   2.048   6.471 -1.0659  0.0982 -1.0248
   53BDD    C1827107  -2.247   2.058   6.504  0.4335  0.4667 -0.0567
   53BDD    C1927108  -2.935   2.354   6.921  1.0853  0.3714 -1.0367
   53BDD    C2027109  -2.997   2.222   6.955 -0.5189  0.4168  0.6835
   53BDD    C2127110  -3.154   2.222   6.990  0.1588  0.7344 -0.4236
   53BDD    C2227111  -3.248   2.277   6.878 -0.3768 -0.1320 -0.6266
   53BDD    C2327112  -3.392   2.317   6.926 -0.6439  0.8444 -0.0651
   53BDD    C2427113  -3.400   2.416   7.050 -2.0878  0.0794  1.3189
   53BDD    C2527114  -2.910   2.163   7.071  0.9648 -0.4950 -1.6077
   53BDD    C2627115  -2.912   2.235   7.215 -0.0026 -0.9318 -0.2927
   54TPM     C127116  -3.191   2.582   6.392  0.1624  1.1424  0.4058
   54TPM     C227117  -3.286   2.533   6.477  0.2487  0.6900  0.2432
   54TPM     C327118  -3.418   2.583   6.450 -0.0589 -0.3686 -0.3452
   54TPM     C427119  -3.424   2.670   6.346 -0.3794 -0.7234 -0.6313
   54TPM     S127120  -3.261   2.697   6.272 -0.3175  0.2596 -0.1760
   55BDTP    C127121  -3.979   2.937   6.237 -0.3154 -0.2177  0.0685
   55BDTP    C227122  -3.891   3.034   6.181 -0.2941 -0.2719  0.0086
   55BDTP    C327123  -3.753   3.018   6.180 -0.3059 -0.3653 -0.1020
   55BDTP    C427124  -3.699   2.901   6.236 -0.3406 -0.4075 -0.1562
   55BDTP    C527125  -3.787   2.804   6.292 -0.3620 -0.3534 -0.0963
   55BDTP    C627126  -3.925   2.820   6.294 -0.3502 -0.2600  0.0143
   55BDTP    C727127  -3.560   2.862   6.246 -0.3587 -0.5032 -0.2702
   55BDTP    C827128  -3.540   2.743   6.306 -0.3922 -0.5232 -0.2985
   55BDTP    S127129  -3.694   2.662   6.359 -0.4057 -0.4236 -0.1847
   55BDTP    C927130  -4.119   2.976   6.228 -0.2974 -0.1220  0.1826
   55BDTP   C1027131  -4.139   3.095   6.167 -0.2639 -0.1022  0.2109
   55BDTP    S227132  -3.985   3.176   6.115 -0.2504 -0.2016  0.0969
   56FTM     S127133  -3.520   3.100   6.044 -0.4468  0.3754  0.2773
   56FTM     C127134  -3.496   3.277   6.017  0.1347  0.2737  0.1117
   56FTM     C227135  -3.595   3.347   6.077  0.3541  0.6593  0.0322
   56FTM     C327136  -3.695   3.270   6.146  0.0899  1.0476  0.0936
   56FTM     C427137  -3.670   3.136   6.138 -0.3460  0.9567  0.2244
   56FTM     F127138  -3.603   3.485   6.073  0.8072  0.6831 -0.1010
   56FTM     C527139  -3.379   3.341   5.978 -0.5599  0.0685 -0.0826
   56FTM     C627140  -3.285   3.290   5.871  0.5973 -1.1871  0.4127
   56FTM     C727141  -3.321   3.265   5.718  0.2929  0.5645 -0.9013
   56FTM     C827142  -3.372   3.382   5.639  0.4506  0.1125 -1.0202
   56FTM     C927143  -3.394   3.308   5.509 -0.0339  0.1017 -0.5152
   56FTM    C1027144  -3.504   3.364   5.425  0.0863 -0.1886 -0.0281
   56FTM    C1127145  -3.152   3.375   5.885 -0.2683  0.5038 -0.4199
   56FTM    C1227146  -3.019   3.317   5.820 -0.0175  0.2668 -1.0017
   57FTM     S127147  -4.169   2.680   6.423  0.6515  0.0592  0.2160
   57FTM     C127148  -4.177   2.510   6.364  0.3380 -0.0336  0.5191
   57FTM     C227149  -4.068   2.482   6.287  0.2438 -0.3443  0.4939
   57FTM     C327150  -3.974   2.589   6.270  0.4057 -0.5247  0.2435
   57FTM     C427151  -4.013   2.702   6.335  0.6312 -0.3464  0.0712
   57FTM     F127152  -4.047   2.358   6.228  0.0055 -0.4838  0.6962
   57FTM     C527153  -4.281   2.428   6.431 -0.5469  0.2963  0.0805
   57FTM     C627154  -4.287   2.415   6.577 -2.0004 -0.6430 -1.0707
   57FTM     C727155  -4.389   2.317   6.630 -1.0718  0.6228  0.3196
   57FTM     C827156  -4.525   2.328   6.584 -0.4113  0.1850 -0.2759
   57FTM     C927157  -4.583   2.290   6.450  0.4419 -0.6968 -0.3442
   57FTM    C1027158  -4.579   2.143   6.419  0.1942 -0.6361  0.2903
   57FTM    C1127159  -4.156   2.416   6.669 -0.1793 -0.6867  0.4615
   57FTM    C1227160  -4.088   2.282   6.672 -0.1407  0.7400  0.2545
   58TPM     C127161  -4.262   3.166   6.141 -0.2251  0.0462  0.2121
   58TPM     C227162  -4.301   3.294   6.168 -0.3107  0.1308 -0.2999
   58TPM     C327163  -4.414   3.338   6.090 -0.3345 -0.2531 -0.4841
   58TPM     C427164  -4.461   3.243   6.004 -0.2671 -0.6305 -0.1125
   58TPM     S127165  -4.366   3.090   6.015 -0.1673 -0.5294  0.5038
   59BDD     C127166  -4.742   3.313   5.749 -0.0165 -0.0465  0.0147
   59BDD     C227167  -4.788   3.217   5.834  0.0122 -0.0083  0.0733
   59BDD     C327168  -4.697   3.188   5.944  0.0398  0.0547  0.0671
   59BDD     C427169  -4.583   3.263   5.940  0.0322  0.0635  0.0040
   59BDD     S127170  -4.581   3.374   5.799 -0.0105 -0.0062 -0.0521
   59BDD     C527171  -4.918   3.149   5.819  0.0148 -0.0284  0.1372
   59BDD     C627172  -4.728   3.088   6.048  0.0730  0.1037  0.1240
   59BDD     O127173  -4.649   3.063   6.142  0.0969  0.1580  0.1186
   59BDD     O227174  -4.997   3.174   5.724 -0.0092 -0.0827  0.1425
   59BDD     C727175  -4.858   3.020   6.032  0.0758  0.0836  0.1878
   59BDD     C827176  -4.949   3.049   5.923  0.0482  0.0206  0.1941
   59BDD     C927177  -5.063   2.974   5.926  0.0557  0.0116  0.2571
   59BDD     S227178  -5.066   2.863   6.067  0.0981  0.0815  0.3132
   59BDD    C1027179  -4.904   2.924   6.118  0.1042  0.1218  0.2462
   59BDD    C1127180  -4.847   2.873   6.259 -0.3101 -0.6449  0.3789
   59BDD    C1227181  -4.849   2.742   6.347 -1.2668  0.4700 -0.7018
   59BDD    C1327182  -4.794   2.627   6.261 -1.0314 -0.1358  1.1355
   59BDD    C1427183  -4.670   2.648   6.161  0.6117  0.0047 -0.4130
   59BDD    C1527184  -4.655   2.517   6.077 -1.1179  0.2367  0.7751
   59BDD    C1627185  -4.502   2.459   6.095  0.9782  0.1855 -0.3411
   59BDD    C1727186  -4.766   2.760   6.474 -0.1644  0.3008 -0.5400
   59BDD    C1827187  -4.771   2.666   6.585 -0.0112 -1.2871  1.2434
   59BDD    C1927188  -5.193   2.955   5.850  0.0959 -1.1343  0.2726
   59BDD    C2027189  -5.203   2.851   5.740  0.3671  0.7249 -0.3223
   59BDD    C2127190  -5.352   2.803   5.720 -0.3578  1.6927  0.7514
   59BDD    C2227191  -5.431   2.905   5.649  1.4873 -1.1934 -0.6360
   59BDD    C2327192  -5.590   2.907   5.651  0.8945  1.8940  0.8307
   59BDD    C2427193  -5.643   2.765   5.652  0.2502  0.4874  1.6245
   59BDD    C2527194  -5.104   2.860   5.622  0.2342  0.0099 -0.5100
   59BDD    C2627195  -5.024   2.745   5.568 -2.3146 -0.7149 -0.8924
   60TPM     C127196  -4.776   3.361   5.608 -0.0619 -0.0057  0.0377
   60TPM     C227197  -4.902   3.371   5.557 -0.1842  0.2332  0.3749
   60TPM     C327198  -4.906   3.422   5.422 -0.4287  0.0222  0.3011
   60TPM     C427199  -4.783   3.451   5.371 -0.4926 -0.3777 -0.0924
   60TPM     S127200  -4.652   3.416   5.490 -0.2473 -0.5197 -0.4026
    1BDTP    C127201  10.159  10.237   2.824 -0.3705  0.0775 -0.1761
    1BDTP    C227202  10.287  10.254   2.885 -0.3769  0.1221 -0.1746
    1BDTP    C327203  10.401  10.287   2.813 -0.3464 -0.0436 -0.2048
    1BDTP    C427204  10.389  10.305   2.674 -0.3085 -0.2642 -0.2379
    1BDTP    C527205  10.261  10.289   2.613 -0.3021 -0.3088 -0.2393
    1BDTP    C627206  10.147  10.256   2.685 -0.3324 -0.1435 -0.2092
    1BDTP    C727207  10.492  10.340   2.579 -0.2725 -0.4626 -0.2725
    1BDTP    C827208  10.449  10.351   2.451 -0.2403 -0.6523 -0.2996
    1BDTP    S127209  10.271  10.318   2.433 -0.2501 -0.6058 -0.2850
    1BDTP    C927210  10.056  10.202   2.919 -0.4063  0.2759 -0.1414
    1BDTP   C1027211  10.099  10.192   3.047 -0.4389  0.4654 -0.1143
    1BDTP    S227212  10.277  10.225   3.065 -0.4284  0.4189 -0.1290
    2FTM     S127213  10.659  10.401   2.865 -0.2600 -0.0590  0.0718
    2FTM     C127214  10.778  10.306   2.961 -0.0453  0.1939  0.0576
    2FTM     C227215  10.724  10.187   2.998  0.2902 -0.0222 -0.1315
    2FTM     C327216  10.589  10.163   2.955  0.3984 -0.3886 -0.2736
    2FTM     C427217  10.539  10.267   2.883  0.1371 -0.4556 -0.1905
    2FTM     F127218  10.792  10.093   3.073  0.5193  0.0994 -0.1874
    2FTM     C527219  10.909  10.364   3.005  0.0653 -0.4874 -0.1638
    2FTM     C627220  11.033  10.356   2.900 -0.4990 -0.3837 -0.4053
    2FTM     C727221  11.032  10.271   2.774 -0.0995 -0.2909  0.8196
    2FTM     C827222  11.027  10.117   2.779  0.1149  0.3050 -0.7045
    2FTM     C927223  10.989  10.051   2.655  0.7217  1.3328 -0.8713
    2FTM    C1027224  10.861  10.089   2.586  0.0932  0.2005 -0.8614
    2FTM    C1127225  11.166  10.422   2.949 -0.2766 -1.0147 -0.0570
    2FTM    C1227226  11.235  10.489   2.840  0.5704 -1.0034  0.4386
    3FTM     S127227   9.896  10.316   2.566 -0.2444  0.3349  0.2488
    3FTM     C127228   9.845  10.187   2.451 -0.6461  0.5829  0.1465
    3FTM     C227229   9.928  10.080   2.461 -0.9286  0.3474  0.0030
    3FTM     C327230  10.034  10.091   2.557 -0.8519 -0.0312 -0.0352
    3FTM     C427231  10.032  10.211   2.623 -0.4987 -0.0874  0.0828
    3FTM     F127232   9.913   9.966   2.385 -1.2734  0.4606 -0.1023
    3FTM     C527233   9.743  10.186   2.347  0.6290  0.3242  0.8852
    3FTM     C627234   9.765  10.285   2.232  1.6534 -0.1537  0.0118
    3FTM     C727235   9.798  10.429   2.263  0.3938  1.2709 -0.0099
    3FTM     C827236   9.820  10.533   2.142 -1.0352  0.5030 -0.0712
    3FTM     C927237   9.837  10.661   2.214 -0.3619 -0.4544  0.7116
    3FTM    C1027238   9.786  10.775   2.124 -0.5424  0.0339 -0.7572
    3FTM    C1127239   9.814  10.203   2.108  0.3811 -0.1423  0.6399
    3FTM    C1227240   9.751  10.088   2.037  0.3845 -0.7930  0.0208
    4TPM     C127241  10.008  10.202   3.150 -0.6377 -0.4292 -0.4303
    4TPM     C227242   9.891  10.136   3.172 -0.9732  0.1450 -0.4537
    4TPM     C327243   9.824  10.177   3.293 -0.7515  0.4089 -0.4171
    4TPM     C427244   9.890  10.273   3.363 -0.2471  0.0361 -0.3657
    4TPM     S127245  10.043  10.321   3.281 -0.0115 -0.6831 -0.3598
    5BDD     C127246   9.679  10.335   3.689 -0.4811  0.3457 -0.2076
    5BDD     C227247   9.756  10.446   3.675 -0.3464  0.2851  0.0604
    5BDD     C327248   9.840  10.445   3.557  0.0021  0.2584  0.3036
    5BDD     C427249   9.825  10.331   3.481  0.1280  0.2988  0.2176
    5BDD     S127250   9.705  10.219   3.554 -0.1807  0.3729 -0.1738
    5BDD     C527251   9.757  10.559   3.771 -0.5331  0.2503  0.1026
    5BDD     C627252   9.932  10.555   3.523  0.1972  0.1941  0.6127
    5BDD     O127253  10.004  10.554   3.420  0.4976  0.1709  0.8224
    5BDD     O227254   9.684  10.560   3.874 -0.8333  0.2732 -0.1070
    5BDD     C727255   9.932  10.668   3.618  0.0107  0.1590  0.6549
    5BDD     C827256   9.848  10.669   3.737 -0.3378  0.1857  0.4117
    5BDD     C927257   9.864  10.782   3.812 -0.4637  0.1459  0.4978
    5BDD     S227258   9.984  10.894   3.740 -0.1548  0.0717  0.8891
    5BDD    C1027259  10.010  10.779   3.605  0.1452  0.0992  0.9229
    5BDD    C1127260  10.091  10.840   3.495 -0.7173 -1.1879  0.1714
    5BDD    C1227261  10.064  10.816   3.350  0.6054  0.3034  0.0373
    5BDD    C1327262   9.920  10.835   3.290 -0.3138 -0.4687 -1.1204
    5BDD    C1427263   9.853  10.959   3.366  0.9832  0.6749  0.4031
    5BDD    C1527264   9.706  10.934   3.398 -0.4639  0.9833  0.3484
    5BDD    C1627265   9.607  10.931   3.265 -0.0061 -0.2179 -0.0750
    5BDD    C1727266  10.179  10.861   3.278 -2.3264 -1.9082  0.7284
    5BDD    C1827267  10.199  10.847   3.120 -0.0785  0.7884  0.6042
    5BDD    C1927268   9.833  10.810   3.959  0.5911 -0.6772 -0.8602
    5BDD    C2027269   9.762  10.939   4.017 -0.4708 -0.6467 -0.0060
    5BDD    C2127270   9.671  11.021   3.919  0.7102 -0.3220  0.1241
    5BDD    C2227271   9.551  10.951   3.850 -0.0884 -0.4936  0.7001
    5BDD    C2327272   9.434  11.038   3.795 -0.4684  1.9133  0.4642
    5BDD    C2427273   9.452  11.156   3.706  0.5109 -0.9342 -1.5174
    5BDD    C2527274   9.855  11.025   4.114 -0.4955  0.1119 -1.5154
    5BDD    C2627275   9.806  11.138   4.198 -0.6549 -0.4218 -0.8456
    6TPM     C127276   9.579  10.289   3.787  0.1542 -0.1186  0.3422
    6TPM     C227277   9.465  10.240   3.732 -0.0153  0.2334  0.3740
    6TPM     C327278   9.353  10.237   3.823 -0.1130  0.9601  0.2862
    6TPM     C427279   9.383  10.285   3.948 -0.0177  1.1624  0.1873
    6TPM     S127280   9.555  10.337   3.959  0.2040  0.4449  0.1975
    7BDTP    C127281   8.919  10.413   4.358  0.0827 -0.1156 -0.0335
    7BDTP    C227282   9.026  10.379   4.446  0.0136  0.0358  0.1111
    7BDTP    C327283   9.151  10.340   4.400  0.1388  0.2337  0.2800
    7BDTP    C427284   9.172  10.335   4.261  0.3417  0.2851  0.3080
    7BDTP    C527285   9.065  10.369   4.173  0.4106  0.1338  0.1633
    7BDTP    C627286   8.940  10.408   4.219  0.2857 -0.0641 -0.0056
    7BDTP    C727287   9.293  10.297   4.190  0.4986  0.4800  0.4709
    7BDTP    C827288   9.282  10.302   4.055  0.6804  0.4826  0.4561
    7BDTP    S127289   9.117  10.355   3.999  0.6773  0.2379  0.2334
    7BDTP    C927290   8.799  10.451   4.429 -0.0746 -0.3104 -0.1965
    7BDTP   C1027291   8.810  10.446   4.564 -0.2561 -0.3128 -0.1816
    7BDTP    S227292   8.974  10.394   4.620 -0.2534 -0.0685  0.0413
    8FTM     S127293   9.347  10.407   4.591 -0.4137  0.0046 -0.1941
    8FTM     C127294   9.379  10.273   4.708  0.7952  0.3360 -0.1169
    8FTM     C227295   9.326  10.157   4.660  1.4296 -0.0777  0.1639
    8FTM     C327296   9.260  10.165   4.533  1.0240 -0.6633  0.3320
    8FTM     C427297   9.261  10.291   4.482  0.0470 -0.6993  0.1749
    8FTM     F127298   9.336  10.036   4.728  2.4152  0.0494  0.2854
    8FTM     C527299   9.455  10.300   4.831 -0.7217 -0.4624 -0.7243
    8FTM     C627300   9.394  10.321   4.971 -0.3834  0.1070 -1.4944
    8FTM     C727301   9.499  10.337   5.094  0.7415 -0.0494  1.5427
    8FTM     C827302   9.625  10.242   5.101 -0.8358 -1.0138  0.6481
    8FTM     C927303   9.646  10.153   5.220 -0.6268 -0.7740 -0.4529
    8FTM    C1027304   9.542  10.035   5.260 -0.0506  0.4059  0.2305
    8FTM    C1127305   9.294  10.433   4.975 -1.0594  0.9088  0.9799
    8FTM    C1227306   9.174  10.429   5.057  0.6999 -0.1886  1.7743
    9FTM     S127307   8.663  10.416   4.132 -0.2752  0.0299  0.3033
    9FTM     C127308   8.620  10.556   4.026 -0.1266 -0.3418 -0.2537
    9FTM     C227309   8.732  10.625   3.993 -0.0594 -0.5591 -0.4839
    9FTM     C327310   8.856  10.575   4.046 -0.1175 -0.4528 -0.2470
    9FTM     C427311   8.837  10.464   4.123 -0.2335 -0.1437  0.1786
    9FTM     F127312   8.730  10.737   3.911  0.0594 -0.8678 -0.9227
    9FTM     C527313   8.484  10.543   3.961  0.0739  0.4399 -0.2675
    9FTM     C627314   8.480  10.494   3.821  0.9239 -0.3645  0.1810
    9FTM     C727315   8.341  10.534   3.761  0.3246 -1.1648 -0.3087
    9FTM     C827316   8.322  10.676   3.690 -0.3596 -0.0909 -1.4313
    9FTM     C927317   8.175  10.704   3.650 -0.6476  0.5241  0.2179
    9FTM    C1027318   8.065  10.680   3.743  0.2479  0.4159 -0.2039
    9FTM    C1127319   8.522  10.362   3.783 -0.3508  0.6821 -0.5868
    9FTM    C1227320   8.566  10.345   3.629  0.0760  0.1836  0.6162
   10TPM     C127321   8.734  10.451   4.689  0.5328 -0.0736  0.6198
   10TPM     C227322   8.785  10.519   4.796  0.4528 -1.0755  1.3158
   10TPM     C327323   8.702  10.512   4.914 -0.0439 -1.5166  0.9497
   10TPM     C427324   8.588  10.440   4.896 -0.3419 -0.8505 -0.0253
   10TPM     S127325   8.576  10.374   4.729 -0.0166  0.3948 -0.5615
   11BDD     C127326   8.441  10.200   5.174  0.5248 -0.2470  0.0318
   11BDD     C227327   8.452  10.321   5.236  0.3374 -0.2246  0.0240
   11BDD     C327328   8.502  10.426   5.148  0.2563 -0.1736  0.0396
   11BDD     C427329   8.527  10.383   5.021  0.3832 -0.1573  0.0593
   11BDD     S127330   8.491  10.209   5.002  0.6130 -0.2053  0.0596
   11BDD     C527331   8.418  10.346   5.377  0.2260 -0.2496  0.0015
   11BDD     C627332   8.522  10.565   5.194  0.0560 -0.1426  0.0345
   11BDD     O127333   8.564  10.656   5.118 -0.0141 -0.0982  0.0479
   11BDD     O227334   8.376  10.255   5.453  0.2961 -0.2940 -0.0119
   11BDD     C727335   8.488  10.589   5.336 -0.0556 -0.1674  0.0122
   11BDD     C827336   8.439  10.485   5.423  0.0255 -0.2186 -0.0036
   11BDD     C927337   8.413  10.528   5.551 -0.1013 -0.2348 -0.0232
   11BDD     S227338   8.449  10.702   5.570 -0.3312 -0.1869 -0.0236
   11BDD    C1027339   8.499  10.711   5.398 -0.2432 -0.1454  0.0042
   11BDD    C1127340   8.568  10.832   5.345  0.2042 -2.3795  0.2026
   11BDD    C1227341   8.485  10.966   5.317 -0.5510  0.3343 -0.8053
   11BDD    C1327342   8.331  10.953   5.321 -0.0384 -0.3181 -0.7991
   11BDD    C1427343   8.234  11.024   5.424 -0.7614  0.9809 -1.6137
   11BDD    C1527344   8.287  11.151   5.495 -0.5788  0.5344  0.3874
   11BDD    C1627345   8.381  11.114   5.607  0.2684  0.0927  0.5374
   11BDD    C1727346   8.551  11.099   5.272 -0.1346  1.1576  0.8551
   11BDD    C1827347   8.513  11.128   5.134  0.5633 -0.4366  1.2418
   11BDD    C1927348   8.378  10.462   5.676 -0.1035 -1.2192 -0.0752
   11BDD    C2027349   8.233  10.439   5.705  0.2387  0.6853  0.2674
   11BDD    C2127350   8.138  10.554   5.699  0.9543 -1.5689 -0.0288
   11BDD    C2227351   8.123  10.651   5.576 -2.0767  1.1217  1.2305
   11BDD    C2327352   8.045  10.608   5.448  1.1876 -1.2093 -0.3037
   11BDD    C2427353   7.890  10.590   5.462 -0.4327  0.3801 -0.1180
   11BDD    C2527354   8.239  10.363   5.841 -0.1159 -0.0134  0.4314
   11BDD    C2627355   8.108  10.319   5.893  0.9704  0.8586 -0.0671
   12TPM     C127356   8.417  10.071   5.216  1.1143  0.3662  0.4107
   12TPM     C227357   8.292  10.037   5.261  0.8435  0.9773  0.1509
   12TPM     C327358   8.277   9.896   5.287  0.0007  1.0004 -0.1569
   12TPM     C427359   8.389   9.823   5.262 -0.3708  0.4077 -0.1320
   12TPM     S127360   8.524   9.927   5.203  0.3202 -0.2318  0.2854
   13BDTP    C127361   8.642   9.303   5.483 -0.2806  0.2720 -0.0091
   13BDTP    C227362   8.533   9.251   5.408 -0.4892  0.1664  0.3623
   13BDTP    C327363   8.446   9.331   5.336 -0.6454  0.0596  0.4302
   13BDTP    C427364   8.468   9.470   5.337 -0.5941  0.0575  0.1177
   13BDTP    C527365   8.577   9.523   5.413 -0.3858  0.1631 -0.2538
   13BDTP    C627366   8.664   9.442   5.485 -0.2296  0.2693 -0.3217
   13BDTP    C727367   8.391   9.574   5.270 -0.7294 -0.0428  0.1179
   13BDTP    C827368   8.437   9.699   5.291 -0.6340 -0.0172 -0.2309
   13BDTP    S127369   8.584   9.705   5.399 -0.3591  0.1366 -0.6086
   13BDTP    C927370   8.719   9.200   5.550 -0.1452  0.3717 -0.0093
   13BDTP   C1027371   8.673   9.074   5.529 -0.2408  0.3464  0.3394
   13BDTP    S227372   8.527   9.069   5.422 -0.5158  0.1924  0.7172
   14FTM     S127373   8.183   9.311   5.307  0.5716 -0.4189  0.3673
   14FTM     C127374   8.117   9.214   5.170  0.3575  0.2100  0.0182
   14FTM     C227375   8.220   9.162   5.097  0.2649  1.3773 -1.0043
   14FTM     C327376   8.352   9.193   5.142  0.3531  1.8427 -1.5652
   14FTM     C427377   8.351   9.272   5.253  0.5178  1.0043 -0.9520
   14FTM     F127378   8.199   9.083   4.985  0.0949  2.0943 -1.4935
   14FTM     C527379   7.963   9.202   5.136 -0.8562  0.3579  0.2471
   14FTM     C627380   7.865   9.230   5.243  0.6896  0.9910 -0.5000
   14FTM     C727381   7.860   9.108   5.352 -0.6327 -1.4536 -0.9358
   14FTM     C827382   7.789   9.103   5.489  0.3766  0.4358 -0.3030
   14FTM     C927383   7.796   9.222   5.579  0.3776  0.5185  0.4187
   14FTM    C1027384   7.908   9.332   5.561  0.7953 -0.3852  0.0392
   14FTM    C1127385   7.720   9.247   5.182  0.1639  1.1086  0.2967
   14FTM    C1227386   7.675   9.364   5.101  1.6155  0.1116  0.3341
   15FTM     S127387   8.751   9.524   5.748  0.6240  0.1735  0.3896
   15FTM     C127388   8.925   9.569   5.760  0.7252  0.1213 -0.7427
   15FTM     C227389   8.982   9.563   5.637  0.1090 -0.6347 -1.0101
   15FTM     C327390   8.897   9.524   5.529 -0.4663 -1.2045 -0.3662
   15FTM     C427391   8.769   9.499   5.570 -0.2839 -0.8751  0.4200
   15FTM     F127392   9.116   9.593   5.614  0.0286 -0.8545 -1.8536
   15FTM     C527393   9.010   9.598   5.872 -0.3923  0.4272 -0.7219
   15FTM     C627394   8.949   9.714   5.958 -0.5375 -1.3544  0.2794
   15FTM     C727395   8.979   9.844   5.867  0.6053 -0.5738  0.0539
   15FTM     C827396   8.876   9.956   5.880  0.1609  0.2877 -0.0159
   15FTM     C927397   8.879  10.035   5.749  0.6201 -1.6861 -1.1382
   15FTM    C1027398   8.866   9.973   5.610  0.8125 -0.8075 -1.4509
   15FTM    C1127399   9.024   9.711   6.091 -1.1915 -1.1382  0.6383
   15FTM    C1227400   9.018   9.827   6.195  0.0819  0.8542  0.0871
   16TPM     C127401   8.720   8.946   5.588 -0.5612 -0.8607  0.8784
   16TPM     C227402   8.717   8.832   5.513 -0.8276 -1.0707  1.2009
   16TPM     C327403   8.821   8.738   5.547 -0.2413 -0.6528  0.6055
   16TPM     C427404   8.903   8.780   5.647  0.4722 -0.1241 -0.1710
   16TPM     S127405   8.855   8.943   5.708  0.4587 -0.1129 -0.2106
   17BDD     C127406   9.177   8.665   5.909 -0.3099  0.1075  0.0615
   17BDD     C227407   9.180   8.566   5.814 -0.2270  0.1571  0.0118
   17BDD     C327408   9.087   8.588   5.705 -0.0942  0.2403 -0.0856
   17BDD     C427409   9.014   8.703   5.718 -0.0781  0.2527 -0.1082
   17BDD     S127410   9.058   8.792   5.868 -0.2286  0.1609 -0.0097
   17BDD     C527411   9.268   8.448   5.821 -0.2658  0.1299  0.0515
   17BDD     C627412   9.073   8.494   5.592  0.0124  0.3045 -0.1523
   17BDD     O127413   8.992   8.513   5.498  0.1268  0.3762 -0.2362
   17BDD     O227414   9.349   8.428   5.915 -0.3803  0.0584  0.1353
   17BDD     C727415   9.161   8.376   5.599 -0.0269  0.2775 -0.1123
   17BDD     C827416   9.254   8.354   5.708 -0.1597  0.1941 -0.0151
   17BDD     C927417   9.327   8.238   5.695 -0.1755  0.1814  0.0076
   17BDD     S227418   9.283   8.150   5.545 -0.0249  0.2732 -0.0910
   17BDD    C1027419   9.164   8.277   5.504  0.0565  0.3269 -0.1622
   17BDD    C1127420   9.054   8.238   5.394 -0.5981 -0.7379  0.0233
   17BDD    C1227421   8.937   8.147   5.417 -0.5265 -0.4056 -0.7684
   17BDD    C1327422   8.804   8.187   5.346 -0.6181 -0.0864 -0.3629
   17BDD    C1427423   8.724   8.307   5.370  0.1215 -0.7174 -0.0463
   17BDD    C1527424   8.721   8.343   5.516  0.5875 -1.6406 -1.6345
   17BDD    C1627425   8.645   8.274   5.630 -0.0928 -0.2260  0.2475
   17BDD    C1727426   8.984   7.991   5.434  1.2736 -1.0821 -1.2879
   17BDD    C1827427   8.871   7.888   5.430 -0.5270  0.6474 -0.0978
   17BDD    C1927428   9.418   8.153   5.773 -0.2518  0.3445 -0.3028
   17BDD    C2027429   9.564   8.169   5.750 -1.2793  0.1913 -0.8810
   17BDD    C2127430   9.613   8.233   5.617 -0.1493 -0.6824  1.1873
   17BDD    C2227431   9.764   8.230   5.606 -0.6669 -1.9349  0.2884
   17BDD    C2327432   9.825   8.242   5.469  1.5769  0.2874 -0.0950
   17BDD    C2427433   9.903   8.364   5.429 -0.2406 -0.4728  0.7595
   17BDD    C2527434   9.628   8.028   5.803  0.7224  0.0743 -1.5176
   17BDD    C2627435   9.663   7.918   5.702  0.1098 -1.1681 -0.5451
   18TPM     C127436   9.246   8.681   6.037  0.7606  0.2681 -0.3411
   18TPM     C227437   9.241   8.807   6.088  0.3054  0.1922 -0.1935
   18TPM     C327438   9.293   8.817   6.222 -0.4823  0.0761  0.1328
   18TPM     C427439   9.338   8.698   6.273 -0.6282  0.0632  0.2341
   18TPM     S127440   9.318   8.564   6.154  0.2250  0.1979 -0.0773
   19BDTP    C127441   9.677   8.551   6.783  0.9151 -0.0343 -0.5295
   19BDTP    C227442   9.624   8.425   6.743  0.5205  0.0510 -0.2909
   19BDTP    C327443   9.537   8.411   6.636  0.3843  0.1335 -0.1915
   19BDTP    C427444   9.500   8.527   6.565  0.6480  0.1316 -0.3337
   19BDTP    C527445   9.553   8.653   6.605  1.0424  0.0460 -0.5723
   19BDTP    C627446   9.640   8.667   6.712  1.1788 -0.0363 -0.6719
   19BDTP    C727447   9.411   8.537   6.450  0.5742  0.2080 -0.2697
   19BDTP    C827448   9.395   8.663   6.404  0.8898  0.1845 -0.4466
   19BDTP    S127449   9.490   8.787   6.498  1.3249  0.0620 -0.7190
   19BDTP    C927450   9.765   8.541   6.897  0.9890 -0.1109 -0.5934
   19BDTP   C1027451   9.781   8.415   6.944  0.6735 -0.0870 -0.4166
   19BDTP    S227452   9.686   8.292   6.850  0.2380  0.0351 -0.1442
   20FTM     S127453   9.474   8.188   6.452  0.1924 -0.2062 -0.1045
   20FTM     C127454   9.401   8.045   6.533  0.5393 -0.1391  0.3323
   20FTM     C227455   9.387   8.069   6.666  0.8562  0.0770  0.3284
   20FTM     C327456   9.431   8.198   6.712  0.8488  0.2007 -0.0061
   20FTM     C427457   9.480   8.274   6.611  0.5154  0.0755 -0.2672
   20FTM     F127458   9.334   7.976   6.754  1.1723  0.1754  0.6278
   20FTM     C527459   9.378   7.925   6.444  0.6362  1.1749 -0.3044
   20FTM     C627460   9.484   7.816   6.410 -0.1981 -1.7093 -1.3077
   20FTM     C727461   9.502   7.749   6.548  0.3375  0.9173 -0.0832
   20FTM     C827462   9.431   7.631   6.628  0.4155  0.6011 -0.3640
   20FTM     C927463   9.475   7.490   6.659 -0.5618  0.1470 -0.5479
   20FTM    C1027464   9.626   7.486   6.674 -0.3152  0.1171 -0.0295
   20FTM    C1127465   9.611   7.874   6.349 -0.9195 -0.9507 -0.0586
   20FTM    C1227466   9.610   7.952   6.216  0.6680 -0.3103 -0.1491
   21FTM     S127467   9.724   8.869   6.910  0.2473 -0.2721  0.2415
   21FTM     C127468   9.838   8.992   6.843 -0.5749  0.6013  0.3995
   21FTM     C227469   9.861   8.966   6.711 -0.4170  0.9477  0.3570
   21FTM     C327470   9.794   8.852   6.657  0.3350  0.5639  0.2027
   21FTM     C427471   9.716   8.788   6.749  0.7669 -0.0976  0.1246
   21FTM     F127472   9.945   9.044   6.633 -0.9444  1.6325  0.4550
   21FTM     C527473   9.897   9.104   6.925 -1.4785  1.3700 -0.4797
   21FTM     C627474  10.041   9.165   6.901  2.1573 -0.1142  1.3547
   21FTM     C727475  10.146   9.060   6.865  0.9343 -0.7288  1.0051
   21FTM     C827476  10.231   9.000   6.973 -0.5290  0.0502 -0.1144
   21FTM     C927477  10.336   8.890   6.945  1.2483 -0.4267 -0.0975
   21FTM    C1027478  10.370   8.851   7.088 -0.4482 -0.1960  0.1523
   21FTM    C1127479  10.026   9.278   6.785 -0.7586  0.8030 -0.2411
   21FTM    C1227480   9.896   9.357   6.767  0.2949  2.3085  0.3958
   22TPM     C127481   9.843   8.376   7.058 -0.7454 -0.0164 -0.0910
   22TPM     C227482   9.873   8.257   7.118 -0.9713 -0.0463 -0.0330
   22TPM     C327483   9.958   8.270   7.233 -0.8359 -0.1609 -0.1186
   22TPM     C427484   9.992   8.399   7.262 -0.5062 -0.2194 -0.2418
   22TPM     S127485   9.919   8.515   7.144 -0.3403 -0.1323 -0.2595
   23BDD     C127486  10.047   8.538   7.624 -0.0706  0.0289 -0.0130
   23BDD     C227487  10.160   8.467   7.594 -0.0331  0.0668  0.0372
   23BDD     C327488  10.158   8.410   7.460  0.1504  0.2701 -0.0541
   23BDD     C427489  10.044   8.438   7.391  0.2503  0.3846 -0.1729
   23BDD     S127490   9.930   8.538   7.488  0.1214  0.2453 -0.1785
   23BDD     C527491  10.273   8.449   7.687 -0.1647 -0.0827  0.1712
   23BDD     C627492  10.269   8.329   7.407  0.2203  0.3438 -0.0203
   23BDD     O127493  10.268   8.279   7.292  0.3786  0.5193 -0.0989
   23BDD     O227494  10.275   8.499   7.802 -0.3233 -0.2584  0.2499
   23BDD     C727495  10.383   8.311   7.500  0.0885  0.1943  0.1136
   23BDD     C827496  10.385   8.368   7.633 -0.0954 -0.0093  0.2049
   23BDD     C927497  10.499   8.340   7.703 -0.1953 -0.1235  0.3235
   23BDD     S227498  10.612   8.240   7.606 -0.0662  0.0156  0.3292
   23BDD    C1027499  10.496   8.240   7.469  0.1259  0.2322  0.1639
   23BDD    C1127500  10.568   8.187   7.339 -0.1559  0.3104  0.0234
   23BDD    C1227501  10.677   8.246   7.257  0.4374 -0.6282  0.5867
   23BDD    C1327502  10.728   8.142   7.162 -0.3655 -0.4571  0.6929
   23BDD    C1427503  10.825   8.157   7.036 -1.8143  0.5474  0.2131
   23BDD    C1527504  10.881   8.031   6.977 -1.8158  1.0657  0.2917
   23BDD    C1627505  11.002   8.083   6.896  0.4042  0.5841  0.8596
   23BDD    C1727506  10.722   8.398   7.256  1.2092 -0.5391 -0.7242
   23BDD    C1827507  10.704   8.493   7.135  1.3465  1.4435  0.2015
   23BDD    C1927508  10.551   8.374   7.839 -0.5301 -0.3818  1.0967
   23BDD    C2027509  10.512   8.274   7.951 -0.7646  0.9769 -0.0264
   23BDD    C2127510  10.546   8.112   7.917 -0.7000  0.8227 -0.8780
   23BDD    C2227511  10.500   8.015   8.022 -1.0185  0.0257  0.9236
   23BDD    C2327512  10.553   7.875   7.981 -0.3278 -0.9654 -0.6111
   23BDD    C2427513  10.654   7.827   8.086 -0.3157 -1.5312  0.8097
   23BDD    C2527514  10.548   8.332   8.086  1.0880  1.7093 -0.0222
   23BDD    C2627515  10.692   8.335   8.145  0.9756 -0.2395 -0.5773
   24TPM     C127516   9.983   8.617   7.730 -0.0262 -0.2199  0.6581
   24TPM     C227517   9.963   8.559   7.852 -0.3793 -0.2916  0.5695
   24TPM     C327518   9.859   8.621   7.930 -0.6208 -0.3512  0.2979
   24TPM     C427519   9.800   8.727   7.867 -0.4518 -0.3254  0.1795
   24TPM     S127520   9.871   8.756   7.704  0.0290 -0.2231  0.4036
   25BDTP    C127521   9.471   9.157   8.193 -0.2742  0.2203 -0.0603
   25BDTP    C227522   9.437   9.189   8.058  0.0024  0.3412 -0.1040
   25BDTP    C327523   9.481   9.114   7.950  0.1438  0.3798 -0.0741
   25BDTP    C427524   9.563   9.003   7.975  0.0067  0.2956  0.0029
   25BDTP    C527525   9.597   8.971   8.109 -0.2699  0.1748  0.0467
   25BDTP    C627526   9.553   9.045   8.218 -0.4113  0.1360  0.0163
   25BDTP    C727527   9.620   8.911   7.879  0.1106  0.3148  0.0467
   25BDTP    C827528   9.695   8.813   7.934 -0.0720  0.2153  0.1199
   25BDTP    S127529   9.704   8.823   8.115 -0.4015  0.0839  0.1438
   25BDTP    C927530   9.414   9.249   8.289 -0.3781  0.2012 -0.1044
   25BDTP   C1027531   9.339   9.347   8.233 -0.1955  0.3004 -0.1776
   25BDTP    S227532   9.330   9.337   8.052  0.1341  0.4321 -0.2016
   26FTM     S127533   9.557   9.314   7.761  0.5295 -0.5456 -0.2055
   26FTM     C127534   9.485   9.286   7.599  0.4749 -0.2346 -0.2376
   26FTM     C227535   9.410   9.173   7.601 -0.1512  0.1738 -0.2280
   26FTM     C327536   9.403   9.103   7.726 -0.6154  0.2682 -0.1962
   26FTM     C427537   9.476   9.165   7.823 -0.3356 -0.0801 -0.1807
   26FTM     F127538   9.342   9.125   7.489 -0.3409  0.4873 -0.2478
   26FTM     C527539   9.473   9.401   7.492  0.5633  0.4625 -0.8069
   26FTM     C627540   9.593   9.425   7.396  0.7345 -0.7068  1.5158
   26FTM     C727541   9.517   9.457   7.258  0.8641 -0.1585  0.3270
   26FTM     C827542   9.497   9.332   7.167  0.0932 -0.0714  1.2074
   26FTM     C927543   9.473   9.341   7.018  0.5084  0.3504 -1.3832
   26FTM    C1027544   9.391   9.216   6.961  0.1400 -0.1069  1.1640
   26FTM    C1127545   9.720   9.502   7.433  0.1544 -0.2646  1.1407
   26FTM    C1227546   9.714   9.649   7.481  0.0372  0.1527  0.3154
   27FTM     S127547   9.756   9.058   8.428 -0.3187  0.5490 -0.6161
   27FTM     C127548   9.720   8.956   8.572  0.0102  0.0703 -0.8686
   27FTM     C227549   9.601   8.892   8.554  0.2615 -0.3490 -1.0676
   27FTM     C327550   9.533   8.918   8.431  0.2146 -0.3242 -1.0366
   27FTM     C427551   9.601   9.004   8.351 -0.0816  0.1287 -0.8067
   27FTM     F127552   9.547   8.806   8.649  0.5484 -0.7803 -1.2894
   27FTM     C527553   9.826   8.926   8.692 -0.0979  0.2817  0.0794
   27FTM     C627554   9.948   9.003   8.721 -0.3342 -1.5268 -0.4855
   27FTM     C727555   9.982   9.022   8.871  0.2858 -0.2779 -0.3704
   27FTM     C827556   9.983   8.899   8.958  0.2964 -0.6960  2.0389
   27FTM     C927557  10.085   8.885   9.062  0.3765 -1.3795 -0.4069
   27FTM    C1027558  10.132   8.762   9.139 -0.5538  0.2913  0.1548
   27FTM    C1127559  10.034   9.025   8.594  0.0815  0.1233  0.8567
   27FTM    C1227560  10.180   9.050   8.613  0.0052 -0.6472 -0.1468
   28TPM     C127561   9.264   9.458   8.303  0.1655  0.5489 -0.1583
   28TPM     C227562   9.317   9.541   8.397  0.5751  0.9003 -0.6890
   28TPM     C327563   9.228   9.648   8.435  0.7975  1.1277 -0.8061
   28TPM     C427564   9.108   9.646   8.370  0.5578  0.9496 -0.3648
   28TPM     S127565   9.097   9.508   8.255  0.0282  0.4777  0.2376
   29BDD     C127566   8.822   9.917   8.370  0.4822 -0.2872 -0.3577
   29BDD     C227567   8.833   9.873   8.499  0.4489 -0.2947 -0.3579
   29BDD     C327568   8.931   9.768   8.517  0.4475 -0.2928 -0.3376
   29BDD     C427569   8.995   9.733   8.401  0.4797 -0.2841 -0.3224
   29BDD     S127570   8.936   9.829   8.261  0.5140 -0.2773 -0.3328
   29BDD     C527571   8.752   9.926   8.611  0.4172 -0.3040 -0.3757
   29BDD     C627572   8.959   9.705   8.648  0.4141 -0.3002 -0.3335
   29BDD     O127573   9.044   9.615   8.663  0.4127 -0.2983 -0.3159
   29BDD     O227574   8.667  10.016   8.596  0.4187 -0.3059 -0.3932
   29BDD     C727575   8.878   9.758   8.760  0.3824 -0.3092 -0.3521
   29BDD     C827576   8.780   9.863   8.742  0.3841 -0.3111 -0.3724
   29BDD     C927577   8.716   9.898   8.858  0.3519 -0.3202 -0.3872
   29BDD     S227578   8.775   9.802   8.997  0.3175 -0.3268 -0.3768
   29BDD    C1027579   8.888   9.715   8.889  0.3493 -0.3169 -0.3519
   29BDD    C1127580   8.963   9.591   8.965  0.5366 -0.4992 -0.5642
   29BDD    C1227581   9.081   9.642   9.058 -0.3407  0.2769  0.3767
   29BDD    C1327582   9.164   9.761   8.989  1.2419  0.2807  1.2998
   29BDD    C1427583   9.108   9.897   9.007 -0.0961 -1.4629 -0.9737
   29BDD    C1527584   9.210  10.015   8.950  0.2593  1.0227 -0.5823
   29BDD    C1627585   9.149  10.154   8.949 -0.1317  1.1220  0.9334
   29BDD    C1727586   9.149   9.522   9.147 -1.1645 -0.6182 -0.0532
   29BDD    C1827587   9.172   9.573   9.290 -0.3486 -0.3372  0.3683
   29BDD    C1927588   8.614  10.009   8.902  0.4598 -0.6554  1.7988
   29BDD    C2027589   8.662  10.140   8.966  0.1377  0.6703 -0.2073
   29BDD    C2127590   8.727  10.130   9.110 -0.0650 -1.4161 -0.3098
   29BDD    C2227591   8.812  10.243   9.146 -0.8683 -0.2538 -0.2536
   29BDD    C2327592   8.876  10.234   9.281 -0.8058  0.5392  0.4465
   29BDD    C2427593   9.002  10.322   9.285  0.2564 -0.0873  1.2363
   29BDD    C2527594   8.571  10.255   8.926  1.6831 -0.1643 -0.3902
   29BDD    C2627595   8.523  10.288   8.783  0.6398  0.5499  0.1158
   30TPM     C127596   8.732  10.013   8.296 -0.4517 -0.1839 -0.0768
   30TPM     C227597   8.604  10.045   8.331 -0.2367  0.2916  0.3049
   30TPM     C327598   8.531  10.114   8.228 -0.2267  0.7453  0.5975
   30TPM     C427599   8.603  10.136   8.114 -0.4338  0.6150  0.4394
   30TPM     S127600   8.770  10.069   8.129 -0.6598 -0.0955 -0.0962
   31BDTP    C127601   8.462  10.427   7.581  0.0248 -0.0372 -0.1624
   31BDTP    C227602   8.480  10.293   7.538 -0.1092 -0.0670 -0.1256
   31BDTP    C327603   8.506  10.189   7.627 -0.1323 -0.0551 -0.1051
   31BDTP    C427604   8.515  10.219   7.764 -0.0181 -0.0122 -0.1215
   31BDTP    C527605   8.497  10.354   7.806  0.1159  0.0179 -0.1582
   31BDTP    C627606   8.471  10.458   7.718  0.1393  0.0060 -0.1788
   31BDTP    C727607   8.540  10.128   7.874 -0.0165  0.0078 -0.1056
   31BDTP    C827608   8.543  10.188   7.995  0.1106  0.0505 -0.1284
   31BDTP    S127609   8.512  10.367   7.988  0.2465  0.0715 -0.1732
   31BDTP    C927610   8.437  10.518   7.471  0.0234 -0.0570 -0.1783
   31BDTP   C1027611   8.435  10.459   7.349 -0.1037 -0.0994 -0.1554
   31BDTP    S227612   8.465  10.279   7.357 -0.2397 -0.1207 -0.1108
   32FTM     S127613   8.408   9.966   7.463 -0.5179  0.2554  0.4890
   32FTM     C127614   8.490   9.808   7.489 -0.4697  0.1045 -0.5160
   32FTM     C227615   8.595   9.824   7.574 -0.1762 -0.3219 -0.7883
   32FTM     C327616   8.617   9.956   7.624  0.0243 -0.5515 -0.2451
   32FTM     C427617   8.526  10.045   7.575 -0.1204 -0.2927  0.4664
   32FTM     F127618   8.677   9.719   7.613 -0.0718 -0.5295 -1.5454
   32FTM     C527619   8.463   9.686   7.407  1.0280  0.9442 -0.3585
   32FTM     C627620   8.372   9.699   7.281  0.4748  0.6766  1.1871
   32FTM     C727621   8.249   9.792   7.266 -0.0922  0.2272 -0.7607
   32FTM     C827622   8.137   9.844   7.162  0.1650  0.3818 -0.3623
   32FTM     C927623   8.180   9.925   7.043 -0.2376  0.6979  0.9219
   32FTM    C1027624   8.329   9.992   7.022  0.5193 -0.5760  0.3202
   32FTM    C1127625   8.339   9.572   7.210  1.7236  0.0356 -0.7822
   32FTM    C1227626   8.436   9.488   7.139  0.3365 -0.6720  0.3541
   33FTM     S127627   8.528  10.732   7.734 -0.0479 -0.1201  0.0372
   33FTM     C127628   8.401  10.841   7.802 -0.0092 -0.0705  0.0300
   33FTM     C227629   8.297  10.768   7.849 -0.0873 -0.0257 -0.0696
   33FTM     C327630   8.309  10.626   7.837 -0.1793 -0.0274 -0.1442
   33FTM     C427631   8.427  10.589   7.777 -0.1717 -0.0750 -0.1007
   33FTM     F127632   8.185  10.825   7.907 -0.0799  0.0191 -0.0988
   33FTM     C527633   8.453  10.998   7.786  0.2223  2.1007 -0.6204
   33FTM     C627634   8.453  11.061   7.647  0.6204  0.1681 -0.8989
   33FTM     C727635   8.577  11.132   7.595 -0.7583 -1.2654 -0.3514
   33FTM     C827636   8.717  11.067   7.570  1.0833  1.2336  0.5973
   33FTM     C927637   8.704  10.937   7.486 -0.6351 -0.1336  0.3709
   33FTM    C1027638   8.708  10.973   7.345  0.3375  0.4105  0.4445
   33FTM    C1127639   8.310  11.096   7.596  0.6231  0.2127 -0.5351
   33FTM    C1227640   8.284  11.061   7.443  0.8816  0.5159 -0.1811
   34TPM     C127641   8.357  10.532   7.242 -0.2272 -0.1158  0.2370
   34TPM     C227642   8.262  10.629   7.253 -0.3729 -0.2570  0.2238
   34TPM     C327643   8.180  10.643   7.136 -0.1810 -0.1745  0.0985
   34TPM     C427644   8.212  10.557   7.035  0.1105  0.0295  0.0164
   34TPM     S127645   8.350  10.450   7.081  0.1663  0.1339  0.0913
   35BDD     C127646   7.975  10.386   6.764 -0.2357 -0.2996 -0.3819
   35BDD     C227647   7.964  10.521   6.744 -0.1351 -0.2859 -0.3487
   35BDD     C327648   8.044  10.600   6.836 -0.1795 -0.3643 -0.2428
   35BDD     C427649   8.115  10.524   6.925 -0.3134 -0.4362 -0.1968
   35BDD     S127650   8.087  10.349   6.900 -0.3932 -0.4108 -0.2830
   35BDD     C527651   7.880  10.582   6.640  0.0057 -0.2005 -0.4132
   35BDD     C627652   8.047  10.748   6.833 -0.0880 -0.3645 -0.1910
   35BDD     O127653   8.116  10.816   6.912 -0.1264 -0.4320 -0.0997
   35BDD     O227654   7.811  10.514   6.560  0.0440 -0.1330 -0.5045
   35BDD     C727655   7.962  10.809   6.728  0.0529 -0.2794 -0.2555
   35BDD     C827656   7.883  10.730   6.636  0.0976 -0.2012 -0.3613
   35BDD     C927657   7.812  10.806   6.547  0.2315 -0.1290 -0.4073
   35BDD     S227658   7.840  10.981   6.572  0.3110 -0.1543 -0.3211
   35BDD    C1027659   7.951  10.944   6.708  0.1535 -0.2656 -0.2221
   35BDD    C1127660   8.011  11.081   6.754  0.2729 -0.2120 -0.8153
   35BDD    C1227661   7.914  11.191   6.797  0.8348 -0.9880  0.5624
   35BDD    C1327662   7.860  11.274   6.676  0.8679  1.1932  0.6036
   35BDD    C1427663   7.757  11.378   6.706  0.7113 -0.3841  0.7175
   35BDD    C1527664   7.670  11.446   6.579 -0.6876  0.4906 -1.2301
   35BDD    C1627665   7.738  11.493   6.446  2.0201  0.5560 -1.8674
   35BDD    C1727666   7.958  11.285   6.908 -2.0221 -0.6384  0.4291
   35BDD    C1827667   7.887  11.230   7.026 -1.2230 -1.3392 -0.6675
   35BDD    C1927668   7.697  10.787   6.452 -1.2952  0.2417 -0.5063
   35BDD    C2027669   7.734  10.839   6.312 -0.0293  0.4509  0.1414
   35BDD    C2127670   7.868  10.793   6.271  0.1260  0.1014  0.6440
   35BDD    C2227671   7.953  10.832   6.133 -0.4337 -2.0628 -0.2644
   35BDD    C2327672   7.997  10.992   6.135  0.0945  0.7798 -1.0193
   35BDD    C2427673   8.068  11.051   6.257 -0.4899  1.5847 -0.8146
   35BDD    C2527674   7.619  10.819   6.196 -0.4017 -0.4835 -0.7849
   35BDD    C2627675   7.475  10.874   6.215 -0.6782  0.0817 -0.9586
   36TPM     C127676   7.914  10.260   6.709  0.0738 -0.0395  0.0032
   36TPM     C227677   7.887  10.163   6.801  0.3859 -0.2992 -0.1757
   36TPM     C327678   7.793  10.063   6.754  0.5611 -0.4103 -0.2919
   36TPM     C427679   7.749  10.085   6.627  0.3826 -0.2356 -0.2018
   36TPM     S127680   7.822  10.233   6.556 -0.0237  0.0856  0.0391
   37BDTP    C127681   7.344   9.707   6.316  0.3463 -0.3078 -0.0722
   37BDTP    C227682   7.461   9.625   6.324  0.3731 -0.2856 -0.2209
   37BDTP    C327683   7.577   9.666   6.388  0.3580 -0.3633 -0.1420
   37BDTP    C427684   7.579   9.794   6.445  0.3145 -0.4683  0.0944
   37BDTP    C527685   7.463   9.876   6.437  0.2877 -0.4907  0.2432
   37BDTP    C627686   7.346   9.835   6.374  0.3026 -0.4126  0.1643
   37BDTP    C727687   7.688   9.859   6.516  0.2918 -0.5623  0.2155
   37BDTP    C827688   7.659   9.984   6.561  0.2495 -0.6526  0.4450
   37BDTP    S127689   7.490  10.037   6.519  0.2328 -0.6318  0.5401
   37BDTP    C927690   7.235   9.642   6.245  0.3690 -0.2139 -0.1934
   37BDTP   C1027691   7.264   9.518   6.201  0.4110 -0.1235 -0.4230
   37BDTP    S227692   7.433   9.464   6.242  0.4276 -0.1442 -0.5178
   38FTM     S127693   7.745   9.496   6.547  0.3950  0.0834  0.1506
   38FTM     C127694   7.877   9.411   6.460  0.2673  0.5312 -0.4916
   38FTM     C227695   7.871   9.440   6.327  0.0924  1.2491 -0.3355
   38FTM     C327696   7.765   9.528   6.286  0.0480  1.4889  0.2782
   38FTM     C427697   7.688   9.568   6.391  0.1939  0.9363  0.6026
   38FTM     F127698   7.960   9.388   6.234 -0.0381  1.7321 -0.7390
   38FTM     C527699   7.993   9.357   6.547 -0.8381 -0.3119 -0.0587
   38FTM     C627700   8.076   9.451   6.644 -0.7326  0.5146  0.3790
   38FTM     C727701   8.151   9.538   6.540  0.8059  0.0717  0.6335
   38FTM     C827702   8.162   9.693   6.548 -0.0340 -1.1271  1.5467
   38FTM     C927703   8.145   9.754   6.399 -0.0558  0.9792 -0.0846
   38FTM    C1027704   8.006   9.825   6.401 -1.1791 -0.1602  0.5980
   38FTM    C1127705   8.153   9.373   6.743 -0.5914 -0.6500  0.8586
   38FTM    C1227706   8.226   9.434   6.855 -0.3616  0.3819 -0.4524
   39FTM     S127707   7.241  10.096   6.284 -0.1404 -0.0333 -0.3208
   39FTM     C127708   7.063  10.116   6.300 -0.2025 -0.5048 -0.3802
   39FTM     C227709   7.009  10.005   6.356  0.1698 -0.3669  0.2813
   39FTM     C327710   7.100   9.900   6.389  0.5178  0.1030  0.8607
   39FTM     C427711   7.228   9.931   6.357  0.4083  0.3318  0.6355
   39FTM     F127712   6.873   9.992   6.380  0.2178 -0.6573  0.4016
   39FTM     C527713   6.998  10.239   6.254  0.3344  0.6084  0.7840
   39FTM     C627714   7.074  10.378   6.236  0.3261  1.2234 -0.7602
   39FTM     C727715   7.124  10.437   6.368  0.5162 -0.2223  0.6507
   39FTM     C827716   7.175  10.578   6.366  0.4362 -0.0493  0.3478
   39FTM     C927717   7.243  10.579   6.496 -0.0000 -0.8807 -1.2910
   39FTM    C1027718   7.389  10.550   6.530 -0.1968 -0.6292  0.2859
   39FTM    C1127719   7.133  10.400   6.099  1.5115 -0.3271 -0.4934
   39FTM    C1227720   7.277  10.417   6.074 -0.3793  0.1507 -0.5248
   40TPM     C127721   7.171   9.409   6.161  0.0115  0.2214  0.7192
   40TPM     C227722   7.209   9.295   6.095  0.3405 -0.1478  1.5241
   40TPM     C327723   7.107   9.193   6.093  0.4948 -0.3142  1.9128
   40TPM     C427724   6.992   9.229   6.157  0.2836 -0.0719  1.4046
   40TPM     S127725   7.003   9.396   6.225 -0.1301  0.3886  0.3877
   41BDD     C127726   6.622   9.088   6.143 -0.1642  0.0132  0.1366
   41BDD     C227727   6.700   8.977   6.152 -0.1557  0.0179  0.1205
   41BDD     C327728   6.843   9.006   6.152 -0.1562  0.0184 -0.0089
   41BDD     C427729   6.871   9.139   6.141 -0.1651  0.0139 -0.0897
   41BDD     S127730   6.721   9.238   6.132 -0.1736  0.0095 -0.0092
   41BDD     C527731   6.647   8.839   6.162 -0.1466  0.0215  0.2236
   41BDD     C627732   6.945   8.900   6.161 -0.1476  0.0224 -0.0477
   41BDD     O127733   7.068   8.925   6.160 -0.1481  0.0229 -0.1593
   41BDD     O227734   6.524   8.814   6.163 -0.1463  0.0210  0.3353
   41BDD     C727735   6.892   8.762   6.171 -0.1386  0.0267  0.0554
   41BDD     C827736   6.750   8.733   6.172 -0.1383  0.0260  0.1849
   41BDD     C927737   6.721   8.600   6.182 -0.1291  0.0305  0.2656
   41BDD     S227738   6.871   8.501   6.191 -0.1207  0.0351  0.1852
   41BDD    C1027739   6.970   8.650   6.181 -0.1299  0.0315  0.0393
   41BDD    C1127740   7.123   8.621   6.208  1.7598  0.5351 -0.5671
   41BDD    C1227741   7.166   8.627   6.362 -0.1804 -0.3304  0.0025
   41BDD    C1327742   7.068   8.550   6.456 -0.1242  1.0674  0.7951
   41BDD    C1427743   7.016   8.560   6.604 -0.5003  0.4649 -0.4736
   41BDD    C1527744   7.004   8.697   6.687 -1.2189 -0.5021 -0.0880
   41BDD    C1627745   7.074   8.834   6.639  0.8779 -1.1224 -0.2871
   41BDD    C1727746   7.310   8.600   6.376 -0.5327 -0.5551 -0.5844
   41BDD    C1827747   7.381   8.668   6.507  0.3816 -0.1950 -0.0192
   41BDD    C1927748   6.590   8.526   6.179 -0.6159 -1.1133 -0.1824
   41BDD    C2027749   6.551   8.453   6.048 -2.0839  0.0110  0.7521
   41BDD    C2127750   6.631   8.324   6.044  0.7179  0.0910  0.2892
   41BDD    C2227751   6.619   8.235   5.911 -0.3956 -0.4149 -1.0060
   41BDD    C2327752   6.717   8.132   5.896  0.0073  0.7978  0.1788
   41BDD    C2427753   6.658   7.996   5.934  0.6632 -1.5262  0.8847
   41BDD    C2527754   6.558   8.555   5.926 -0.8759  0.6065  0.7128
   41BDD    C2627755   6.404   8.598   5.901 -1.1601  0.6429  0.3481
   42TPM     C127756   6.486   9.112   6.143 -0.5866 -0.0134  0.0194
   42TPM     C227757   6.429   9.208   6.222 -0.6150  0.0379 -0.0626
   42TPM     C327758   6.285   9.208   6.219 -0.6135  0.0415 -0.1214
   42TPM     C427759   6.232   9.113   6.137 -0.5840 -0.0067 -0.0838
   42TPM     S127760   6.361   9.014   6.058 -0.5559 -0.0612  0.0292
   43BDTP    C127761   5.716   8.770   6.078  0.4141 -0.1924  0.4110
   43BDTP    C227762   5.711   8.817   6.213  0.1473  0.0949  0.3051
   43BDTP    C327763   5.801   8.910   6.263 -0.0482  0.3192  0.2446
   43BDTP    C427764   5.901   8.959   6.176  0.0225  0.2577  0.2903
   43BDTP    C527765   5.905   8.913   6.042  0.2894 -0.0291  0.3961
   43BDTP    C627766   5.815   8.820   5.992  0.4849 -0.2536  0.4569
   43BDTP    C727767   6.005   9.056   6.205 -0.1451  0.4546  0.2429
   43BDTP    C827768   6.086   9.083   6.100 -0.0187  0.3304  0.3076
   43BDTP    S127769   6.042   8.991   5.950  0.3306 -0.0532  0.4373
   43BDTP    C927770   5.611   8.674   6.049  0.5819 -0.3889  0.4584
   43BDTP   C1027771   5.530   8.646   6.154  0.4555 -0.2649  0.3939
   43BDTP    S227772   5.574   8.739   6.305  0.1063  0.1187  0.2641
   44FTM     S127773   5.628   9.012   6.479  0.4371 -0.5048  0.0839
   44FTM     C127774   5.713   9.028   6.637  0.7338  0.7097 -0.1764
   44FTM     C227775   5.845   8.995   6.622  0.8508  1.2226 -0.2959
   44FTM     C327776   5.886   8.957   6.490  0.7201  0.7145 -0.1948
   44FTM     C427777   5.783   8.961   6.401  0.4960 -0.2178  0.0090
   44FTM     F127778   5.935   8.998   6.727  1.0831  2.1822 -0.5038
   44FTM     C527779   5.641   9.082   6.762  0.3326  0.5278 -0.2798
   44FTM     C627780   5.541   9.001   6.847  1.0713 -0.0572  1.0716
   44FTM     C727781   5.488   9.076   6.975  0.3583 -0.5458 -0.4327
   44FTM     C827782   5.587   9.122   7.085  0.6413  1.0102 -1.8350
   44FTM     C927783   5.588   9.054   7.224 -1.8262 -0.0156  0.5220
   44FTM    C1027784   5.485   9.084   7.307 -1.2841  0.8076 -0.8745
   44FTM    C1127785   5.593   8.853   6.872 -0.2754 -0.8930 -0.1883
   44FTM    C1227786   5.508   8.755   6.954  0.4976  1.6424  0.1303
   45FTM     S127787   5.875   8.588   5.863  0.0554  0.2574  0.1602
   45FTM     C127788   5.848   8.569   5.686  0.0507  0.3819  0.1471
   45FTM     C227789   5.800   8.685   5.634 -0.5314  0.2346  0.3400
   45FTM     C327790   5.782   8.793   5.726 -0.9981  0.0210  0.5056
   45FTM     C427791   5.817   8.759   5.853 -0.7657  0.0041  0.4374
   45FTM     F127792   5.769   8.700   5.499 -0.6763  0.2847  0.3779
   45FTM     C527793   5.888   8.442   5.614  0.9036 -0.2480  0.1761
   45FTM     C627794   5.842   8.297   5.639  0.2272 -0.7307  0.5979
   45FTM     C727795   5.898   8.248   5.776  1.1573  0.0229  0.1514
   45FTM     C827796   6.043   8.243   5.790 -0.8133  0.0608 -0.8048
   45FTM     C927797   6.140   8.178   5.687  1.5351  0.1052 -0.6887
   45FTM    C1027798   6.100   8.063   5.600 -1.0869 -0.9065 -1.5439
   45FTM    C1127799   5.686   8.302   5.610  0.6939 -0.8787 -0.3198
   45FTM    C1227800   5.611   8.187   5.674 -0.2375 -0.0805  1.2636
   46TPM     C127801   5.444   8.530   6.159  0.0390 -0.1912 -1.4655
   46TPM     C227802   5.501   8.406   6.169  0.5611  0.0854 -0.9199
   46TPM     C327803   5.413   8.306   6.225  1.1792  0.0794  0.0935
   46TPM     C427804   5.289   8.354   6.257  1.1286 -0.2017  0.3206
   46TPM     S127805   5.274   8.529   6.219  0.2897 -0.4832 -0.7360
   47BDD     C127806   5.036   8.056   6.315 -0.1532 -0.0754  0.1645
   47BDD     C227807   4.985   8.162   6.384 -0.2054 -0.0648  0.1099
   47BDD     C327808   5.063   8.283   6.372 -0.3275 -0.0010 -0.0466
   47BDD     C427809   5.174   8.268   6.293 -0.3666  0.0368 -0.1092
   47BDD     S127810   5.188   8.101   6.229 -0.2533 -0.0055  0.0237
   47BDD     C527811   4.861   8.156   6.465 -0.1448 -0.1135  0.1997
   47BDD     C627812   5.026   8.410   6.438 -0.4009  0.0207 -0.1286
   47BDD     O127813   5.094   8.515   6.428 -0.5063  0.0761 -0.2636
   47BDD     O227814   4.793   8.051   6.475 -0.0396 -0.1690  0.3346
   47BDD     C727815   4.902   8.403   6.519 -0.3405 -0.0279 -0.0390
   47BDD     C827816   4.823   8.282   6.531 -0.2183 -0.0920  0.1175
   47BDD     C927817   4.713   8.297   6.610 -0.1792 -0.1295  0.1802
   47BDD     S227818   4.699   8.465   6.674 -0.2926 -0.0875  0.0475
   47BDD    C1027819   4.850   8.509   6.588 -0.3927 -0.0174 -0.0935
   47BDD    C1127820   4.891   8.652   6.624  0.0295 -0.0738 -0.8243
   47BDD    C1227821   4.857   8.766   6.537  0.3990 -0.7910  0.4468
   47BDD    C1327822   4.701   8.806   6.530 -0.2410 -0.1654 -1.1393
   47BDD    C1427823   4.598   8.742   6.451 -0.6992 -0.0304  0.0710
   47BDD    C1527824   4.450   8.781   6.459 -0.5462  0.8250  0.7718
   47BDD    C1627825   4.406   8.912   6.395  0.9533  0.7422 -0.2003
   47BDD    C1727826   4.913   8.777   6.388  0.2980 -0.7738 -0.3788
   47BDD    C1827827   5.044   8.830   6.340 -0.5848  0.0822  1.1749
   47BDD    C1927828   4.578   8.224   6.606  0.3223 -0.7177 -0.1453
   47BDD    C2027829   4.514   8.193   6.474 -0.7306  0.9511 -0.6171
   47BDD    C2127830   4.510   8.311   6.371 -0.4632  1.3314  1.2981
   47BDD    C2227831   4.545   8.271   6.228 -1.8766  0.7217 -0.6486
   47BDD    C2327832   4.591   8.390   6.156  0.3823  0.6840  0.2529
   47BDD    C2427833   4.726   8.362   6.075  0.4509 -0.3021 -0.6556
   47BDD    C2527834   4.371   8.128   6.490 -1.6128  1.4664  0.3678
   47BDD    C2627835   4.362   7.983   6.536  0.9429  0.7782 -0.2838
   48TPM     C127836   4.992   7.918   6.282  0.1275 -0.2479 -0.6396
   48TPM     C227837   4.918   7.902   6.169  0.1014 -0.5822 -0.5780
   48TPM     C327838   4.917   7.767   6.118 -0.0261 -0.7646 -0.1022
   48TPM     C427839   4.991   7.680   6.193 -0.0972 -0.5694  0.1992
   48TPM     S127840   5.068   7.763   6.334 -0.0080 -0.1370 -0.0971
   49BDTP    C127841   4.874   7.067   6.116  0.0743  0.1787 -0.0110
   49BDTP    C227842   4.849   7.123   5.987 -0.0852  0.0145 -0.0526
   49BDTP    C327843   4.868   7.257   5.959 -0.1751 -0.0099 -0.2327
   49BDTP    C427844   4.913   7.341   6.062 -0.1049  0.1340 -0.3793
   49BDTP    C527845   4.938   7.285   6.191  0.0544  0.2984 -0.3378
   49BDTP    C627846   4.919   7.151   6.219  0.1443  0.3227 -0.1577
   49BDTP    C727847   4.940   7.483   6.057 -0.1745  0.1403 -0.5768
   49BDTP    C827848   4.984   7.536   6.174 -0.0764  0.2992 -0.6844
   49BDTP    S127849   4.996   7.413   6.307  0.1179  0.4636 -0.5506
   49BDTP    C927850   4.847   6.925   6.121  0.1438  0.1726  0.1864
   49BDTP   C1027851   4.803   6.872   6.004  0.0457  0.0135  0.2941
   49BDTP    S227852   4.791   6.995   5.871 -0.1488 -0.1506  0.1601
   50FTM     S127853   4.979   7.359   5.698 -0.6319  0.6175  0.3178
   50FTM     C127854   4.856   7.389   5.570 -1.0462  0.1432  0.5935
   50FTM     C227855   4.731   7.371   5.620 -0.8643 -0.3860  0.8656
   50FTM     C327856   4.723   7.332   5.758 -0.4030 -0.4529  0.8762
   50FTM     C427857   4.847   7.321   5.815 -0.2258  0.0409  0.6033
   50FTM     F127858   4.616   7.387   5.544 -1.1048 -0.8408  1.1215
   50FTM     C527859   4.914   7.481   5.465 -0.2877  0.6450  0.3983
   50FTM     C627860   4.952   7.621   5.478  0.1696 -0.9914 -0.3585
   50FTM     C727861   5.027   7.672   5.606 -0.8651  0.0864  0.9881
   50FTM     C827862   5.169   7.632   5.614 -0.2929 -0.8953 -0.8543
   50FTM     C927863   5.248   7.678   5.736 -0.9318 -0.0810  1.4773
   50FTM    C1027864   5.401   7.692   5.674 -0.4110 -0.6413 -0.1559
   50FTM    C1127865   4.853   7.744   5.467  0.0824  0.4727  1.1059
   50FTM    C1227866   4.783   7.777   5.333  0.1356 -0.6157 -1.1323
   51FTM     S127867   5.047   6.950   6.385 -0.7806 -0.1567  0.0959
   51FTM     C127868   5.011   6.964   6.561 -0.5142 -0.0447  0.1428
   51FTM     C227869   4.930   7.071   6.584 -0.5151 -0.0558  0.1919
   51FTM     C327870   4.892   7.147   6.468 -0.7185 -0.1495  0.1961
   51FTM     C427871   4.946   7.097   6.353 -0.8781 -0.2124  0.1485
   51FTM     F127872   4.885   7.107   6.710 -0.3324  0.0184  0.2360
   51FTM     C527873   5.032   6.851   6.653 -0.8507  0.6337  0.9669
   51FTM     C627874   5.150   6.740   6.643  0.3406  0.6510  0.4810
   51FTM     C727875   5.121   6.615   6.744 -0.2532  0.5026  0.2425
   51FTM     C827876   5.078   6.482   6.694  1.2089 -0.0837  0.2173
   51FTM     C927877   5.068   6.411   6.817 -0.7350 -0.5945  1.0197
   51FTM    C1027878   4.963   6.305   6.804  0.2633  0.5258  0.7325
   51FTM    C1127879   5.290   6.797   6.656  0.3023 -0.0302 -0.3401
   51FTM    C1227880   5.356   6.880   6.542  0.7667 -0.2989 -0.7569
   52TPM     C127881   4.772   6.737   5.959  1.0002 -0.1079 -0.9264
   52TPM     C227882   4.728   6.712   5.832  0.7440 -0.4406 -0.7755
   52TPM     C327883   4.693   6.574   5.809  0.0482 -0.3780 -0.1512
   52TPM     C427884   4.709   6.495   5.919 -0.2263  0.0025  0.1740
   52TPM     S127885   4.771   6.588   6.060  0.3775  0.3135 -0.2867
   53BDD     C127886   4.817   6.113   5.915 -0.3795  0.0916  0.2029
   53BDD     C227887   4.691   6.121   5.861 -0.3743  0.0832  0.1894
   53BDD     C327888   4.637   6.255   5.861 -0.2910  0.1174 -0.0268
   53BDD     C427889   4.722   6.348   5.914 -0.2341  0.1513 -0.1752
   53BDD     S127890   4.875   6.274   5.969 -0.2807  0.1427 -0.0542
   53BDD     C527891   4.617   6.005   5.808 -0.4458  0.0434  0.3748
   53BDD     C627892   4.503   6.287   5.807 -0.2711  0.1153 -0.0786
   53BDD     O127893   4.456   6.403   5.807 -0.1992  0.1447 -0.2651
   53BDD     O227894   4.664   5.888   5.808 -0.5177  0.0139  0.5612
   53BDD     C727895   4.428   6.170   5.754 -0.3422  0.0755  0.1067
   53BDD     C827896   4.483   6.036   5.755 -0.4256  0.0412  0.3228
   53BDD     C927897   4.398   5.943   5.701 -0.4828  0.0073  0.4710
   53BDD     S227898   4.244   6.017   5.647 -0.4361  0.0159  0.3501
   53BDD    C1027899   4.303   6.178   5.701 -0.3371  0.0671  0.0930
   53BDD    C1127900   4.206   6.295   5.650 -0.3808  0.7360 -0.5033
   53BDD    C1227901   4.248   6.405   5.547  0.7095  0.0359  0.4534
   53BDD    C1327902   4.203   6.546   5.603  0.1410  0.1096  1.6541
   53BDD    C1427903   4.265   6.675   5.525 -0.1663  0.6771  0.5898
   53BDD    C1527904   4.408   6.677   5.528 -0.1566  0.1617 -0.5338
   53BDD    C1627905   4.454   6.750   5.404  0.6205 -0.0561 -0.1446
   53BDD    C1727906   4.232   6.353   5.408  0.3321  0.1195  0.9599
   53BDD    C1827907   4.086   6.368   5.344 -0.5658 -0.5124 -0.9958
   53BDD    C1927908   4.419   5.806   5.644 -0.8730  0.6425 -0.2730
   53BDD    C2027909   4.433   5.686   5.736  0.6143  0.3726 -0.2622
   53BDD    C2127910   4.302   5.656   5.817 -0.5662 -0.2374  0.5170
   53BDD    C2227911   4.219   5.530   5.782 -0.7691  0.9678 -0.5848
   53BDD    C2327912   4.271   5.408   5.843 -1.2937 -0.4539 -0.3159
   53BDD    C2427913   4.279   5.291   5.753 -0.3501 -2.2946 -0.8076
   53BDD    C2527914   4.527   5.572   5.683 -1.3897 -0.8219  0.3644
   53BDD    C2627915   4.523   5.524   5.533 -0.1204  0.0993 -0.9974
   54TPM     C127916   4.911   5.993   5.947  0.1543 -0.4255 -0.4662
   54TPM     C227917   5.046   6.007   5.943  0.1595 -0.3564 -0.1260
   54TPM     C327918   5.118   5.891   5.992  0.0979 -0.1392  0.4998
   54TPM     C427919   5.036   5.790   6.033  0.0459 -0.0428  0.6369
   54TPM     S127920   4.862   5.833   6.013  0.0708 -0.2202 -0.0189
   55BDTP    C127921   5.141   5.210   6.253  0.8581 -0.1459 -0.2122
   55BDTP    C227922   5.164   5.292   6.367  0.4313 -0.0867 -0.1638
   55BDTP    C327923   5.158   5.430   6.362  0.1969 -0.0969 -0.1968
   55BDTP    C427924   5.128   5.491   6.239  0.3922 -0.1693 -0.2818
   55BDTP    C527925   5.104   5.409   6.125  0.8190 -0.2289 -0.3303
   55BDTP    C627926   5.110   5.270   6.130  1.0534 -0.2185 -0.2972
   55BDTP    C727927   5.116   5.632   6.209  0.2130 -0.1937 -0.3300
   55BDTP    C827928   5.085   5.660   6.080  0.4816 -0.2676 -0.4110
   55BDTP    S127929   5.067   5.511   5.978  0.9987 -0.3165 -0.4381
   55BDTP    C927930   5.153   5.068   6.282  1.0370 -0.1215 -0.1642
   55BDTP   C1027931   5.183   5.041   6.411  0.7687 -0.0478 -0.0831
   55BDTP    S227932   5.202   5.190   6.514  0.2516  0.0014 -0.0560
   56FTM     S127933   5.016   5.473   6.598 -0.4487  0.0981 -0.2111
   56FTM     C127934   5.054   5.614   6.703 -0.5999 -0.5501  0.7477
   56FTM     C227935   5.161   5.681   6.653  0.0453 -0.7303  1.8258
   56FTM     C327936   5.219   5.628   6.533  0.6809 -0.3839  1.9686
   56FTM     C427937   5.154   5.516   6.490  0.5175  0.0768  0.9673
   56FTM     F127938   5.214   5.795   6.713  0.0981 -1.2195  2.7475
   56FTM     C527939   4.975   5.645   6.830 -0.3509 -1.0262  0.7399
   56FTM     C627940   5.035   5.580   6.957 -0.3591  0.1994  0.9428
   56FTM     C727941   4.927   5.566   7.062  0.2314 -0.8160 -1.7688
   56FTM     C827942   4.917   5.677   7.181  0.1447 -0.5888  0.7836
   56FTM     C927943   5.031   5.685   7.285  0.3702  1.3650  0.3075
   56FTM    C1027944   5.082   5.820   7.297 -0.4569 -0.3086  1.1614
   56FTM    C1127945   5.171   5.650   6.978 -0.2584 -0.2045  0.2531
   56FTM    C1227946   5.299   5.566   6.946 -0.1812  1.3019 -0.2154
   57FTM     S127947   5.236   5.245   5.883 -0.3078  0.5447 -0.0814
   57FTM     C127948   5.189   5.110   5.774  0.4925  0.1278  0.0744
   57FTM     C227949   5.088   5.038   5.831  1.4263 -0.8941  0.5126
   57FTM     C327950   5.043   5.083   5.959  1.5727 -1.4029  0.7480
   57FTM     C427951   5.111   5.193   6.002  0.7236 -0.7494  0.4818
   57FTM     F127952   5.031   4.927   5.770  2.2037 -1.4293  0.7265
   57FTM     C527953   5.280   5.083   5.651  0.4013 -0.7749 -0.4019
   57FTM     C627954   5.233   5.021   5.531  0.1614  0.5491 -0.5747
   57FTM     C727955   5.344   4.997   5.439  0.1286  0.6550  0.9883
   57FTM     C827956   5.318   4.878   5.330 -1.4158  0.2556  0.5055
   57FTM     C927957   5.290   4.741   5.385 -0.4133  0.0364  0.6870
   57FTM    C1027958   5.393   4.681   5.471 -0.4984 -0.8859 -1.2376
   57FTM    C1127959   5.101   5.072   5.480 -0.8286 -1.8641  0.3054
   57FTM    C1227960   5.008   4.981   5.403  0.1545  0.0204 -0.7612
   58TPM     C127961   5.171   4.907   6.472  0.0857 -0.2356 -0.1779
   58TPM     C227962   5.246   4.883   6.584  0.3951 -0.2537 -0.3868
   58TPM     C327963   5.271   4.743   6.607  0.5327 -0.2531 -0.5232
   58TPM     C427964   5.215   4.661   6.514  0.3283 -0.2346 -0.4185
   58TPM     S127965   5.126   4.754   6.388 -0.0569 -0.2162 -0.1370
   59BDD     C127966   5.092   4.295   6.528  0.1552 -0.2851  0.1221
   59BDD     C227967   5.217   4.293   6.583  0.1702 -0.2263  0.0908
   59BDD     C327968   5.282   4.423   6.584  0.0787 -0.1802  0.1436
   59BDD     C427969   5.206   4.522   6.528 -0.0047 -0.2046  0.2142
   59BDD     S127970   5.048   4.459   6.472  0.0257 -0.2868  0.2196
   59BDD     C527971   5.281   4.171   6.638  0.2688 -0.2103  0.0114
   59BDD     C627972   5.418   4.444   6.639  0.0771 -0.1140  0.1222
   59BDD     O127973   5.474   4.556   6.639 -0.0018 -0.0744  0.1676
   59BDD     O227974   5.225   4.060   6.638  0.3476 -0.2497 -0.0340
   59BDD     C727975   5.482   4.322   6.694  0.1758 -0.0980  0.0429
   59BDD     C827976   5.417   4.193   6.694  0.2674 -0.1439 -0.0099
   59BDD     C927977   5.493   4.094   6.749  0.3507 -0.1196 -0.0805
   59BDD     S227978   5.651   4.156   6.805  0.3203 -0.0374 -0.0857
   59BDD    C1027979   5.607   4.320   6.750  0.1909 -0.0393  0.0118
   59BDD    C1127980   5.720   4.405   6.750 -0.2298  0.0218 -0.3201
   59BDD    C1227981   5.821   4.388   6.640 -0.1425 -0.4427  1.2465
   59BDD    C1327982   5.782   4.400   6.474 -1.5802  0.4846 -0.3543
   59BDD    C1427983   5.750   4.532   6.416  0.2302 -0.9497 -0.6276
   59BDD    C1527984   5.830   4.585   6.294  0.5298  0.3883 -0.1604
   59BDD    C1627985   5.790   4.499   6.182 -1.0835  1.5015  1.8568
   59BDD    C1727986   5.956   4.440   6.698  0.0765 -0.9433 -0.9206
   59BDD    C1827987   6.085   4.381   6.654 -0.7378 -0.0005  0.0816
   59BDD    C1927988   5.464   3.943   6.773  0.7460 -1.0434  0.6306
   59BDD    C2027989   5.474   3.846   6.642  0.1265 -0.7223 -0.5829
   59BDD    C2127990   5.368   3.733   6.625 -0.7879  0.9727  0.0391
   59BDD    C2227991   5.242   3.735   6.707 -0.4564 -0.7015 -1.0030
   59BDD    C2327992   5.126   3.642   6.669 -0.7582 -0.3939  0.2963
   59BDD    C2427993   5.022   3.610   6.783 -0.0354 -0.3889  1.2607
   59BDD    C2527994   5.590   3.877   6.541  0.7334  0.1340  0.5728
   59BDD    C2627995   5.545   3.908   6.391  0.0684 -0.1773 -0.1660
   60TPM     C127996   4.995   4.194   6.509 -0.4871  0.7328 -0.9089
   60TPM     C227997   4.868   4.189   6.558 -0.4985  0.7268 -0.9387
   60TPM     C327998   4.795   4.071   6.519 -0.2774  0.4255 -0.4590
   60TPM     C427999   4.866   3.986   6.440 -0.0976  0.2013 -0.0634
   60TPM     S128000   5.032   4.049   6.408 -0.1942  0.3549 -0.2679
    1BDTP    C128001   0.153  11.133   6.932  0.2511  0.2680 -0.3242
    1BDTP    C228002   0.141  11.253   6.856 -0.0319  0.2484 -0.3109
    1BDTP    C328003   0.129  11.253   6.718 -0.2936  0.2251 -0.2892
    1BDTP    C428004   0.129  11.129   6.651 -0.2759  0.2203 -0.2806
    1BDTP    C528005   0.141  11.009   6.727  0.0071  0.2398 -0.2941
    1BDTP    C628006   0.153  11.009   6.865  0.2688  0.2632 -0.3157
    1BDTP    C728007   0.118  11.105   6.509 -0.5162  0.1973 -0.2586
    1BDTP    C828008   0.121  10.974   6.474 -0.4283  0.1986 -0.2552
    1BDTP    S128009   0.139  10.863   6.617 -0.0290  0.2291 -0.2789
    1BDTP    C928010   0.164  11.157   7.074  0.4913  0.2909 -0.3461
    1BDTP   C1028011   0.161  11.288   7.109  0.4035  0.2894 -0.3496
    1BDTP    S228012   0.143  11.399   6.966  0.0041  0.2593 -0.3260
    2FTM     S128013   0.336  11.456   6.660 -0.4219  0.2990 -0.3032
    2FTM     C128014   0.303  11.550   6.510 -0.8185  0.2776 -0.2312
    2FTM     C228015   0.180  11.518   6.461 -0.7645 -0.0627 -0.1504
    2FTM     C328016   0.105  11.421   6.536 -0.4197 -0.3207 -0.1401
    2FTM     C428017   0.174  11.377   6.645 -0.2026 -0.1739 -0.2152
    2FTM     F128018   0.127  11.576   6.346 -1.0241 -0.1600 -0.0811
    2FTM     C528019   0.396  11.626   6.441 -1.0342 -0.1130 -0.5796
    2FTM     C628020   0.436  11.776   6.457 -1.3400  0.2281  0.5346
    2FTM     C728021   0.594  11.806   6.430  0.9860  0.4422 -0.2377
    2FTM     C828022   0.649  11.786   6.286 -0.0097 -1.6192 -0.7603
    2FTM     C928023   0.692  11.649   6.242 -0.7454 -0.8159 -0.3034
    2FTM    C1028024   0.852  11.662   6.229 -0.4764 -0.7454  0.6337
    2FTM    C1128025   0.337  11.904   6.470 -0.1944  1.4718  0.1968
    2FTM    C1228026   0.212  11.901   6.371  0.7299 -0.0593  0.7183
    3FTM     S128027   0.009  10.849   7.034  0.5038  0.3332 -0.7317
    3FTM     C128028   0.093  10.707   7.107  0.3811  0.7855  0.3208
    3FTM     C228029   0.219  10.697   7.057  0.5705  0.6299  0.8180
    3FTM     C328030   0.257  10.796   6.961  0.8163  0.1605  0.4207
    3FTM     C428031   0.157  10.886   6.937  0.8158 -0.0501 -0.4080
    3FTM     F128032   0.307  10.597   7.095  0.5322  0.9031  1.6627
    3FTM     C528033   0.016  10.621   7.200  0.6014 -0.5980 -0.2182
    3FTM     C628034  -0.074  10.501   7.171  0.9849  0.2043 -0.1137
    3FTM     C728035  -0.140  10.442   7.301 -1.3636  0.6426  0.8629
    3FTM     C828036  -0.250  10.522   7.369 -1.5668  0.4523  1.0414
    3FTM     C928037  -0.379  10.502   7.314  0.7380  0.8307  1.1708
    3FTM    C1028038  -0.485  10.594   7.381 -0.1697  0.5497 -1.0254
    3FTM    C1128039  -0.144  10.478   7.036  0.8488 -1.6999 -0.5388
    3FTM    C1228040  -0.052  10.459   6.905  1.3028  0.5412  0.2233
    4TPM     C128041   0.158  11.332   7.250  0.2820 -0.6621  0.9313
    4TPM     C228042   0.197  11.457   7.285 -0.6425 -0.2832  0.6706
    4TPM     C328043   0.184  11.485   7.426 -1.0563 -0.0005  0.5800
    4TPM     C428044   0.135  11.380   7.498 -0.4473 -0.1639  0.7716
    4TPM     S128045   0.101  11.238   7.393  0.7050 -0.6917  1.0837
    5BDD     C128046  -0.088  11.372   7.819  0.7245 -0.3416  0.3261
    5BDD     C228047  -0.000  11.475   7.841  0.5116 -0.1462  0.2664
    5BDD     C328048   0.095  11.494   7.733  0.1321  0.3347  0.0106
    5BDD     C428049   0.078  11.406   7.630  0.0612  0.4992 -0.1210
    5BDD     S128050  -0.057  11.292   7.662  0.4652  0.0637  0.0664
    5BDD     C528051  -0.001  11.560   7.963  0.6487 -0.3946  0.4425
    5BDD     C628052   0.198  11.600   7.736 -0.1469  0.6135 -0.0938
    5BDD     O128053   0.280  11.616   7.642 -0.4742  1.0283 -0.3145
    5BDD     O228054  -0.083  11.543   8.056  0.9761 -0.8094  0.6630
    5BDD     C728055   0.197  11.684   7.857 -0.0095  0.3650  0.0820
    5BDD     C828056   0.102  11.665   7.965  0.3700 -0.1159  0.3378
    5BDD     C928057   0.119  11.754   8.068  0.4408 -0.2801  0.4697
    5BDD     S228058   0.254  11.867   8.036  0.0368  0.1553  0.2821
    5BDD    C1028059   0.285  11.787   7.879 -0.2227  0.5603  0.0223
    5BDD    C1128060   0.399  11.827   7.794  1.0816 -0.1053  0.0743
    5BDD    C1228061   0.557  11.801   7.830  0.5854  0.0614 -0.5313
    5BDD    C1328062   0.599  11.648   7.856  1.3569 -0.3977  0.7787
    5BDD    C1428063   0.637  11.558   7.742 -0.3898  0.9994 -0.5821
    5BDD    C1528064   0.752  11.576   7.635  1.9039 -0.3033  0.2987
    5BDD    C1628065   0.711  11.468   7.536 -0.2060 -0.5810 -1.0949
    5BDD    C1728066   0.599  11.883   7.957 -0.1976  1.1892  1.3645
    5BDD    C1828067   0.577  12.037   7.963  0.2568 -0.6940 -1.1421
    5BDD    C1928068   0.043  11.756   8.193  0.5986  1.0679 -0.1948
    5BDD    C2028069  -0.084  11.841   8.200 -0.0548  0.4861 -0.3588
    5BDD    C2128070  -0.195  11.792   8.293 -0.3680 -0.2919 -0.0736
    5BDD    C2228071  -0.188  11.800   8.461 -0.9124  1.4975  1.7660
    5BDD    C2328072  -0.166  11.667   8.540  1.1696  0.2470 -1.0082
    5BDD    C2428073  -0.232  11.542   8.488 -0.1240 -0.3034 -0.7901
    5BDD    C2528074  -0.072  12.003   8.174  0.1257 -0.3958 -0.0686
    5BDD    C2628075  -0.190  12.087   8.115 -0.9127 -0.1334 -0.1086
    6TPM     C128076  -0.193  11.304   7.886  0.0627  0.3571 -0.0699
    6TPM     C228077  -0.283  11.229   7.817 -0.0560  0.2930  0.1534
    6TPM     C328078  -0.377  11.159   7.901  0.1180  0.3309  0.3812
    6TPM     C428079  -0.359  11.182   8.034  0.3694  0.4239  0.3321
    6TPM     S128080  -0.220  11.294   8.064  0.4060  0.4715 -0.0089
    7BDTP    C128081  -0.691  10.885   8.484 -0.3736  0.4871  0.1957
    7BDTP    C228082  -0.556  10.869   8.527 -0.3920  0.1516  0.1338
    7BDTP    C328083  -0.449  10.925   8.458 -0.2944 -0.0076  0.1557
    7BDTP    C428084  -0.476  10.999   8.343 -0.1733  0.1709  0.2418
    7BDTP    C528085  -0.611  11.015   8.300 -0.1552  0.5057  0.3035
    7BDTP    C628086  -0.719  10.960   8.368 -0.2526  0.6657  0.2819
    7BDTP    C728087  -0.382  11.066   8.255 -0.0582  0.0582  0.2792
    7BDTP    C828088  -0.439  11.131   8.151  0.0446  0.2892  0.3648
    7BDTP    S128089  -0.620  11.116   8.148  0.0093  0.6828  0.4106
    7BDTP    C928090  -0.786  10.818   8.571 -0.4888  0.6001  0.1585
    7BDTP   C1028091  -0.729  10.753   8.676 -0.5913  0.3684  0.0727
    7BDTP    S228092  -0.548  10.768   8.679 -0.5560 -0.0250  0.0274
    8FTM     S128093  -0.213  10.775   8.516  0.3491  0.1028 -0.3927
    8FTM     C128094  -0.083  10.869   8.596  0.2264  0.3407 -0.4709
    8FTM     C228095  -0.127  10.995   8.624 -0.0200  0.2308 -0.3536
    8FTM     C328096  -0.261  11.025   8.585 -0.1264 -0.0386 -0.1996
    8FTM     C428097  -0.322  10.919   8.525  0.0450 -0.1383 -0.1988
    8FTM     F128098  -0.047  11.091   8.686 -0.1643  0.3676 -0.3786
    8FTM     C528099   0.038  10.804   8.643 -0.0636 -0.0193 -0.0715
    8FTM     C628100   0.066  10.762   8.795  0.2326  0.3205 -0.6507
    8FTM     C728101   0.001  10.843   8.917 -0.9553 -0.0917  0.8776
    8FTM     C828102  -0.132  10.792   8.977  0.6069  0.2790  0.1587
    8FTM     C928103  -0.144  10.651   9.019  0.0831  0.4082  0.5242
    8FTM    C1028104  -0.287  10.616   8.981  1.0520 -1.2648  0.4131
    8FTM    C1128105   0.204  10.713   8.842  0.1523  0.1702 -0.0751
    8FTM    C1228106   0.265  10.592   8.784  0.6014 -0.1697  0.2611
    9FTM     S128107  -0.937  11.106   8.240  0.0310 -0.2169  0.2719
    9FTM     C128108  -1.068  11.006   8.169  0.1137 -0.1857  0.0729
    9FTM     C228109  -1.051  10.876   8.204  0.0639 -0.1991  0.0479
    9FTM     C328110  -0.938  10.847   8.286 -0.0391 -0.2337  0.1791
    9FTM     C428111  -0.865  10.959   8.315 -0.0693 -0.2467  0.3084
    9FTM     F128112  -1.138  10.775   8.164  0.1085 -0.1807 -0.0947
    9FTM     C528113  -1.160  11.073   8.077 -0.1075  0.4642 -0.0594
    9FTM     C628114  -1.172  11.000   7.929 -0.3753  0.4277  0.4008
    9FTM     C728115  -1.126  10.862   7.873 -0.9970  0.4597 -0.9109
    9FTM     C828116  -1.148  10.805   7.731 -0.5042 -2.0883 -0.5171
    9FTM     C928117  -1.033  10.718   7.660  1.3123 -0.0935 -0.0479
    9FTM    C1028118  -0.981  10.608   7.749  0.8642 -1.0385 -0.8972
    9FTM    C1128119  -1.290  11.071   7.863 -1.2822  0.5483 -0.0779
    9FTM    C1228120  -1.421  11.046   7.916  0.4946  0.4564 -0.3020
   10TPM     C128121  -0.801  10.648   8.740 -0.1696  0.2242 -0.1582
   10TPM     C228122  -0.750  10.537   8.800  0.0510  0.1242 -0.5198
   10TPM     C328123  -0.850  10.438   8.833  0.2356 -0.1483 -0.7668
   10TPM     C428124  -0.977  10.474   8.798  0.1554 -0.2562 -0.5928
   10TPM     S128125  -0.980  10.637   8.720 -0.1614 -0.0203 -0.1007
   11BDD     C128126  -1.249  10.252   8.618 -0.2948  0.0280  0.0703
   11BDD     C228127  -1.229  10.191   8.739 -0.2995 -0.0868  0.0131
   11BDD     C328128  -1.129  10.257   8.821 -0.3059 -0.1621  0.0815
   11BDD     C428129  -1.075  10.367   8.762 -0.3061 -0.1036  0.1906
   11BDD     S128130  -1.145  10.397   8.600 -0.2983  0.0501  0.2146
   11BDD     C528131  -1.301  10.069   8.783 -0.2978 -0.1316 -0.1075
   11BDD     C628132  -1.092  10.208   8.955 -0.3114 -0.2894  0.0367
   11BDD     O128133  -1.006  10.264   9.026 -0.3171 -0.3548  0.0961
   11BDD     O228134  -1.387  10.013   8.712 -0.2921 -0.0665 -0.1669
   11BDD     C728135  -1.164  10.086   8.999 -0.3099 -0.3343 -0.0837
   11BDD     C828136  -1.263  10.020   8.917 -0.3035 -0.2589 -0.1523
   11BDD     C928137  -1.318   9.910   8.976 -0.3030 -0.3171 -0.2613
   11BDD     S228138  -1.248   9.880   9.138 -0.3105 -0.4709 -0.2854
   11BDD    C1028139  -1.143  10.025   9.120 -0.3145 -0.4489 -0.1411
   11BDD    C1128140  -1.063  10.080   9.251  0.1253  1.7806 -0.1068
   11BDD    C1228141  -1.141  10.186   9.323 -0.6006 -0.2794 -0.2805
   11BDD    C1328142  -1.056  10.214   9.463  0.1034 -0.2293  0.1625
   11BDD    C1428143  -1.151  10.290   9.565 -0.6336  1.7388  1.4782
   11BDD    C1528144  -1.055  10.307   9.684  1.1277  0.3179 -0.3130
   11BDD    C1628145  -1.125  10.271   9.816 -0.2607 -0.5523  0.2425
   11BDD    C1728146  -1.179  10.323   9.265  0.1646 -1.0806 -0.4334
   11BDD    C1828147  -1.064  10.445   9.266 -0.4851  0.6886  0.0575
   11BDD    C1928148  -1.428   9.807   8.951 -0.7994 -0.4077  0.6812
   11BDD    C2028149  -1.559   9.859   8.932 -0.3951 -2.0242 -0.2197
   11BDD    C2128150  -1.634   9.788   8.828  0.4967  0.2355  0.0417
   11BDD    C2228151  -1.736   9.873   8.756 -0.8543  0.0803 -0.0069
   11BDD    C2328152  -1.712   9.892   8.613 -1.5523 -1.0227 -0.1394
   11BDD    C2428153  -1.790   9.986   8.548 -0.9188  0.6885 -1.1822
   11BDD    C2528154  -1.609   9.887   9.071  1.0034  0.6207 -0.1337
   11BDD    C2628155  -1.654   9.766   9.162  0.3073 -0.0736 -0.1692
   12TPM     C128156  -1.332  10.225   8.501 -0.3974  0.3030  0.4636
   12TPM     C228157  -1.313  10.106   8.437 -0.1273  0.2861  0.5715
   12TPM     C328158  -1.374  10.101   8.307  0.2987  0.2022  0.3729
   12TPM     C428159  -1.439  10.215   8.272  0.3533  0.1555  0.1134
   12TPM     S128160  -1.429  10.340   8.402 -0.1330  0.2137  0.0998
   13BDTP    C128161  -1.698  10.439   7.726  0.2205  0.3915  0.1762
   13BDTP    C228162  -1.602  10.345   7.679  0.0956  0.2463  0.2105
   13BDTP    C328163  -1.522  10.269   7.764  0.1020  0.2813  0.2356
   13BDTP    C428164  -1.537  10.287   7.902  0.2384  0.4690  0.2266
   13BDTP    C528165  -1.633  10.382   7.950  0.3633  0.6142  0.1924
   13BDTP    C628166  -1.713  10.457   7.865  0.3568  0.5786  0.1673
   13BDTP    C728167  -1.466  10.221   8.009  0.2718  0.5395  0.2488
   13BDTP    C828168  -1.503  10.260   8.134  0.4144  0.7286  0.2320
   13BDTP    S128169  -1.634  10.387   8.132  0.5262  0.8435  0.1874
   13BDTP    C928170  -1.769  10.505   7.619  0.1867  0.3207  0.1545
   13BDTP   C1028171  -1.732  10.466   7.495  0.0441  0.1318  0.1706
   13BDTP    S228172  -1.601  10.339   7.496 -0.0674  0.0168  0.2156
   14FTM     S128173  -1.485  10.025   7.593  0.3978 -0.0960  0.1732
   14FTM     C128174  -1.310   9.998   7.557  0.4909  0.6016  0.0692
   14FTM     C228175  -1.234  10.081   7.633  0.2158  0.6697  0.2726
   14FTM     C328176  -1.305  10.168   7.722 -0.0770  0.1955  0.5159
   14FTM     C428177  -1.440  10.152   7.713 -0.0245 -0.2508  0.4982
   14FTM     F128178  -1.095  10.082   7.627  0.2127  1.1659  0.2508
   14FTM     C528179  -1.274   9.874   7.477 -1.2400  1.3238 -2.3137
   14FTM     C628180  -1.165   9.794   7.549 -0.5478  1.0927 -0.5234
   14FTM     C728181  -1.129   9.768   7.706 -0.1836 -0.1292  0.4245
   14FTM     C828182  -1.253   9.743   7.760  0.3939  1.1116 -0.7415
   14FTM     C928183  -1.271   9.813   7.907  0.7297 -0.1557  0.2906
   14FTM    C1028184  -1.410   9.758   7.961  0.0662 -0.2475  0.4099
   14FTM    C1128185  -1.090   9.694   7.447 -0.1689 -0.7962 -0.5474
   14FTM    C1228186  -1.076   9.543   7.489 -0.0557 -0.7859 -1.5365
   15FTM     S128187  -1.704  10.725   7.862  0.1059 -0.0395  0.7760
   15FTM     C128188  -1.840  10.819   7.934 -0.5021  0.1258 -0.5284
   15FTM     C228189  -1.935  10.734   7.983 -1.2977  0.2401 -1.7768
   15FTM     C328190  -1.908  10.594   7.967 -1.4782  0.2067 -1.7948
   15FTM     C428191  -1.789  10.571   7.905 -0.7987  0.0623 -0.5183
   15FTM     F128192  -2.051  10.778   8.044 -1.9090  0.3817 -2.9774
   15FTM     C528193  -1.812  10.971   7.951 -0.0996 -0.7391  0.4817
   15FTM     C628194  -1.909  11.084   7.935  0.7365 -0.1474 -0.0716
   15FTM     C728195  -1.858  11.224   7.935  0.5217  0.5358  0.1240
   15FTM     C828196  -1.841  11.284   8.074 -0.6241 -0.7083  1.3122
   15FTM     C928197  -1.710  11.334   8.116 -1.3306  1.1263 -0.0132
   15FTM    C1028198  -1.638  11.245   8.225 -0.0619  0.4504 -0.7523
   15FTM    C1128199  -2.028  11.067   7.826 -0.5023  0.2500 -0.3669
   15FTM    C1228200  -1.994  11.033   7.675 -0.9862  0.1309  0.0640
   16TPM     C128201  -1.759  10.534   7.377 -0.0399  0.6786  0.3968
   16TPM     C228202  -1.679  10.513   7.269  0.2573 -0.1240  0.7571
   16TPM     C328203  -1.737  10.555   7.144  0.6428 -0.9267  0.2885
   16TPM     C428204  -1.862  10.608   7.157  0.6402 -0.7367 -0.4292
   16TPM     S128205  -1.916  10.609   7.329  0.1464  0.4807 -0.5697
   17BDD     C128206  -2.088  10.658   6.836  0.0836  0.1678 -0.2733
   17BDD     C228207  -2.083  10.782   6.893  0.1822  0.1419 -0.2241
   17BDD     C328208  -1.999  10.789   7.011  0.2043  0.0336 -0.2341
   17BDD     C428209  -1.941  10.669   7.043  0.1224 -0.0217 -0.2910
   17BDD     S128210  -1.987  10.540   6.926  0.0114  0.0584 -0.3357
   17BDD     C528211  -2.156  10.900   6.841  0.2599  0.2158 -0.1662
   17BDD     C628212  -1.980  10.913   7.089  0.3064 -0.0117 -0.1873
   17BDD     O128213  -1.907  10.918   7.191  0.3252 -0.1051 -0.1961
   17BDD     O228214  -2.229  10.895   6.739  0.2410  0.3092 -0.1574
   17BDD     C728215  -2.052  11.030   7.037  0.3839  0.0622 -0.1292
   17BDD     C828216  -2.137  11.024   6.919  0.3617  0.1705 -0.1192
   17BDD     C928217  -2.195  11.144   6.887  0.4437  0.2258 -0.0626
   17BDD     S228218  -2.149  11.272   7.004  0.5547  0.1458 -0.0178
   17BDD    C1028219  -2.048  11.155   7.094  0.4823  0.0362 -0.0802
   17BDD    C1128220  -1.977  11.219   7.214 -0.8517 -1.0277 -0.0638
   17BDD    C1228221  -1.870  11.328   7.182 -0.5929  0.2784 -1.4948
   17BDD    C1328222  -1.751  11.313   7.088 -0.7487 -0.2733 -0.2229
   17BDD    C1428223  -1.639  11.242   7.150 -1.5384  0.2492 -0.2585
   17BDD    C1528224  -1.494  11.290   7.158  1.1117  0.0483  0.2998
   17BDD    C1628225  -1.413  11.341   7.051 -0.1046  0.3189  0.2299
   17BDD    C1728226  -1.845  11.403   7.321 -0.3290 -0.8609  0.3039
   17BDD    C1828227  -1.893  11.543   7.342  0.2458 -0.8563  1.0580
   17BDD    C1928228  -2.268  11.193   6.772  0.3689 -1.8020  0.0002
   17BDD    C2028229  -2.416  11.207   6.791 -1.2273  0.4051  0.5801
   17BDD    C2128230  -2.475  11.197   6.658  0.7617  0.3257 -1.0835
   17BDD    C2228231  -2.508  11.070   6.601  1.1327 -0.1420 -0.7710
   17BDD    C2328232  -2.604  10.979   6.691 -0.5694  0.8385 -0.0720
   17BDD    C2428233  -2.565  10.897   6.821  0.0578 -1.0637 -0.4399
   17BDD    C2528234  -2.475  11.301   6.895 -1.2802 -0.8393 -0.4032
   17BDD    C2628235  -2.619  11.328   6.925  1.1671 -0.8406 -0.0050
   18TPM     C128236  -2.131  10.606   6.707  0.7812  0.0401 -0.3271
   18TPM     C228237  -2.080  10.640   6.586  0.6981 -0.5338 -0.5304
   18TPM     C328238  -2.146  10.577   6.475  0.1621 -0.5164 -0.2259
   18TPM     C428239  -2.249  10.495   6.511 -0.1637  0.0711  0.2094
   18TPM     S128240  -2.270  10.491   6.690  0.1842  0.6521  0.2689
   19BDTP    C128241  -2.692  10.249   6.124  0.8283 -0.2623 -0.3407
   19BDTP    C228242  -2.696  10.162   6.237  0.2692  0.1643 -0.0228
   19BDTP    C328243  -2.615  10.182   6.349 -0.0839  0.4258  0.1917
   19BDTP    C428244  -2.527  10.291   6.349  0.1233  0.2599  0.0883
   19BDTP    C528245  -2.523  10.377   6.235  0.6821 -0.1662 -0.2296
   19BDTP    C628246  -2.604  10.358   6.124  1.0351 -0.4277 -0.4440
   19BDTP    C728247  -2.434  10.331   6.452 -0.1638  0.4704  0.2673
   19BDTP    C828248  -2.362  10.442   6.423  0.1485  0.2258  0.1012
   19BDTP    S128249  -2.401  10.511   6.259  0.8500 -0.3049 -0.3051
   19BDTP    C928250  -2.785  10.209   6.020  1.1151 -0.4723 -0.5196
   19BDTP   C1028251  -2.857  10.098   6.050  0.8030 -0.2279 -0.3536
   19BDTP    S228252  -2.818  10.029   6.213  0.1012  0.3032  0.0526
   20FTM     S128253  -2.583   9.986   6.568 -0.1163  0.2279 -0.5345
   20FTM     C128254  -2.677  10.027   6.717  0.5383 -0.2352  0.0193
   20FTM     C228255  -2.751  10.139   6.695  0.2108 -0.3331  0.5985
   20FTM     C328256  -2.739  10.199   6.566 -0.5507 -0.0606  0.6459
   20FTM     C428257  -2.654  10.130   6.485 -0.8151  0.2564  0.0846
   20FTM     F128258  -2.834  10.194   6.792  0.5808 -0.6752  1.1203
   20FTM     C528259  -2.683   9.924   6.824 -1.1703  0.6901 -0.1858
   20FTM     C628260  -2.596   9.952   6.949  1.1132  0.9652  0.6771
   20FTM     C728261  -2.526   9.852   7.034 -0.7678 -0.8309  0.3154
   20FTM     C828262  -2.525   9.710   6.984 -0.7546  0.3943  0.4636
   20FTM     C928263  -2.645   9.630   6.984  0.9184  1.0754 -0.0371
   20FTM    C1028264  -2.619   9.491   6.909 -0.3710 -0.4912 -1.1645
   20FTM    C1128265  -2.592  10.087   7.012 -0.2880  0.6220  0.2699
   20FTM    C1228266  -2.709  10.125   7.085 -0.3726 -0.1976 -0.1680
   21FTM     S128267  -2.460  10.433   5.872  0.4982  0.0916 -0.0378
   21FTM     C128268  -2.547  10.556   5.774 -0.0365  0.0765  0.4066
   21FTM     C228269  -2.659  10.597   5.839 -0.0331 -0.3893  0.7118
   21FTM     C328270  -2.684  10.536   5.966  0.3757 -0.7544  0.6206
   21FTM     C428271  -2.587  10.445   6.000  0.6962 -0.5615  0.2333
   21FTM     F128272  -2.746  10.692   5.787 -0.3998 -0.5128  1.0915
   21FTM     C528273  -2.477  10.614   5.646 -0.7781 -0.8298 -0.3494
   21FTM     C628274  -2.476  10.554   5.508  1.8004  0.2937 -0.1503
   21FTM     C728275  -2.419  10.620   5.376  0.3576 -0.4705  0.7039
   21FTM     C828276  -2.513  10.734   5.327 -0.0270  0.1027 -0.0451
   21FTM     C928277  -2.442  10.845   5.241  0.1234  0.9853 -0.8448
   21FTM    C1028278  -2.536  10.917   5.159  0.2451  0.6080  0.4535
   21FTM    C1128279  -2.585  10.439   5.497  0.6197  1.2046  0.7436
   21FTM    C1228280  -2.534  10.293   5.434  1.2751 -0.8165 -0.9171
   22TPM     C128281  -2.963  10.014   5.982  0.0200 -0.0404 -0.1806
   22TPM     C228282  -2.988  10.007   5.848  1.1117 -1.2374 -0.3682
   22TPM     C328283  -3.090   9.911   5.813  1.5643 -1.7200 -0.3846
   22TPM     C428284  -3.142   9.845   5.920  0.8174 -0.8911 -0.2093
   22TPM     S128285  -3.066   9.898   6.074 -0.5251  0.5746 -0.0087
   23BDD     C128286  -3.474   9.647   5.877  0.0254  0.1889 -0.1178
   23BDD     C228287  -3.377   9.552   5.897  0.0296  0.1986 -0.0925
   23BDD     C328288  -3.244   9.608   5.911  0.0341  0.2050 -0.1583
   23BDD     C428289  -3.241   9.744   5.902  0.0332  0.1999 -0.2329
   23BDD     S128290  -3.405   9.812   5.875  0.0269  0.1879 -0.2258
   23BDD     C528291  -3.404   9.407   5.903  0.0294  0.2022 -0.0069
   23BDD     C628292  -3.125   9.523   5.933  0.0389  0.2153 -0.1451
   23BDD     O128293  -3.010   9.571   5.945  0.0429  0.2210 -0.2018
   23BDD     O228294  -3.519   9.359   5.891  0.0255  0.1967  0.0499
   23BDD     C728295  -3.151   9.378   5.939  0.0389  0.2191 -0.0595
   23BDD     C828296  -3.285   9.323   5.925  0.0343  0.2129  0.0064
   23BDD     C928297  -3.288   9.186   5.934  0.0350  0.2177  0.0808
   23BDD     S228298  -3.124   9.118   5.961  0.0417  0.2301  0.0737
   23BDD    C1028299  -3.055   9.284   5.959  0.0432  0.2286 -0.0343
   23BDD    C1128300  -2.907   9.291   5.987 -0.4724  0.4860  0.9555
   23BDD    C1228301  -2.836   9.315   6.115  1.4710 -0.0161 -0.4576
   23BDD    C1328302  -2.901   9.422   6.217 -0.4653 -0.3945 -0.1802
   23BDD    C1428303  -2.820   9.438   6.335 -1.2744 -0.5744 -0.8664
   23BDD    C1528304  -2.889   9.387   6.465  0.0069  0.2503 -1.1604
   23BDD    C1628305  -2.799   9.434   6.578 -0.1343  0.0186  0.0282
   23BDD    C1728306  -2.727   9.218   6.149 -0.1214  1.1526  0.0241
   23BDD    C1828307  -2.618   9.234   6.047 -1.7275  0.6779  0.3751
   23BDD    C1928308  -3.396   9.096   5.862 -0.2122  1.7138  0.0076
   23BDD    C2028309  -3.335   8.949   5.821  0.7171  0.3989 -0.5781
   23BDD    C2128310  -3.418   8.823   5.847 -0.1275  2.1831  0.5243
   23BDD    C2228311  -3.536   8.822   5.947 -0.3613 -0.5358 -0.1952
   23BDD    C2328312  -3.517   8.877   6.087 -0.1610 -0.6365  2.1118
   23BDD    C2428313  -3.400   8.817   6.167  2.2588  0.6431 -0.3397
   23BDD    C2528314  -3.259   8.939   5.688 -0.0150  0.6380 -0.1319
   23BDD    C2628315  -3.149   8.823   5.661 -0.4736  0.6996 -0.3678
   24TPM     C128316  -3.619   9.645   5.864 -0.0278 -0.2274 -0.0529
   24TPM     C228317  -3.682   9.646   5.984 -0.0664 -0.8347 -0.0615
   24TPM     C328318  -3.812   9.583   5.982 -0.1554 -0.6478 -0.4747
   24TPM     C428319  -3.847   9.533   5.860 -0.1848  0.1024 -0.7814
   24TPM     S128320  -3.718   9.563   5.737 -0.1014  0.6347 -0.5704
   25BDTP    C128321  -4.368   9.209   5.734 -0.4365  0.4060  0.4205
   25BDTP    C228322  -4.420   9.340   5.755 -0.3241  0.4523  0.4138
   25BDTP    C328323  -4.339   9.449   5.784 -0.2195  0.4086  0.2859
   25BDTP    C428324  -4.200   9.429   5.792 -0.2258  0.3147  0.1581
   25BDTP    C528325  -4.148   9.298   5.771 -0.3383  0.2689  0.1645
   25BDTP    C628326  -4.229   9.189   5.742 -0.4428  0.3127  0.2927
   25BDTP    C728327  -4.096   9.526   5.820 -0.1295  0.2550  0.0128
   25BDTP    C828328  -3.971   9.475   5.821 -0.1639  0.1678 -0.0886
   25BDTP    S128329  -3.966   9.297   5.786 -0.3229  0.1488 -0.0144
   25BDTP    C928330  -4.471   9.112   5.706 -0.5327  0.4661  0.5656
   25BDTP   C1028331  -4.597   9.163   5.705 -0.4984  0.5534  0.6671
   25BDTP    S228332  -4.602   9.341   5.740 -0.3394  0.5721  0.5929
   26FTM     S128333  -4.540   9.659   5.726 -0.1089 -0.4609 -0.0902
   26FTM     C128334  -4.557   9.785   5.854  0.4439  0.0950 -0.5508
   26FTM     C228335  -4.470   9.760   5.955  0.9344  0.5772 -0.8390
   26FTM     C328336  -4.387   9.644   5.941  0.9108  0.5453 -0.7222
   26FTM     C428337  -4.411   9.578   5.824  0.3850  0.0206 -0.3314
   26FTM     F128338  -4.461   9.840   6.068  1.4338  1.0769 -1.2261
   26FTM     C528339  -4.674   9.885   5.830  0.2740 -0.6461  0.7111
   26FTM     C628340  -4.811   9.839   5.888 -1.0513 -0.8257  0.1489
   26FTM     C728341  -4.908   9.740   5.808 -0.4052  0.3137 -0.5549
   26FTM     C828342  -4.974   9.809   5.707  1.0295 -0.1893  0.1619
   26FTM     C928343  -5.077   9.726   5.636  1.0343  0.2178  0.6659
   26FTM    C1028344  -5.053   9.645   5.506 -1.0198  1.0869 -1.0071
   26FTM    C1128345  -4.806   9.835   6.053  1.7431  0.2984  1.5016
   26FTM    C1228346  -4.781   9.957   6.136 -0.6686  0.0336 -0.2436
   27FTM     S128347  -4.232   8.914   5.809 -0.1372  0.3354 -0.0394
   27FTM     C128348  -4.159   8.798   5.692 -0.1856  0.0183  0.2409
   27FTM     C228349  -4.101   8.867   5.589  0.1775 -0.2425  0.2687
   27FTM     C328350  -4.110   9.010   5.595  0.5072 -0.2124  0.0781
   27FTM     C428351  -4.177   9.052   5.706  0.3930  0.0810 -0.1014
   27FTM     F128352  -4.037   8.804   5.484  0.2327 -0.5240  0.4683
   27FTM     C528353  -4.174   8.654   5.706  1.5008  0.3383  0.5099
   27FTM     C628354  -4.292   8.570   5.632  0.3524 -1.4353 -0.6514
   27FTM     C728355  -4.319   8.587   5.476  0.1657 -0.5623 -0.7424
   27FTM     C828356  -4.209   8.505   5.394 -0.1343 -0.2023  0.1669
   27FTM     C928357  -4.208   8.533   5.248  0.7030 -0.8331  0.9852
   27FTM    C1028358  -4.343   8.517   5.171 -1.7119  0.4108  0.3698
   27FTM    C1128359  -4.309   8.449   5.735  0.7327  0.1952  0.6411
   27FTM    C1228360  -4.447   8.377   5.695 -1.0550  0.1503  0.5113
   28TPM     C128361  -4.730   9.102   5.690  0.1081 -0.6784 -0.2426
   28TPM     C228362  -4.776   8.978   5.724  0.1526 -0.8876 -0.9117
   28TPM     C328363  -4.908   8.949   5.676  0.0224 -0.5345 -0.7695
   28TPM     C428364  -4.964   9.052   5.605 -0.1213 -0.0557  0.0081
   28TPM     S128365  -4.853   9.193   5.593 -0.1032 -0.0134  0.6260
   29BDD     C128366  -5.325   9.085   5.473  0.2500  0.1504 -0.0970
   29BDD     C228367  -5.269   8.983   5.401  0.1293  0.0772 -0.0882
   29BDD     C328368  -5.136   8.947   5.445  0.0312 -0.1729  0.0048
   29BDD     C428369  -5.092   9.021   5.551  0.0787 -0.2873  0.0656
   29BDD     S128370  -5.215   9.142   5.602  0.2490 -0.0892  0.0107
   29BDD     C528371  -5.336   8.916   5.287  0.0997  0.2346 -0.1651
   29BDD     C628372  -5.057   8.840   5.381 -0.1059 -0.2899  0.0297
   29BDD     O128373  -4.942   8.809   5.420 -0.1905 -0.5057  0.1098
   29BDD     O228374  -5.451   8.947   5.249  0.1842  0.4501 -0.2453
   29BDD     C728375  -5.124   8.772   5.268 -0.1353 -0.1323 -0.0471
   29BDD     C828376  -5.257   8.809   5.223 -0.0373  0.1178 -0.1400
   29BDD     C928377  -5.301   8.734   5.117 -0.0849  0.2315 -0.2010
   29BDD     S228378  -5.178   8.614   5.066 -0.2554  0.0335 -0.1462
   29BDD    C1028379  -5.068   8.671   5.196 -0.2563 -0.2058 -0.0385
   29BDD    C1128380  -4.932   8.625   5.180 -0.5572 -0.5989 -0.7528
   29BDD    C1228381  -4.867   8.482   5.233 -0.0724 -1.3630  0.7190
   29BDD    C1328382  -4.723   8.483   5.191 -0.6615  0.8353  0.1137
   29BDD    C1428383  -4.664   8.356   5.144  0.5487 -0.0763  0.7259
   29BDD    C1528384  -4.632   8.251   5.244  1.7677  0.8082  0.6681
   29BDD    C1628385  -4.505   8.273   5.312  0.1528  0.1012 -0.2752
   29BDD    C1728386  -4.902   8.426   5.369  0.8414 -0.2666 -0.8765
   29BDD    C1828387  -5.058   8.413   5.393 -0.9580 -1.2682  0.4509
   29BDD    C1928388  -5.432   8.729   5.034  0.2648  0.7900 -0.5776
   29BDD    C2028389  -5.557   8.639   5.092  0.4024 -0.4049  0.0108
   29BDD    C2128390  -5.578   8.482   5.046 -0.1353  0.2900 -1.0847
   29BDD    C2228391  -5.681   8.398   5.136 -0.1402 -0.0095  1.6343
   29BDD    C2328392  -5.794   8.315   5.064  0.4811 -0.8472  0.3409
   29BDD    C2428393  -5.880   8.208   5.136 -0.9823 -0.7381 -0.7486
   29BDD    C2528394  -5.697   8.727   5.083  0.4354  1.5226  0.7287
   29BDD    C2628395  -5.758   8.726   4.941 -0.4382 -0.8278 -1.3340
   30TPM     C128396  -5.451   9.143   5.469  0.3928 -1.0184 -0.9285
   30TPM     C228397  -5.469   9.277   5.453  1.1861 -0.9804 -1.5929
   30TPM     C328398  -5.598   9.324   5.496  1.6205  0.0713 -1.3798
   30TPM     C428399  -5.679   9.226   5.545  1.1584  0.8349 -0.5528
   30TPM     S128400  -5.597   9.065   5.541  0.1308  0.2808  0.0252
   31BDTP    C128401  -6.290   9.287   5.671  0.2429 -0.2337  0.0168
   31BDTP    C228402  -6.269   9.147   5.685  0.2139 -0.2332  0.0652
   31BDTP    C328403  -6.144   9.088   5.668  0.1941 -0.2699  0.0465
   31BDTP    C428404  -6.036   9.171   5.636  0.2033 -0.3085 -0.0231
   31BDTP    C528405  -6.057   9.311   5.623  0.2323 -0.3092 -0.0714
   31BDTP    C628406  -6.181   9.370   5.639  0.2523 -0.2725 -0.0529
   31BDTP    C728407  -5.898   9.133   5.614  0.1866 -0.3501 -0.0548
   31BDTP    C828408  -5.815   9.236   5.585  0.2016 -0.3815 -0.1235
   31BDTP    S128409  -5.901   9.397   5.581  0.2389 -0.3631 -0.1581
   31BDTP    C928410  -6.428   9.326   5.693  0.2595 -0.1922  0.0484
   31BDTP   C1028411  -6.511   9.222   5.723  0.2445 -0.1605  0.1172
   31BDTP    S228412  -6.425   9.062   5.727  0.2074 -0.1794  0.1518
   32FTM     S128413  -6.227   8.854   5.815 -0.4353  0.0344 -0.4151
   32FTM     C128414  -6.179   8.696   5.742  0.2365  0.2405 -0.4390
   32FTM     C228415  -6.102   8.717   5.632  0.5863  0.5701 -0.1377
   32FTM     C328416  -6.076   8.854   5.598  0.3585  0.6800  0.1239
   32FTM     C428417  -6.135   8.940   5.686 -0.1832  0.4257  0.0193
   32FTM     F128418  -6.051   8.613   5.555  1.1332  0.7918 -0.0807
   32FTM     C528419  -6.206   8.575   5.836 -0.5421  0.3289  0.8005
   32FTM     C628420  -6.299   8.467   5.784 -0.2264  0.4323 -0.7965
   32FTM     C728421  -6.218   8.389   5.670  0.9202 -0.4171 -0.4051
   32FTM     C828422  -6.292   8.249   5.623 -0.2123  0.2233  0.1746
   32FTM     C928423  -6.263   8.169   5.488  0.3269  0.0364  0.5855
   32FTM    C1028424  -6.278   8.016   5.498  1.0129 -0.8209  0.0541
   32FTM    C1128425  -6.447   8.490   5.753  0.3096  0.0557  0.0944
   32FTM    C1228426  -6.553   8.596   5.794 -1.7484  0.8954 -0.7030
   33FTM     S128427  -6.091   9.641   5.714  0.4197  0.0172 -0.0268
   33FTM     C128428  -6.127   9.758   5.582  0.3224 -0.1593 -0.1578
   33FTM     C228429  -6.199   9.697   5.484  0.4950 -0.3664 -0.1574
   33FTM     C328430  -6.230   9.559   5.506  0.7085 -0.3998 -0.0576
   33FTM     C428431  -6.180   9.512   5.623  0.6990 -0.2120  0.0209
   33FTM     F128432  -6.241   9.763   5.369  0.4699 -0.5379 -0.2474
   33FTM     C528433  -6.037   9.878   5.577  0.6827 -0.1528  1.8995
   33FTM     C628434  -6.050  10.002   5.652  0.7639 -0.1869  0.1145
   33FTM     C728435  -6.046  10.131   5.575  1.3679 -0.2496  0.1286
   33FTM     C828436  -5.924  10.231   5.587  1.6000  1.2436 -0.4661
   33FTM     C928437  -5.895  10.310   5.712  1.2998 -0.9276  0.4434
   33FTM    C1028438  -5.788  10.409   5.670  0.6064 -0.6688  0.0319
   33FTM    C1128439  -6.129   9.987   5.783  0.6475 -1.5809 -0.3249
   33FTM    C1228440  -6.284  10.006   5.780  0.1082  1.7762  0.1145
   34TPM     C128441  -6.648   9.240   5.741  0.0187  0.7096 -0.6858
   34TPM     C228442  -6.716   9.323   5.825 -0.6431  2.1379 -2.5125
   34TPM     C328443  -6.857   9.294   5.834 -0.7032  2.2464 -3.0209
   34TPM     C428444  -6.896   9.188   5.757 -0.0871  0.9005 -1.5814
   34TPM     S128445  -6.757   9.117   5.667  0.6222 -0.6198  0.5441
   35BDD     C128446  -7.240   9.009   5.852  0.2719 -0.0518 -0.2021
   35BDD     C228447  -7.269   9.086   5.743  0.3486 -0.0057 -0.1906
   35BDD     C328448  -7.155   9.160   5.692  0.3749  0.0463 -0.0558
   35BDD     C428449  -7.041   9.139   5.764  0.3182  0.0387  0.0335
   35BDD     S128450  -7.068   9.025   5.899  0.2277 -0.0339 -0.0451
   35BDD     C528451  -7.403   9.093   5.681  0.4002 -0.0076 -0.3028
   35BDD     C628452  -7.164   9.249   5.575  0.4555  0.1011 -0.0203
   35BDD     O128453  -7.066   9.313   5.531  0.4783  0.1459  0.0960
   35BDD     O228454  -7.502   9.029   5.724  0.3777 -0.0522 -0.4189
   35BDD     C728455  -7.298   9.257   5.513  0.5072  0.0997 -0.1326
   35BDD     C828456  -7.412   9.182   5.563  0.4810  0.0479 -0.2674
   35BDD     C928457  -7.527   9.203   5.492  0.5378  0.0553 -0.3564
   35BDD     S228458  -7.500   9.318   5.356  0.6281  0.1276 -0.2779
   35BDD    C1028459  -7.328   9.333   5.403  0.5838  0.1459 -0.1209
   35BDD    C1128460  -7.241   9.444   5.333  0.4909  0.7668 -1.8867
   35BDD    C1228461  -7.229   9.443   5.193 -0.5733 -0.1020 -0.4651
   35BDD    C1328462  -7.175   9.574   5.147  0.3195 -0.8385 -0.5202
   35BDD    C1428463  -7.207   9.725   5.196 -0.1463  1.4858  0.8753
   35BDD    C1528464  -7.358   9.769   5.232  1.1200  1.6936 -1.3347
   35BDD    C1628465  -7.418   9.879   5.163 -0.7027 -0.1649  0.7517
   35BDD    C1728466  -7.203   9.311   5.104  0.6124  0.0327  0.7557
   35BDD    C1828467  -7.292   9.304   4.967 -0.7387  0.4267  0.1995
   35BDD    C1928468  -7.660   9.151   5.499  0.6706  0.0257  0.9374
   35BDD    C2028469  -7.679   9.016   5.414  0.0517 -0.1213  0.6068
   35BDD    C2128470  -7.806   8.931   5.471 -0.1535 -0.4019  1.1717
   35BDD    C2228471  -7.833   8.899   5.612  0.5838 -0.0369 -1.3121
   35BDD    C2328472  -7.746   8.788   5.657 -0.1942 -0.0511 -1.8999
   35BDD    C2428473  -7.697   8.787   5.802  0.7425 -0.8250 -0.6070
   35BDD    C2528474  -7.666   9.029   5.256 -1.0966  0.7857 -0.3730
   35BDD    C2628475  -7.669   8.899   5.171 -0.3139  0.1999 -0.4407
   36TPM     C128476  -7.303   8.906   5.935  1.3566  0.7578  0.1794
   36TPM     C228477  -7.404   8.944   6.018  1.2804  0.9248  0.0113
   36TPM     C328478  -7.449   8.840   6.106  0.3587  0.7181 -0.6616
   36TPM     C428479  -7.381   8.723   6.091 -0.2679  0.3931 -1.0064
   36TPM     S128480  -7.256   8.735   5.962  0.2617  0.3229 -0.5044
   37BDTP    C128481  -7.418   8.161   6.369  0.1371 -0.2775 -0.1632
   37BDTP    C228482  -7.372   8.135   6.236  0.0362 -0.0224 -0.2511
   37BDTP    C328483  -7.353   8.234   6.142 -0.2679  0.1359 -0.1494
   37BDTP    C428484  -7.379   8.367   6.180 -0.4828  0.0386  0.0484
   37BDTP    C528485  -7.425   8.394   6.312 -0.3818 -0.2167  0.1363
   37BDTP    C628486  -7.444   8.294   6.406 -0.0779 -0.3752  0.0345
   37BDTP    C728487  -7.366   8.487   6.099 -0.8092  0.1663  0.1831
   37BDTP    C828488  -7.399   8.601   6.164 -0.9565  0.0215  0.3654
   37BDTP    S128489  -7.452   8.573   6.336 -0.7024 -0.2978  0.3923
   37BDTP    C928490  -7.431   8.041   6.449  0.4636 -0.4055 -0.2978
   37BDTP   C1028491  -7.398   7.927   6.384  0.6108 -0.2604 -0.4802
   37BDTP    S228492  -7.345   7.956   6.212  0.3567  0.0585 -0.5071
   38FTM     S128493  -7.439   8.151   5.908 -0.0233  0.2422 -0.1145
   38FTM     C128494  -7.321   8.088   5.788  0.5503  0.6168  0.2454
   38FTM     C228495  -7.194   8.105   5.834  0.3448  0.7346  0.7753
   38FTM     C328496  -7.182   8.167   5.963 -0.2569  0.5457  0.9303
   38FTM     C428497  -7.303   8.198   6.017 -0.5205  0.2736  0.5050
   38FTM     F128498  -7.082   8.066   5.763  0.6890  1.0214  1.1518
   38FTM     C528499  -7.343   8.058   5.632  0.3633  0.3101 -0.2589
   38FTM     C628500  -7.276   8.115   5.517  0.5869 -0.4999 -0.2722
   38FTM     C728501  -7.279   8.027   5.385  1.0625 -0.5924 -0.0490
   38FTM     C828502  -7.146   7.960   5.346  0.3082 -0.1987 -0.3515
   38FTM     C928503  -7.119   7.849   5.441 -0.0932  0.4874  0.3286
   38FTM    C1028504  -6.970   7.836   5.485  0.4816 -0.1141  0.6165
   38FTM    C1128505  -7.289   8.269   5.515 -0.0693 -0.5034 -0.5095
   38FTM    C1228506  -7.431   8.308   5.506  1.2393 -0.1804 -0.0021
   39FTM     S128507  -7.435   8.317   6.699 -0.2195 -0.2183 -0.2395
   39FTM     C128508  -7.579   8.392   6.776  0.0610 -0.0502  0.1305
   39FTM     C228509  -7.677   8.410   6.683 -0.3220 -0.3514  0.4671
   39FTM     C328510  -7.646   8.367   6.549 -0.8441 -0.7231  0.4579
   39FTM     C428511  -7.521   8.315   6.540 -0.8616 -0.7055  0.1028
   39FTM     F128512  -7.800   8.466   6.713 -0.2223 -0.3092  0.8032
   39FTM     C528513  -7.588   8.421   6.932  0.2153 -0.9585  0.2580
   39FTM     C628514  -7.444   8.440   7.017  0.8445 -0.4968  0.1297
   39FTM     C728515  -7.339   8.536   6.970 -0.5998  0.3512 -1.4236
   39FTM     C828516  -7.229   8.450   6.901  0.5894  0.1126 -0.5798
   39FTM     C928517  -7.093   8.516   6.883  0.3916  0.3535 -0.4026
   39FTM    C1028518  -6.995   8.401   6.910 -0.7491 -2.3450  0.0296
   39FTM    C1128519  -7.465   8.469   7.168  1.3293 -1.0914 -0.1781
   39FTM    C1228520  -7.570   8.377   7.234  0.2731  1.1493  0.0316
   40TPM     C128521  -7.394   7.798   6.431  0.0823  0.5020 -1.2435
   40TPM     C228522  -7.441   7.736   6.544 -1.1586  1.0023 -1.4558
   40TPM     C328523  -7.414   7.595   6.548 -1.7714  0.8907 -0.8075
   40TPM     C428524  -7.345   7.549   6.439 -0.9980  0.3053 -0.1007
   40TPM     S128525  -7.311   7.681   6.322  0.5766 -0.1539 -0.2001
   41BDD     C128526  -7.277   7.159   6.495 -0.2819 -0.4499 -0.0606
   41BDD     C228527  -7.203   7.191   6.384 -0.1268 -0.3617  0.0663
   41BDD     C328528  -7.209   7.332   6.350  0.1049 -0.2936  0.3015
   41BDD     C428529  -7.287   7.405   6.436  0.1235 -0.3308  0.3504
   41BDD     S128530  -7.358   7.303   6.565 -0.1484 -0.4538  0.1054
   41BDD     C528531  -7.125   7.093   6.306 -0.1861 -0.3365 -0.0238
   41BDD     C628532  -7.137   7.389   6.234  0.2997 -0.1940  0.4692
   41BDD     O128533  -7.142   7.510   6.205  0.4995 -0.1354  0.6721
   41BDD     O228534  -7.120   6.971   6.335 -0.3860 -0.3952 -0.2267
   41BDD     C728535  -7.059   7.291   6.156  0.2404 -0.1689  0.3791
   41BDD     C828536  -7.054   7.150   6.190  0.0087 -0.2370  0.1439
   41BDD     C928537  -6.976   7.076   6.104 -0.0099 -0.1997  0.0948
   41BDD     S228538  -6.905   7.179   5.975  0.2619 -0.0768  0.3400
   41BDD    C1028539  -6.986   7.323   6.045  0.3952 -0.0808  0.5059
   41BDD    C1128540  -6.913   7.456   6.014  0.5625  0.9007 -0.3720
   41BDD    C1228541  -7.011   7.533   5.927 -1.5487 -1.3232 -0.8062
   41BDD    C1328542  -6.948   7.675   5.905  0.2634  0.2575 -0.2342
   41BDD    C1428543  -6.896   7.755   6.021 -0.0476 -0.8859  0.3277
   41BDD    C1528544  -6.904   7.902   6.022  0.0898 -0.2126  0.4113
   41BDD    C1628545  -6.779   7.977   5.971  0.4472 -0.6734  0.2353
   41BDD    C1728546  -7.062   7.465   5.795  0.1520 -0.5687  0.3336
   41BDD    C1828547  -7.198   7.514   5.732 -0.5619 -0.2335  0.2104
   41BDD    C1928548  -6.938   6.928   6.109 -0.0456 -0.6021 -0.9955
   41BDD    C2028549  -7.019   6.825   6.044  1.5734 -0.9445  1.3416
   41BDD    C2128550  -7.083   6.843   5.904  1.5964 -0.0280 -0.1298
   41BDD    C2228551  -7.168   6.975   5.899 -0.3571  0.1763 -0.0292
   41BDD    C2328552  -7.153   7.051   5.771  0.4719 -1.7674 -0.0078
   41BDD    C2428553  -7.286   7.117   5.744  0.4319  0.5214  0.0989
   41BDD    C2528554  -6.995   6.674   6.083 -0.5215 -1.1720  1.8436
   41BDD    C2628555  -7.000   6.664   6.231 -1.1366  0.1245 -0.0265
   42TPM     C128556  -7.304   7.027   6.561  0.1433 -0.3925 -0.8437
   42TPM     C228557  -7.286   7.000   6.693  0.9165 -0.5546 -0.9743
   42TPM     C328558  -7.334   6.871   6.734  0.8339 -0.4638 -0.7813
   42TPM     C428559  -7.390   6.799   6.632 -0.0022 -0.2327 -0.5033
   42TPM     S128560  -7.385   6.889   6.476 -0.7560 -0.1107 -0.4636
   43BDTP    C128561  -7.496   6.222   6.850 -0.0541 -0.1905 -0.1005
   43BDTP    C228562  -7.594   6.232   6.748 -0.0232 -0.0205 -0.1128
   43BDTP    C328563  -7.605   6.344   6.666  0.1896 -0.0077 -0.1254
   43BDTP    C428564  -7.515   6.450   6.685  0.3812 -0.1702 -0.1258
   43BDTP    C528565  -7.416   6.439   6.787  0.3504 -0.3405 -0.1135
   43BDTP    C628566  -7.405   6.327   6.869  0.1376 -0.3531 -0.1008
   43BDTP    C728567  -7.507   6.575   6.613  0.6182 -0.1913 -0.1377
   43BDTP    C828568  -7.408   6.658   6.655  0.7649 -0.3667 -0.1347
   43BDTP    S128569  -7.311   6.588   6.792  0.6235 -0.5300 -0.1165
   43BDTP    C928570  -7.504   6.096   6.922 -0.2910 -0.1695 -0.0887
   43BDTP   C1028571  -7.602   6.014   6.880 -0.4377  0.0060 -0.0917
   43BDTP    S228572  -7.699   6.083   6.743 -0.2963  0.1692 -0.1096
   44FTM     S128573  -7.818   6.476   6.554  0.2232 -0.0216 -0.4092
   44FTM     C128574  -7.905   6.402   6.415 -0.3442 -0.3474  0.1102
   44FTM     C228575  -7.854   6.279   6.388 -0.8616 -0.6776  0.5656
   44FTM     C328576  -7.745   6.236   6.471 -0.8485 -0.6967  0.5389
   44FTM     C428577  -7.713   6.329   6.565 -0.3036 -0.3707  0.0472
   44FTM     F128578  -7.901   6.199   6.285 -1.3775 -0.9819  1.0337
   44FTM     C528579  -8.021   6.460   6.346 -0.0599 -0.2329  0.5890
   44FTM     C628580  -7.993   6.579   6.239  1.2702  0.3958  0.7345
   44FTM     C728581  -8.104   6.640   6.144 -0.6680  0.0908 -0.3629
   44FTM     C828582  -8.189   6.755   6.173  1.4888  0.4058  0.0511
   44FTM     C928583  -8.173   6.857   6.072  0.1940  1.4204 -0.9071
   44FTM    C1028584  -8.260   6.831   5.952 -0.0992 -0.8857  0.2966
   44FTM    C1128585  -7.857   6.578   6.157  0.2835  0.6357 -0.2581
   44FTM    C1228586  -7.799   6.705   6.113 -0.8080 -1.0604  0.3800
   45FTM     S128587  -7.205   6.169   6.980  0.0878 -0.1227 -0.0200
   45FTM     C128588  -7.117   6.240   7.121 -0.5347 -0.2284  0.4273
   45FTM     C228589  -7.165   6.365   7.147 -1.1437 -0.5238  0.7690
   45FTM     C328590  -7.270   6.411   7.061 -1.1629 -0.6825  0.7050
   45FTM     C428591  -7.303   6.320   6.966 -0.5486 -0.5024  0.3014
   45FTM     F128592  -7.117   6.444   7.250 -1.7201 -0.6684  1.1598
   45FTM     C528593  -7.014   6.188   7.226  0.1146  0.2928  0.1411
   45FTM     C628594  -6.875   6.130   7.178  0.4012 -0.4021  1.0783
   45FTM     C728595  -6.811   6.140   7.024 -0.4502 -0.1403 -0.0692
   45FTM     C828596  -6.848   6.233   6.897  1.5080 -0.9575 -1.2746
   45FTM     C928597  -6.790   6.183   6.759 -0.0269  0.4546 -1.0498
   45FTM    C1028598  -6.851   6.041   6.721 -0.9877  0.2674  0.4502
   45FTM    C1128599  -6.797   6.067   7.293  1.0686 -1.1228 -0.6897
   45FTM    C1228600  -6.659   5.992   7.283  0.9855  0.0839  0.3412
   46TPM     C128601  -7.635   5.868   6.914 -0.1049 -0.8382  0.3600
   46TPM     C228602  -7.699   5.771   6.842 -0.6111 -0.8991  0.8788
   46TPM     C328603  -7.748   5.662   6.923 -0.9797 -0.3288  1.4381
   46TPM     C428604  -7.722   5.677   7.056 -0.7544  0.1669  1.3460
   46TPM     S128605  -7.632   5.829   7.090 -0.0539 -0.0498  0.5390
   47BDD     C128606  -7.847   5.339   7.214 -0.0369 -0.1590  0.0343
   47BDD     C228607  -7.854   5.431   7.315 -0.0661 -0.1196 -0.0035
   47BDD     C328608  -7.804   5.562   7.277  0.1776 -0.1999  0.0353
   47BDD     C428609  -7.760   5.568   7.147  0.3892 -0.2996  0.1025
   47BDD     S128610  -7.777   5.410   7.064  0.2977 -0.2996  0.1214
   47BDD     C528611  -7.907   5.402   7.449 -0.3191 -0.0066 -0.0769
   47BDD     C628612  -7.802   5.676   7.370  0.1920 -0.1750  0.0045
   47BDD     O128613  -7.759   5.789   7.337  0.4022 -0.2443  0.0380
   47BDD     O228614  -7.950   5.289   7.482 -0.5293  0.0628 -0.1103
   47BDD     C728615  -7.855   5.647   7.505 -0.0610 -0.0619 -0.0688
   47BDD     C828616  -7.905   5.516   7.543 -0.3048  0.0185 -0.1078
   47BDD     C928617  -7.949   5.510   7.672 -0.5164  0.1180 -0.1746
   47BDD     S228618  -7.932   5.668   7.755 -0.4248  0.1181 -0.1936
   47BDD    C1028619  -7.862   5.739   7.606 -0.0903 -0.0225 -0.1068
   47BDD    C1128620  -7.808   5.886   7.603 -0.2626 -0.8549 -0.1694
   47BDD    C1228621  -7.864   6.015   7.548  0.6317 -0.5035 -0.5643
   47BDD    C1328622  -8.017   6.045   7.590 -0.2176  0.9640  2.2766
   47BDD    C1428623  -8.130   5.973   7.509  0.5194  0.9708 -0.1090
   47BDD    C1528624  -8.241   6.045   7.459  1.8183 -0.8439 -1.0185
   47BDD    C1628625  -8.332   5.953   7.375 -0.1126 -0.6433  0.1824
   47BDD    C1728626  -7.782   6.150   7.590  0.9280 -1.0397  1.0718
   47BDD    C1828627  -7.748   6.169   7.733  0.5969 -0.0083 -1.1677
   47BDD    C1928628  -8.013   5.395   7.740  0.2986  0.9375  1.6455
   47BDD    C2028629  -8.158   5.354   7.715  1.2077 -0.2338 -0.1604
   47BDD    C2128630  -8.270   5.470   7.748 -0.4381  2.2447 -0.8045
   47BDD    C2228631  -8.345   5.435   7.867  1.1926  0.8236 -0.2212
   47BDD    C2328632  -8.287   5.454   8.006 -1.1546  0.5921  0.6265
   47BDD    C2428633  -8.383   5.399   8.111 -0.2658 -1.7985  1.9756
   47BDD    C2528634  -8.193   5.211   7.694  0.4850  1.2356  0.0332
   47BDD    C2628635  -8.228   5.177   7.546 -0.9108 -1.4206  1.1287
   48TPM     C128636  -7.886   5.203   7.201 -0.1857 -0.2634  0.4730
   48TPM     C228637  -7.791   5.110   7.227  0.4753  0.1279 -0.4578
   48TPM     C328638  -7.819   4.981   7.169  0.9835  0.2757 -1.0613
   48TPM     C428639  -7.936   4.976   7.100  0.7099 -0.0028 -0.5908
   48TPM     S128640  -8.021   5.135   7.102 -0.2180 -0.4771  0.6608
   49BDTP    C128641  -8.222   4.560   6.727 -0.0560  0.2617  0.1649
   49BDTP    C228642  -8.084   4.528   6.714 -0.0638  0.2192  0.1866
   49BDTP    C328643  -7.984   4.593   6.785 -0.0411  0.2972  0.0833
   49BDTP    C428644  -8.023   4.696   6.873 -0.0093  0.4232 -0.0474
   49BDTP    C528645  -8.161   4.728   6.886 -0.0016  0.4654 -0.0689
   49BDTP    C628646  -8.261   4.662   6.815 -0.0243  0.3874  0.0342
   49BDTP    C728647  -7.938   4.777   6.958  0.0182  0.5212 -0.1698
   49BDTP    C828648  -8.005   4.868   7.032  0.0458  0.6337 -0.2809
   49BDTP    S128649  -8.185   4.863   7.007  0.0409  0.6313 -0.2459
   49BDTP    C928650  -8.307   4.478   6.642 -0.0836  0.1634  0.2872
   49BDTP   C1028651  -8.240   4.387   6.568 -0.1113  0.0508  0.3983
   49BDTP    S228652  -8.060   4.392   6.593 -0.1063  0.0533  0.3634
   50FTM     S128653  -7.714   4.661   6.729  0.3012  0.4835  0.2614
   50FTM     C128654  -7.591   4.549   6.798 -0.3314  0.2060  0.9590
   50FTM     C228655  -7.654   4.445   6.860 -0.9215  0.1819  0.3508
   50FTM     C328656  -7.797   4.447   6.858 -0.9179  0.3732 -0.6696
   50FTM     C428657  -7.846   4.555   6.792 -0.3049  0.5495 -0.8492
   50FTM     F128658  -7.584   4.342   6.923 -1.5000 -0.0148  0.6825
   50FTM     C528659  -7.447   4.569   6.782  0.9007 -0.5673 -0.0258
   50FTM     C628660  -7.330   4.545   6.878 -1.1243 -1.0533  1.0385
   50FTM     C728661  -7.279   4.405   6.923  0.1883 -0.6823  0.9641
   50FTM     C828662  -7.291   4.283   6.813  0.1406  0.8877 -0.5276
   50FTM     C928663  -7.232   4.144   6.847  0.6659 -0.8409 -0.5054
   50FTM    C1028664  -7.213   4.049   6.736 -0.5051  0.0658 -0.3105
   50FTM    C1128665  -7.337   4.655   6.974  0.3456 -0.7603 -0.6528
   50FTM    C1228666  -7.202   4.688   7.009 -0.3893  0.4095 -1.1688
   51FTM     S128667  -8.526   4.654   6.899  0.1075 -0.2525  0.1783
   51FTM     C128668  -8.637   4.775   6.823  0.2189 -0.4958 -0.3788
   51FTM     C228669  -8.568   4.853   6.737  0.4766 -0.3657 -0.0566
   51FTM     C328670  -8.427   4.826   6.725  0.6001 -0.0762  0.6262
   51FTM     C428671  -8.388   4.722   6.805  0.4316  0.0189  0.8340
   51FTM     F128672  -8.627   4.955   6.664  0.6159 -0.5010 -0.3613
   51FTM     C528673  -8.781   4.746   6.854  0.4111  0.5719  1.8616
   51FTM     C628674  -8.873   4.741   6.722 -0.1881 -0.1105 -0.5299
   51FTM     C728675  -8.831   4.648   6.600 -0.7175 -0.6960  1.5346
   51FTM     C828676  -8.832   4.495   6.601  0.3024  0.6011  0.2103
   51FTM     C928677  -8.754   4.450   6.480  0.6377  0.3177  0.7089
   51FTM    C1028678  -8.729   4.295   6.463  1.0125 -2.8830 -1.3594
   51FTM    C1128679  -9.022   4.774   6.723  0.1427 -0.4190  1.4517
   51FTM    C1228680  -9.040   4.886   6.612  1.8813 -0.2708 -0.5477
   52TPM     C128681  -8.294   4.291   6.481 -0.0068  1.4170  0.1780
   52TPM     C228682  -8.236   4.169   6.466  0.3822  1.4842  1.0073
   52TPM     C328683  -8.297   4.088   6.363  0.6486  0.5968  1.5290
   52TPM     C428684  -8.402   4.149   6.301  0.4626 -0.1471  1.0973
   52TPM     S128685  -8.432   4.314   6.367 -0.0674  0.2183 -0.0100
   53BDD     C128686  -8.574   4.111   5.952  0.1040  0.0713 -0.5010
   53BDD     C228687  -8.588   3.990   6.013  0.0820  0.1218 -0.4053
   53BDD     C328688  -8.522   3.982   6.142  0.1518  0.1841 -0.4375
   53BDD     C428689  -8.458   4.098   6.177  0.2261  0.1803 -0.5575
   53BDD     S128690  -8.477   4.225   6.051  0.2138  0.0981 -0.6381
   53BDD     C528691  -8.663   3.876   5.955 -0.0043  0.1147 -0.2806
   53BDD     C628692  -8.523   3.861   6.226  0.1422  0.2453 -0.3483
   53BDD     O128693  -8.466   3.854   6.337  0.2024  0.2991 -0.3761
   53BDD     O228694  -8.720   3.882   5.844 -0.0646  0.0609 -0.2528
   53BDD     C728695  -8.598   3.747   6.168  0.0560  0.2381 -0.2239
   53BDD     C828696  -8.664   3.754   6.039 -0.0139  0.1758 -0.1916
   53BDD     C928697  -8.728   3.638   6.004 -0.0883  0.1797 -0.0716
   53BDD     S228698  -8.709   3.512   6.130 -0.0760  0.2617  0.0091
   53BDD    C1028699  -8.612   3.625   6.229  0.0339  0.2887 -0.1280
   53BDD    C1128700  -8.554   3.559   6.353  0.1930 -1.4404 -1.6000
   53BDD    C1228701  -8.629   3.522   6.479  0.2764 -1.7276  0.6449
   53BDD    C1328702  -8.730   3.410   6.451 -0.9505  0.4126  0.4186
   53BDD    C1428703  -8.859   3.369   6.495 -1.1084 -0.1778 -0.4756
   53BDD    C1528704  -8.972   3.476   6.511  0.7770 -0.6811 -0.0942
   53BDD    C1628705  -9.041   3.523   6.371  0.4889 -0.4108 -0.1830
   53BDD    C1728706  -8.650   3.624   6.604  0.9620  1.1332 -0.3148
   53BDD    C1828707  -8.536   3.602   6.711  0.2252 -0.5199 -1.2995
   53BDD    C1928708  -8.787   3.589   5.871 -0.3036  0.3782 -1.2786
   53BDD    C2028709  -8.705   3.603   5.748 -0.6248 -0.3438  0.6955
   53BDD    C2128710  -8.550   3.553   5.749 -0.2456 -1.0637 -0.8495
   53BDD    C2228711  -8.444   3.633   5.688 -0.9616 -0.9361 -0.2008
   53BDD    C2328712  -8.332   3.563   5.589 -0.0574  0.4518 -0.7429
   53BDD    C2428713  -8.349   3.418   5.538  0.5523  1.0490  2.1800
   53BDD    C2528714  -8.788   3.625   5.619  1.3279  0.5413  1.7383
   53BDD    C2628715  -8.899   3.525   5.579  0.1041 -0.6743  0.5252
   54TPM     C128716  -8.631   4.169   5.831  0.6617  0.6907 -0.7057
   54TPM     C228717  -8.603   4.116   5.708  0.8404  1.1191 -0.8522
   54TPM     C328718  -8.659   4.192   5.599  0.5083  1.1857 -0.6396
   54TPM     C428719  -8.729   4.302   5.639  0.0764  0.8080 -0.3312
   54TPM     S128720  -8.730   4.319   5.818  0.0555  0.3355 -0.2849
   55BDTP    C128721  -8.888   4.719   5.209  0.4706  0.3562 -0.2167
   55BDTP    C228722  -8.907   4.788   5.332  0.5261  0.1273 -0.0792
   55BDTP    C328723  -8.892   4.726   5.456  0.5187 -0.1194 -0.2003
   55BDTP    C428724  -8.856   4.590   5.458  0.4538 -0.1417 -0.4698
   55BDTP    C528725  -8.837   4.521   5.334  0.3984  0.0873 -0.6073
   55BDTP    C628726  -8.853   4.583   5.211  0.4058  0.3338 -0.4861
   55BDTP    C728727  -8.834   4.505   5.573  0.4338 -0.3761 -0.6369
   55BDTP    C828728  -8.801   4.377   5.543  0.3671 -0.3347 -0.8901
   55BDTP    S128729  -8.792   4.347   5.364  0.3200  0.0068 -0.9524
   55BDTP    C928730  -8.910   4.804   5.093  0.4906  0.5904 -0.0495
   55BDTP   C1028731  -8.944   4.931   5.124  0.5574  0.5492  0.2037
   55BDTP    S228732  -8.953   4.962   5.303  0.6046  0.2076  0.2658
   56FTM     S128733  -8.744   4.790   5.691  0.1339 -0.1097  0.0474
   56FTM     C128734  -8.828   4.886   5.818  0.0616  0.4441 -0.4116
   56FTM     C228735  -8.954   4.917   5.778  0.2542  0.7070 -0.8255
   56FTM     C328736  -8.993   4.869   5.649  0.4646  0.4985 -0.8113
   56FTM     C428737  -8.892   4.799   5.588  0.4321  0.0623 -0.3721
   56FTM     F128738  -9.042   4.991   5.855  0.2514  1.1516 -1.2419
   56FTM     C528739  -8.747   4.959   5.943  0.0638  0.5609 -1.2979
   56FTM     C628740  -8.762   4.864   6.068 -1.4983  0.4895  0.0842
   56FTM     C728741  -8.658   4.756   6.071  0.2461  1.8969 -0.8497
   56FTM     C828742  -8.510   4.792   6.111  0.1600  0.2536  0.0980
   56FTM     C928743  -8.479   4.820   6.257 -0.2681 -0.5086 -0.7009
   56FTM    C1028744  -8.328   4.829   6.286  1.1251  0.1929  0.7697
   56FTM    C1128745  -8.866   4.883   6.170 -0.1936 -1.3646  0.4538
   56FTM    C1228746  -8.818   4.903   6.305  0.7626  0.1219 -0.4062
   57FTM     S128747  -8.666   4.470   5.016  0.3651  0.2920  0.1204
   57FTM     C128748  -8.732   4.332   4.920  0.1161  0.3209  0.2466
   57FTM     C228749  -8.863   4.313   4.950  0.1578  0.3979  0.4799
   57FTM     C328750  -8.919   4.401   5.048  0.3805  0.4385  0.5726
   57FTM     C428751  -8.828   4.491   5.094  0.5137  0.3905  0.4047
   57FTM     F128752  -8.940   4.213   4.891 -0.0032  0.4368  0.6235
   57FTM     C528753  -8.661   4.254   4.809  0.9012  0.2921  0.9614
   57FTM     C628754  -8.669   4.254   4.658  1.3988 -0.9067  0.6464
   57FTM     C728755  -8.688   4.123   4.577  0.2491  0.6245 -0.7750
   57FTM     C828756  -8.586   4.001   4.602  0.5493 -1.0893 -0.4701
   57FTM     C928757  -8.516   3.936   4.497 -0.0789 -1.1700  0.9942
   57FTM    C1028758  -8.586   3.828   4.424  0.8682  0.0553  1.3854
   57FTM    C1128759  -8.657   4.389   4.573 -0.7084 -1.4519  0.2538
   57FTM    C1228760  -8.551   4.400   4.463 -0.4688  1.3543 -0.4844
   58TPM     C128761  -8.959   5.053   5.025  0.2055  0.2859 -0.3851
   58TPM     C228762  -8.985   5.186   5.042  0.1123  0.3297 -0.8421
   58TPM     C328763  -9.010   5.256   4.919  0.1912 -0.0838 -1.0988
   58TPM     C428764  -9.004   5.177   4.808  0.3447 -0.4431 -0.8377
   58TPM     S128765  -8.966   5.006   4.851  0.4018 -0.2857 -0.2426
   59BDD     C128766  -9.166   5.369   4.501 -0.3054 -0.3573 -0.2038
   59BDD     C228767  -9.071   5.288   4.447 -0.2130 -0.2699 -0.1734
   59BDD     C328768  -9.002   5.206   4.546 -0.1456 -0.1817 -0.1472
   59BDD     C428769  -9.046   5.227   4.674 -0.1876 -0.2031 -0.1582
   59BDD     S128770  -9.177   5.350   4.679 -0.3145 -0.3355 -0.2019
   59BDD     C528771  -9.039   5.281   4.303 -0.1832 -0.2643 -0.1671
   59BDD     C628772  -8.895   5.111   4.510 -0.0419 -0.0793 -0.1124
   59BDD     O128773  -8.836   5.041   4.595  0.0162 -0.0032 -0.0899
   59BDD     O228774  -9.098   5.352   4.218 -0.2413 -0.3403 -0.1897
   59BDD     C728775  -8.864   5.104   4.366 -0.0120 -0.0737 -0.1062
   59BDD     C828776  -8.932   5.186   4.267 -0.0795 -0.1619 -0.1322
   59BDD     C928777  -8.888   5.165   4.140 -0.0373 -0.1404 -0.1211
   59BDD     S228778  -8.758   5.042   4.134  0.0895 -0.0080 -0.0774
   59BDD    C1028779  -8.768   5.023   4.312  0.0805  0.0138 -0.0755
   59BDD    C1128780  -8.648   4.950   4.378 -1.6980  0.7895  0.1052
   59BDD    C1228781  -8.524   5.042   4.415 -0.5059  0.9715  0.6711
   59BDD    C1328782  -8.476   5.079   4.556  0.6922  0.8076 -0.3139
   59BDD    C1428783  -8.458   4.988   4.677 -0.8197 -0.0077 -0.8318
   59BDD    C1528784  -8.557   4.925   4.777 -2.2190  1.5092  0.4750
   59BDD    C1628785  -8.586   5.039   4.872 -0.0913 -0.0047  0.0856
   59BDD    C1728786  -8.503   5.135   4.300 -0.9519 -0.0729 -1.6478
   59BDD    C1828787  -8.372   5.208   4.257  0.3389 -0.0695 -1.6233
   59BDD    C1928788  -8.958   5.170   4.007  1.5491  0.4061  0.1464
   59BDD    C2028789  -8.925   5.265   3.889 -1.1485  0.3796  1.0062
   59BDD    C2128790  -8.790   5.236   3.827  0.3626  0.1751  0.5158
   59BDD    C2228791  -8.784   5.145   3.710  0.0243 -0.0183  0.8770
   59BDD    C2328792  -8.652   5.147   3.619 -0.1110  0.0753 -0.8188
   59BDD    C2428793  -8.668   5.247   3.507 -0.4913  0.1276  0.1022
   59BDD    C2528794  -8.917   5.399   3.948  1.3583  0.4749  0.3482
   59BDD    C2628795  -8.925   5.513   3.858 -0.6127 -1.0311 -0.0014
   60TPM     C128796  -9.270   5.461   4.457  0.2207  0.0423 -0.3371
   60TPM     C228797  -9.250   5.590   4.419  0.3536 -0.3314 -1.6415
   60TPM     C328798  -9.368   5.655   4.369  0.3519 -0.6244 -2.0237
   60TPM     C428799  -9.478   5.575   4.368  0.2178 -0.4742 -1.0108
   60TPM     S128800  -9.441   5.410   4.432  0.0821  0.0533  0.5162
    1BDTP    C128801   6.037   7.212   5.257 -0.1618 -0.1203  0.1765
    1BDTP    C228802   5.946   7.108   5.222 -0.0364 -0.2074  0.1049
    1BDTP    C328803   5.931   7.062   5.092  0.1383 -0.2489  0.0994
    1BDTP    C428804   6.009   7.120   4.992  0.1915 -0.2028  0.1674
    1BDTP    C528805   6.100   7.224   5.026  0.0659 -0.1156  0.2393
    1BDTP    C628806   6.115   7.271   5.156 -0.1086 -0.0740  0.2449
    1BDTP    C728807   6.011   7.089   4.850  0.3649 -0.2322  0.1759
    1BDTP    C828808   6.098   7.163   4.778  0.3752 -0.1723  0.2495
    1BDTP    S128809   6.190   7.283   4.879  0.1671 -0.0699  0.3186
    1BDTP    C928810   6.035   7.243   5.398 -0.3350 -0.0906  0.1681
    1BDTP   C1028811   5.948   7.169   5.471 -0.3457 -0.1507  0.0942
    1BDTP    S228812   5.856   7.049   5.370 -0.1372 -0.2529  0.0255
    2FTM     S128813   5.668   6.962   5.098 -0.1373  0.4662  0.3167
    2FTM     C128814   5.638   6.797   5.032 -0.5142  0.6483  0.0280
    2FTM     C228815   5.753   6.745   4.983 -0.6280  0.4609 -0.0423
    2FTM     C328816   5.870   6.828   4.994 -0.4336  0.1712  0.1202
    2FTM     C428817   5.842   6.947   5.053 -0.1623  0.1356  0.3214
    2FTM     F128818   5.760   6.619   4.926 -0.9148  0.5405 -0.2577
    2FTM     C528819   5.485   6.730   5.022  0.1217 -0.5316 -0.6540
    2FTM     C628820   5.432   6.662   4.897 -1.2600  1.1803 -0.3835
    2FTM     C728821   5.446   6.507   4.877 -0.3598 -0.1364 -0.5250
    2FTM     C828822   5.320   6.422   4.927  2.0019  0.8981  0.9009
    2FTM     C928823   5.295   6.380   5.075  0.6093 -0.6164  0.7809
    2FTM    C1028824   5.204   6.259   5.074 -0.2315 -0.2876  0.1898
    2FTM    C1128825   5.441   6.732   4.758 -0.3827 -0.9841 -0.9589
    2FTM    C1228826   5.558   6.698   4.661 -0.1235  0.3305 -1.1205
    3FTM     S128827   6.358   7.407   5.095 -0.0956  0.1295  0.0795
    3FTM     C128828   6.416   7.535   5.208 -0.4868  0.0033  0.4312
    3FTM     C228829   6.337   7.540   5.318 -0.4563 -0.5939  0.4833
    3FTM     C328830   6.229   7.446   5.322 -0.1349 -0.9805  0.2584
    3FTM     C428831   6.225   7.367   5.211  0.0882 -0.6690  0.0263
    3FTM     F128832   6.358   7.629   5.422 -0.7179 -0.8259  0.7377
    3FTM     C528833   6.541   7.633   5.205  0.7888 -0.7501  0.6367
    3FTM     C628834   6.501   7.778   5.143 -0.0129  0.3670  0.0885
    3FTM     C728835   6.487   7.905   5.240 -1.0867 -0.1078 -0.4573
    3FTM     C828836   6.623   7.948   5.306  1.3540  0.2885  0.4205
    3FTM     C928837   6.652   7.918   5.455 -1.6887  1.7426  0.7784
    3FTM    C1028838   6.567   8.002   5.561 -1.2433 -0.8413 -0.0378
    3FTM    C1128839   6.443   7.804   5.006  1.2657  0.6632 -0.6522
    3FTM    C1228840   6.483   7.928   4.941 -0.0111 -1.0070  1.0770
    4TPM     C128841   5.911   7.185   5.609 -0.4865 -0.0193 -0.1453
    4TPM     C228842   5.830   7.272   5.677  0.4998  0.7495  0.0966
    4TPM     C328843   5.837   7.257   5.820  1.3347  1.2237  0.1220
    4TPM     C428844   5.922   7.159   5.861  0.9848  0.8167 -0.1005
    4TPM     S128845   6.002   7.078   5.721 -0.4371 -0.2051 -0.3618
    5BDD     C128846   5.912   7.124   6.252 -0.2163 -0.0126 -0.3866
    5BDD     C228847   5.930   6.996   6.208 -0.0376 -0.0241 -0.2774
    5BDD     C328848   5.942   6.985   6.064  0.2331 -0.1009 -0.2509
    5BDD     C428849   5.932   7.105   5.999  0.2566 -0.1472 -0.3405
    5BDD     S128850   5.907   7.240   6.115 -0.0583 -0.0975 -0.4638
    5BDD     C528851   5.938   6.879   6.298 -0.1088  0.0354 -0.1932
    5BDD     C628852   5.962   6.855   5.996  0.4585 -0.1258 -0.1380
    5BDD     O128853   5.972   6.845   5.871  0.6917 -0.1922 -0.1153
    5BDD     O228854   5.928   6.889   6.423 -0.3420  0.1018 -0.2161
    5BDD     C728855   5.970   6.738   6.086  0.3872 -0.0663 -0.0540
    5BDD     C828856   5.959   6.749   6.230  0.1166  0.0106 -0.0805
    5BDD     C928857   5.969   6.629   6.295  0.0931  0.0565  0.0091
    5BDD     S228858   5.994   6.494   6.180  0.4080  0.0069  0.1322
    5BDD    C1028859   5.989   6.610   6.043  0.5660 -0.0780  0.0552
    5BDD    C1128860   6.004   6.532   5.914 -0.9865 -0.0995  0.0846
    5BDD    C1228861   5.888   6.477   5.834 -0.6122 -0.3855 -0.0157
    5BDD    C1328862   5.781   6.593   5.792 -0.7674 -0.2594 -0.4510
    5BDD    C1428863   5.642   6.553   5.777  0.7099  0.7737  0.2402
    5BDD    C1528864   5.591   6.465   5.664  0.0704  0.6482 -0.4581
    5BDD    C1628865   5.436   6.472   5.680 -0.8138  0.1388  1.4832
    5BDD    C1728866   5.906   6.354   5.744 -1.0095 -0.2488 -1.1944
    5BDD    C1828867   5.933   6.376   5.594 -0.1194 -0.4863  0.5813
    5BDD    C1928868   5.992   6.589   6.447  0.5141 -0.1483 -1.0128
    5BDD    C2028869   5.886   6.514   6.535 -0.0289 -0.9781 -0.1087
    5BDD    C2128870   5.925   6.476   6.687 -1.1419 -1.4386  0.6107
    5BDD    C2228871   5.876   6.358   6.772  0.5449 -0.7142  0.4567
    5BDD    C2328872   5.732   6.303   6.746  0.7200 -0.2474  1.4182
    5BDD    C2428873   5.640   6.213   6.833 -0.2798 -0.1204 -0.7039
    5BDD    C2528874   5.740   6.539   6.500 -0.6294 -0.5648  0.4716
    5BDD    C2628875   5.694   6.681   6.541  0.2350  0.4568 -0.0790
    6TPM     C128876   5.878   7.180   6.386 -0.2780 -0.0975  0.0924
    6TPM     C228877   5.967   7.180   6.489 -0.7277 -0.5313  0.4935
    6TPM     C328878   5.925   7.260   6.601 -0.8568 -0.3434  0.3139
    6TPM     C428879   5.804   7.320   6.584 -0.5058  0.2335 -0.2241
    6TPM     S128880   5.733   7.280   6.423  0.0192  0.5872 -0.5482
    7BDTP    C128881   5.447   7.576   7.043  0.0113  0.0957  0.2353
    7BDTP    C228882   5.474   7.690   6.961  0.2420  0.0360  0.2282
    7BDTP    C328883   5.550   7.682   6.845  0.2780 -0.1144  0.2615
    7BDTP    C428884   5.602   7.557   6.809  0.0776 -0.2108  0.3041
    7BDTP    C528885   5.575   7.443   6.890 -0.1527 -0.1513  0.3115
    7BDTP    C628886   5.499   7.451   7.006 -0.1889 -0.0006  0.2778
    7BDTP    C728887   5.684   7.524   6.693  0.0708 -0.3707  0.3440
    7BDTP    C828888   5.719   7.393   6.685 -0.1509 -0.4331  0.3802
    7BDTP    S128889   5.653   7.293   6.822 -0.3822 -0.2981  0.3690
    7BDTP    C928890   5.365   7.609   7.158  0.0182  0.2556  0.1955
    7BDTP   C1028891   5.330   7.739   7.167  0.2400  0.3179  0.1593
    7BDTP    S228892   5.396   7.840   7.030  0.4712  0.1830  0.1704
    8FTM     S128893   5.714   7.932   6.772 -0.1199 -0.0498  0.1133
    8FTM     C128894   5.652   8.019   6.627 -0.1735 -0.1682  0.0647
    8FTM     C228895   5.541   7.957   6.580 -0.0219 -0.3769 -0.0180
    8FTM     C328896   5.498   7.840   6.651  0.1413 -0.4554 -0.0478
    8FTM     C428897   5.579   7.812   6.757  0.1136 -0.3018  0.0141
    8FTM     F128898   5.471   8.001   6.468 -0.0219 -0.5088 -0.0714
    8FTM     C528899   5.721   8.150   6.592  0.6529 -1.0749  1.6418
    8FTM     C628900   5.754   8.299   6.664 -0.2349  0.0714  0.6539
    8FTM     C728901   5.814   8.409   6.564 -1.4572 -0.3226  0.1466
    8FTM     C828902   5.950   8.385   6.517  0.0302 -0.8434  0.6398
    8FTM     C928903   5.978   8.451   6.383 -0.8656  1.0969 -1.3386
    8FTM    C1028904   6.022   8.597   6.370 -0.2339 -0.5430 -0.0523
    8FTM    C1128905   5.665   8.365   6.772 -0.5914  0.7089 -0.5120
    8FTM    C1228906   5.650   8.271   6.900  1.9239  0.4967  0.0940
    9FTM     S128907   5.493   7.288   7.246  0.1943 -0.1171  0.0150
    9FTM     C128908   5.464   7.111   7.225  0.2073 -0.1644  0.3832
    9FTM     C228909   5.430   7.085   7.096  0.0677 -0.4175  0.4703
    9FTM     C328910   5.425   7.197   7.008 -0.0551 -0.5859  0.2609
    9FTM     C428911   5.455   7.314   7.071 -0.0079 -0.4576  0.0053
    9FTM     F128912   5.403   6.957   7.050  0.0428 -0.5118  0.7447
    9FTM     C528913   5.425   7.034   7.346 -0.4271  0.8048 -0.3028
    9FTM     C628914   5.291   6.997   7.391  0.7208 -0.5746  1.3112
    9FTM     C728915   5.184   6.987   7.289 -0.1639 -0.6627 -0.0657
    9FTM     C828916   5.065   7.081   7.297  1.4825 -0.2594 -0.6850
    9FTM     C928917   4.982   7.067   7.188  1.3250  0.3593  0.1400
    9FTM    C1028918   4.934   7.196   7.112 -1.4763  0.2137 -0.2252
    9FTM    C1128919   5.303   6.893   7.496  0.3057 -0.9472 -0.4682
    9FTM    C1228920   5.163   6.846   7.562  0.3927  1.2735  0.1763
   10TPM     C128921   5.255   7.808   7.271  0.5049 -0.6685  0.2425
   10TPM     C228922   5.176   7.913   7.236  0.8339 -0.5162 -0.0534
   10TPM     C328923   5.075   7.945   7.334  0.8206 -0.0327 -0.2180
   10TPM     C428924   5.077   7.864   7.443  0.4813  0.1838 -0.0480
   10TPM     S128925   5.208   7.740   7.431  0.1501 -0.2093  0.3367
   11BDD     C128926   4.856   8.027   7.722  0.1724 -0.5156 -0.4524
   11BDD     C228927   4.875   7.898   7.763  0.0602 -0.5189 -0.4102
   11BDD     C328928   4.956   7.820   7.672  0.1410 -0.5695 -0.2956
   11BDD     C428929   4.998   7.890   7.562  0.3140 -0.6039 -0.2525
   11BDD     S128930   4.938   8.060   7.567  0.3870 -0.5753 -0.3518
   11BDD     C528931   4.819   7.842   7.888 -0.1255 -0.4760 -0.4735
   11BDD     C628932   4.989   7.678   7.696  0.0442 -0.5817 -0.2335
   11BDD     O128933   5.059   7.610   7.617  0.1140 -0.6251 -0.1347
   11BDD     O228934   4.749   7.909   7.967 -0.1954 -0.4324 -0.5722
   11BDD     C728935   4.933   7.622   7.821 -0.1415 -0.5386 -0.2967
   11BDD     C828936   4.852   7.700   7.912 -0.2226 -0.4882 -0.4112
   11BDD     C928937   4.810   7.629   8.022 -0.3954 -0.4535 -0.4544
   11BDD     S228938   4.870   7.460   8.018 -0.4685 -0.4823 -0.3547
   11BDD    C1028939   4.952   7.492   7.862 -0.2539 -0.5419 -0.2542
   11BDD    C1128940   5.060   7.394   7.818 -0.2364 -0.5422 -1.0162
   11BDD    C1228941   5.018   7.313   7.694  0.1232  1.4801 -1.4366
   11BDD    C1328942   4.891   7.210   7.712  0.5530  0.8998  0.1678
   11BDD    C1428943   4.863   7.108   7.601  0.9609  0.1568 -0.1138
   11BDD    C1528944   4.745   7.018   7.638 -0.8634 -0.2379  0.8164
   11BDD    C1628945   4.681   6.965   7.524  0.7244  0.0909  0.1031
   11BDD    C1728946   5.127   7.241   7.627 -0.2131  1.4284  0.5701
   11BDD    C1828947   5.223   7.315   7.562 -0.4967 -0.2450 -0.6575
   11BDD    C1928948   4.736   7.676   8.148 -0.4563  0.0041 -1.1710
   11BDD    C2028949   4.804   7.638   8.290 -1.0574 -0.7206 -0.6861
   11BDD    C2128950   4.962   7.693   8.314 -0.4545 -0.3153  0.3224
   11BDD    C2228951   5.032   7.833   8.276  0.0513  0.2753 -0.4608
   11BDD    C2328952   5.003   7.942   8.375 -1.3546  0.5420 -1.5023
   11BDD    C2428953   4.882   8.028   8.342  1.0508 -0.3160 -0.2798
   11BDD    C2528954   4.710   7.683   8.395  0.2839  1.0626 -1.1581
   11BDD    C2628955   4.739   7.629   8.540  1.2723  0.3333  0.3216
   12TPM     C128956   4.798   8.132   7.783 -0.5311  0.5406  0.1444
   12TPM     C228957   4.690   8.196   7.730 -0.6546  0.8123  0.7163
   12TPM     C328958   4.658   8.320   7.797 -0.2807  0.6602  1.1882
   12TPM     C428959   4.742   8.349   7.900  0.1280  0.2722  0.9761
   12TPM     S128960   4.868   8.223   7.922  0.0718  0.0676  0.1576
   13BDTP    C128961   4.753   8.811   8.310  0.2139  0.3572 -0.3371
   13BDTP    C228962   4.650   8.851   8.219 -0.1318 -0.1204 -0.1616
   13BDTP    C328963   4.613   8.775   8.109  0.0085 -0.3123 -0.0777
   13BDTP    C428964   4.681   8.654   8.087  0.5133 -0.0200 -0.1702
   13BDTP    C528965   4.784   8.614   8.177  0.8591  0.4578 -0.3452
   13BDTP    C628966   4.821   8.690   8.287  0.7188  0.6498 -0.4292
   13BDTP    C728967   4.660   8.559   7.980  0.7460 -0.1394 -0.1108
   13BDTP    C828968   4.741   8.450   7.985  1.2432  0.2208 -0.2308
   13BDTP    S128969   4.855   8.454   8.126  1.4869  0.7620 -0.4363
   13BDTP    C928970   4.774   8.907   8.417 -0.0188  0.4768 -0.3967
   13BDTP   C1028971   4.693   9.015   8.411 -0.5162  0.1168 -0.2766
   13BDTP    S228972   4.578   9.011   8.270 -0.7598 -0.4245 -0.0709
   14FTM     S128973   4.357   8.773   7.997 -0.2010 -0.0336 -0.3514
   14FTM     C128974   4.319   8.881   7.858 -0.5090  0.6461  0.2491
   14FTM     C228975   4.432   8.946   7.817 -0.6518  1.0450  0.4777
   14FTM     C328976   4.551   8.916   7.890 -0.5333  0.8509  0.2065
   14FTM     C428977   4.530   8.826   7.989 -0.2921  0.2852 -0.2447
   14FTM     F128978   4.433   9.036   7.712 -0.8982  1.6093  0.9462
   14FTM     C528979   4.180   8.880   7.797  1.4408 -1.8459  1.4798
   14FTM     C628980   4.078   8.990   7.843 -0.3511 -1.4170 -0.9104
   14FTM     C728981   3.934   8.983   7.784 -0.2258 -0.1902  0.1358
   14FTM     C828982   3.870   8.842   7.756 -0.4122 -0.3121  0.2561
   14FTM     C928983   3.748   8.840   7.658  0.5784  0.9324  0.4477
   14FTM    C1028984   3.779   8.832   7.497  0.5625 -0.5851 -0.0856
   14FTM    C1128985   4.055   9.054   7.994  0.2051  0.6531  2.1936
   14FTM    C1228986   4.149   9.145   8.056 -0.2824 -0.1488 -0.1459
   15FTM     S128987   5.033   8.775   8.484  0.8541  0.0570 -0.1314
   15FTM     C128988   5.130   8.638   8.550  0.3310 -0.1494  0.2285
   15FTM     C228989   5.095   8.522   8.489 -0.4741 -0.2701  0.8945
   15FTM     C328990   4.992   8.532   8.390 -0.7277 -0.2117  1.1597
   15FTM     C428991   4.947   8.660   8.374 -0.0957 -0.0398  0.6803
   15FTM     F128992   5.153   8.400   8.520 -1.0298 -0.4413  1.3046
   15FTM     C528993   5.251   8.649   8.654 -0.3567  1.3571  1.2164
   15FTM     C628994   5.404   8.663   8.612  0.0201 -0.0659 -0.2153
   15FTM     C728995   5.457   8.531   8.550  1.2922 -0.1767  0.7095
   15FTM     C828996   5.575   8.513   8.460  0.8166 -1.0497  0.9826
   15FTM     C928997   5.569   8.404   8.340  1.2551  0.9504 -0.6227
   15FTM    C1028998   5.561   8.460   8.197 -0.3458 -0.0730  2.0698
   15FTM    C1128999   5.441   8.802   8.541  0.1078 -0.3709  0.0410
   15FTM    C1229000   5.445   8.936   8.603  0.4835  0.3855 -1.6414
   16TPM     C129001   4.676   9.104   8.532  0.2239 -0.6280  1.0750
   16TPM     C229002   4.753   9.096   8.645 -0.2768 -0.7155  1.4184
   16TPM     C329003   4.699   9.168   8.757 -0.5164 -0.3560  1.0772
   16TPM     C429004   4.580   9.231   8.730 -0.1980  0.0054  0.4736
   16TPM     S129005   4.528   9.203   8.560  0.4334 -0.0809  0.2878
   17BDD     C129006   4.437   9.543   8.942 -0.1962  0.0802 -0.0793
   17BDD     C229007   4.457   9.443   9.034 -0.1208  0.1247 -0.0460
   17BDD     C329008   4.500   9.318   8.975  0.2155  0.2077  0.0217
   17BDD     C429009   4.514   9.324   8.839  0.3915  0.2252  0.0392
   17BDD     S129010   4.473   9.487   8.776  0.1488  0.1388 -0.0277
   17BDD     C529011   4.435   9.460   9.180 -0.3552  0.0930 -0.0758
   17BDD     C629012   4.527   9.197   9.056  0.3498  0.2668  0.0660
   17BDD     O129013   4.565   9.089   9.005  0.6398  0.3386  0.1242
   17BDD     O229014   4.398   9.568   9.230 -0.6453  0.0215 -0.1342
   17BDD     C729015   4.506   9.214   9.201  0.1154  0.2346  0.0367
   17BDD     C829016   4.462   9.339   9.260 -0.2209  0.1516 -0.0310
   17BDD     C929017   4.449   9.333   9.396 -0.3970  0.1345 -0.0489
   17BDD     S229018   4.490   9.171   9.460 -0.1541  0.2208  0.0181
   17BDD    C1029019   4.525   9.114   9.293  0.1909  0.2794  0.0694
   17BDD    C1129020   4.521   8.965   9.289 -0.0372  0.8583 -1.2893
   17BDD    C1229021   4.383   8.893   9.337  0.6199 -1.0037  0.1278
   17BDD    C1329022   4.307   8.897   9.464  0.1906  0.7192 -0.3199
   17BDD    C1429023   4.361   8.816   9.576 -0.3123  0.1092  0.1252
   17BDD    C1529024   4.268   8.800   9.701 -0.5905  0.1624  0.7258
   17BDD    C1629025   4.180   8.680   9.666  0.4979 -0.0960  0.2413
   17BDD    C1729026   4.347   8.775   9.256  0.9999 -0.8656  0.5416
   17BDD    C1829027   4.203   8.749   9.223  1.8316  1.6158  0.4245
   17BDD    C1929028   4.437   9.437   9.498  0.8406  0.0707 -0.2330
   17BDD    C2029029   4.564   9.460   9.588 -0.3861  0.5809  0.0540
   17BDD    C2129030   4.700   9.448   9.527  0.3784  0.9283 -0.2488
   17BDD    C2229031   4.797   9.563   9.576 -0.2038  0.3384  0.1404
   17BDD    C2329032   4.936   9.550   9.515 -0.0806  0.6977 -0.4722
   17BDD    C2429033   5.020   9.673   9.487  0.1974 -0.0968  0.5607
   17BDD    C2529034   4.552   9.426   9.742 -0.0413 -1.3099  1.3983
   17BDD    C2629035   4.604   9.296   9.779 -0.4310 -0.2984  1.0019
   18TPM     C129036   4.406   9.679   8.949  0.1491  0.3690 -0.1534
   18TPM     C229037   4.454   9.765   9.043  0.3831  0.6073 -0.4866
   18TPM     C329038   4.428   9.904   9.013  0.4406  0.5419 -0.8445
   18TPM     C429039   4.361   9.923   8.896  0.2504  0.2534 -0.7844
   18TPM     S129040   4.325   9.766   8.814 -0.0180  0.0407 -0.2667
   19BDTP    C129041   4.251  10.425   8.536 -0.3281 -0.2725 -0.3014
   19BDTP    C229042   4.162  10.447   8.645 -0.0913  0.0052 -0.1621
   19BDTP    C329043   4.148  10.358   8.751 -0.0329  0.1616 -0.0212
   19BDTP    C429044   4.226  10.241   8.749 -0.2162  0.0386 -0.0179
   19BDTP    C529045   4.315  10.218   8.640 -0.4530 -0.2389 -0.1574
   19BDTP    C629046   4.329  10.308   8.535 -0.5114 -0.3953 -0.2980
   19BDTP    C729047   4.229  10.134   8.847 -0.1987  0.1593  0.1140
   19BDTP    C829048   4.315  10.034   8.817 -0.4083 -0.0122  0.0803
   19BDTP    S129049   4.405  10.060   8.661 -0.6573 -0.3505 -0.1228
   19BDTP    C929050   4.248  10.531   8.438 -0.3457 -0.3932 -0.4332
   19BDTP   C1029051   4.162  10.632   8.468 -0.1361 -0.2217 -0.3996
   19BDTP    S229052   4.073  10.605   8.624  0.1130  0.1171 -0.1966
   20FTM     S129053   3.880  10.400   8.842 -0.2171 -0.2430  0.2044
   20FTM     C129054   3.867  10.460   9.011 -0.3551 -0.0628  0.1302
   20FTM     C229055   3.990  10.460   9.070 -0.4387 -0.2248  0.3068
   20FTM     C329056   4.099  10.414   8.989 -0.4016 -0.4926  0.5057
   20FTM     C429057   4.058  10.378   8.864 -0.2857 -0.5373  0.4804
   20FTM     F129058   4.011  10.501   9.201 -0.5538 -0.1404  0.2990
   20FTM     C529059   3.737  10.501   9.075 -0.5473  0.4967 -0.7538
   20FTM     C629060   3.738  10.652   9.102  1.1117 -0.6833 -0.2567
   20FTM     C729061   3.697  10.744   8.979  0.2418 -0.6176  1.0749
   20FTM     C829062   3.805  10.760   8.871 -0.1257  0.0713  0.2570
   20FTM     C929063   3.869  10.891   8.888 -0.0631 -0.8471  1.1490
   20FTM    C1029064   4.015  10.903   8.810  0.3299  0.8026  1.2783
   20FTM    C1129065   3.669  10.710   9.218  0.6615  0.6637 -0.9474
   20FTM    C1229066   3.710  10.689   9.352  1.2019  0.1821 -1.3679
   21FTM     S129067   4.576  10.326   8.370 -0.2702  0.0347 -0.4989
   21FTM     C129068   4.591  10.198   8.244 -0.1253 -0.3984 -0.0475
   21FTM     C229069   4.483  10.116   8.249 -0.2066 -0.2890  0.0110
   21FTM     C329070   4.385  10.146   8.349 -0.3822  0.1278 -0.2842
   21FTM     C429071   4.418  10.256   8.423 -0.4374  0.3448 -0.5786
   21FTM     F129072   4.467  10.007   8.164 -0.1270 -0.5603  0.3357
   21FTM     C529073   4.713  10.190   8.151  1.8409  0.1192 -1.2643
   21FTM     C629074   4.808  10.072   8.172 -0.0751 -0.7197 -1.0336
   21FTM     C729075   4.787   9.940   8.139 -0.5220  0.3195  0.7824
   21FTM     C829076   4.767   9.911   7.985 -0.3147  1.2837 -0.5857
   21FTM     C929077   4.867   9.943   7.881  0.5712  0.3960 -0.7621
   21FTM    C1029078   4.902  10.085   7.856  0.0534  0.4488 -0.2733
   21FTM    C1129079   4.891  10.077   8.306  0.7633  0.4068  1.7368
   21FTM    C1229080   5.051  10.075   8.278  0.5117 -0.3505 -0.0537
   22TPM     C129081   4.154  10.747   8.379  0.3513  0.2554  0.2399
   22TPM     C229082   4.072  10.856   8.382  1.0904  0.8121  1.0111
   22TPM     C329083   4.085  10.941   8.266  0.7730  0.8619  1.0104
   22TPM     C429084   4.177  10.897   8.175 -0.2081  0.3433  0.2385
   22TPM     S129085   4.254  10.743   8.229 -0.8120 -0.2528 -0.5532
   23BDD     C129086   4.360  11.011   7.836  0.1170  0.0765 -0.1538
   23BDD     C229087   4.231  11.050   7.818  0.1042  0.0746 -0.0725
   23BDD     C329088   4.144  11.020   7.930  0.1388 -0.0830 -0.0881
   23BDD     C429089   4.210  10.958   8.033  0.1769 -0.1988 -0.1810
   23BDD     S129090   4.383  10.933   7.997  0.1727 -0.1187 -0.2556
   23BDD     C529091   4.181  11.117   7.695  0.0603  0.2177  0.0225
   23BDD     C629092   4.000  11.053   7.932  0.1324 -0.1125 -0.0101
   23BDD     O129093   3.926  11.027   8.029  0.1621 -0.2487 -0.0234
   23BDD     O229094   4.256  11.143   7.598  0.0306  0.3533  0.0360
   23BDD     C729095   3.951  11.119   7.809  0.0885  0.0300  0.0850
   23BDD     C829096   4.037  11.150   7.697  0.0539  0.1876  0.1006
   23BDD     C929097   3.972  11.212   7.593  0.0156  0.3033  0.1936
   23BDD     S229098   3.798  11.236   7.630  0.0201  0.2235  0.2680
   23BDD    C1029099   3.821  11.158   7.790  0.0758  0.0279  0.1664
   23BDD    C1129100   3.703  11.161   7.896 -1.5779  1.0056  0.1856
   23BDD    C1229101   3.592  11.055   7.923  1.2948  0.5691 -1.3172
   23BDD    C1329102   3.477  11.047   7.815 -1.1463 -0.6183 -1.2506
   23BDD    C1429103   3.500  11.015   7.675  1.0786  0.3625  0.3041
   23BDD    C1529104   3.416  11.123   7.573  0.9704  0.3252 -0.2070
   23BDD    C1629105   3.427  11.113   7.411  0.4318 -0.8188 -0.5757
   23BDD    C1729106   3.635  10.902   7.962 -0.1512 -0.9813 -1.0694
   23BDD    C1829107   3.616  10.856   8.113  0.9921 -0.5148 -0.7952
   23BDD    C1929108   4.002  11.249   7.449 -1.0252 -0.4536  1.2820
   23BDD    C2029109   4.113  11.361   7.439 -0.5065  0.6391  0.5054
   23BDD    C2129110   4.210  11.404   7.324 -0.6180  0.4706 -0.4598
   23BDD    C2229111   4.272  11.283   7.261 -0.3181  0.0023  1.0410
   23BDD    C2329112   4.386  11.321   7.165 -0.5259  0.5982 -1.5413
   23BDD    C2429113   4.470  11.211   7.153 -0.0254  0.8782  2.3159
   23BDD    C2529114   4.036  11.488   7.491 -0.8019 -1.0274 -0.4799
   23BDD    C2629115   4.111  11.606   7.555  0.2412  0.8624 -0.8822
   24TPM     C129116   4.494  11.027   7.756  0.1963 -0.2593  0.3484
   24TPM     C229117   4.580  11.132   7.772  0.4926 -0.5352  0.5859
   24TPM     C329118   4.689  11.132   7.679  0.3613 -0.5050  0.4309
   24TPM     C429119   4.687  11.027   7.591 -0.0347 -0.2062  0.0751
   24TPM     S129120   4.545  10.920   7.620 -0.2749  0.0623 -0.0929
   25BDTP    C129121   4.954  10.583   7.270  0.2745 -0.0746 -0.0652
   25BDTP    C229122   5.033  10.586   7.388  0.0992 -0.0854  0.0529
   25BDTP    C329123   5.019  10.684   7.485 -0.2025 -0.2236  0.1509
   25BDTP    C429124   4.922  10.784   7.465 -0.3383 -0.3581  0.1317
   25BDTP    C529125   4.843  10.781   7.346 -0.1630 -0.3479  0.0137
   25BDTP    C629126   4.857  10.683   7.249  0.1389 -0.2096 -0.0845
   25BDTP    C729127   4.889  10.896   7.551 -0.6468 -0.5141  0.2192
   25BDTP    C829128   4.790  10.976   7.504 -0.7107 -0.6201  0.1731
   25BDTP    S129129   4.725  10.921   7.343 -0.3893 -0.5372  0.0124
   25BDTP    C929130   4.987  10.471   7.183  0.5831  0.0813 -0.1527
   25BDTP   C1029131   5.085  10.392   7.231  0.6471  0.1872 -0.1066
   25BDTP    S229132   5.151  10.447   7.391  0.3255  0.1042  0.0541
   26FTM     S129133   5.186  10.589   7.699 -0.2024 -0.0861  0.4933
   26FTM     C129134   5.312  10.706   7.754 -0.2052  0.0015  0.3146
   26FTM     C229135   5.299  10.823   7.686  0.0914 -0.2615 -0.2096
   26FTM     C329136   5.193  10.829   7.590  0.3332 -0.5410 -0.4973
   26FTM     C429137   5.122  10.712   7.584  0.2178 -0.4898 -0.1830
   26FTM     F129138   5.382  10.932   7.707  0.1618 -0.2651 -0.4600
   26FTM     C529139   5.375  10.651   7.869 -1.2739  1.1417 -0.5670
   26FTM     C629140   5.310  10.620   8.007 -0.9313 -0.3140 -0.5821
   26FTM     C729141   5.200  10.716   8.058 -0.5189 -0.9867  0.2682
   26FTM     C829142   5.052  10.714   8.022 -0.9110 -0.9001 -0.3286
   26FTM     C929143   4.975  10.587   8.076  0.3427  0.0925  0.3558
   26FTM    C1029144   4.879  10.608   8.205  0.2830 -0.1367 -0.4852
   26FTM    C1129145   5.394  10.579   8.129 -1.0668  0.9709 -0.6013
   26FTM    C1229146   5.309  10.499   8.231 -0.4559  0.3773  0.2895
   27FTM     S129147   4.818  10.624   6.970  0.1852  0.1073  0.4152
   27FTM     C129148   4.645  10.605   6.926  0.2812  0.6737 -0.2252
   27FTM     C229149   4.566  10.638   7.031 -0.0057  0.9980 -0.5368
   27FTM     C329150   4.634  10.680   7.151 -0.3104  0.8297 -0.3022
   27FTM     C429151   4.769  10.677   7.136 -0.2550  0.3616  0.2058
   27FTM     F129152   4.427  10.634   7.026 -0.0097  1.4663 -1.0529
   27FTM     C529153   4.608  10.566   6.789 -0.6339  0.6667 -0.6243
   27FTM     C629154   4.643  10.417   6.747  0.0294  0.3597  1.8131
   27FTM     C729155   4.566  10.345   6.627  0.3731 -1.6464 -0.6946
   27FTM     C829156   4.421  10.302   6.648 -0.3281 -0.1742 -0.0112
   27FTM     C929157   4.331  10.337   6.533  0.7048 -0.4182  0.2745
   27FTM    C1029158   4.352  10.270   6.389  1.3337 -0.3154 -0.0528
   27FTM    C1129159   4.791  10.389   6.735 -0.9636  0.2729  0.6723
   27FTM    C1229160   4.862  10.428   6.600  1.4702  0.5575  0.0837
   28TPM     C129161   5.129  10.270   7.170 -0.5402 -0.2680  0.4718
   28TPM     C229162   5.165  10.152   7.226 -1.0968 -0.5932  0.1668
   28TPM     C329163   5.230  10.061   7.135 -0.7299 -0.3033  0.1315
   28TPM     C429164   5.242  10.110   7.008  0.1067  0.2429  0.4098
   28TPM     S129165   5.173  10.276   6.995  0.4990  0.4351  0.7403
   29BDD     C129166   5.524  10.027   6.745  0.0750  0.1041 -0.1842
   29BDD     C229167   5.482   9.906   6.795  0.2539  0.0699 -0.1165
   29BDD     C329168   5.376   9.918   6.892  0.6167  0.0038  0.2929
   29BDD     C429169   5.338  10.047   6.916  0.7090 -0.0117  0.5313
   29BDD     S129170   5.433  10.163   6.817  0.3483  0.0563  0.2598
   29BDD     C529171   5.539   9.776   6.754  0.0979  0.0961 -0.4256
   29BDD     C629172   5.316   9.801   6.959  0.8583 -0.0424  0.4326
   29BDD     O129173   5.224   9.811   7.043  1.1711 -0.0994  0.7855
   29BDD     O229174   5.631   9.766   6.670 -0.2148  0.1531 -0.7786
   29BDD     C729175   5.372   9.670   6.918  0.7025 -0.0157  0.1236
   29BDD     C829176   5.479   9.659   6.821  0.3397  0.0503 -0.2857
   29BDD     C929177   5.517   9.529   6.797  0.2472  0.0653 -0.5243
   29BDD     S229178   5.422   9.414   6.896  0.6081 -0.0023 -0.2526
   29BDD    C1029179   5.331   9.550   6.968  0.8813 -0.0503  0.1912
   29BDD    C1129180   5.217   9.514   7.049  0.0483  0.4711 -1.3324
   29BDD    C1229181   5.224   9.492   7.208 -1.5756 -0.7955  0.2839
   29BDD    C1329182   5.079   9.487   7.249 -0.8536 -0.7859 -0.5818
   29BDD    C1429183   5.039   9.478   7.392 -0.5053 -0.8608  0.4053
   29BDD    C1529184   4.882   9.469   7.387 -0.6424 -1.2173  1.0148
   29BDD    C1629185   4.799   9.364   7.446 -0.8465 -1.0858 -0.0233
   29BDD    C1729186   5.325   9.566   7.293 -0.3955  0.3766  0.5155
   29BDD    C1829187   5.451   9.483   7.324  0.5525 -0.3778 -0.4620
   29BDD    C1929188   5.633   9.460   6.733  0.4284 -0.3676  1.1241
   29BDD    C2029189   5.634   9.442   6.580 -1.0640  0.1700 -2.0698
   29BDD    C2129190   5.520   9.375   6.517  1.3629  0.9801  1.1957
   29BDD    C2229191   5.464   9.453   6.394  0.0570  0.0004  0.3385
   29BDD    C2329192   5.427   9.375   6.264  1.0027 -1.0634  0.4794
   29BDD    C2429193   5.540   9.328   6.179 -0.5976 -0.2277  1.1244
   29BDD    C2529194   5.776   9.403   6.532  0.6340 -0.0923 -1.0257
   29BDD    C2629195   5.809   9.506   6.427 -0.2670  0.0534 -0.7908
   30TPM     C129196   5.628  10.081   6.666 -0.0910  0.7679 -0.7982
   30TPM     C229197   5.689  10.194   6.712 -0.1684  1.1196 -1.5366
   30TPM     C329198   5.820  10.216   6.656  0.0520  0.5355 -1.2676
   30TPM     C429199   5.859  10.120   6.568  0.2977 -0.2616 -0.3239
   30TPM     S129200   5.733   9.992   6.548  0.2694 -0.3369  0.3027
   31BDTP    C129201   6.489  10.057   6.581 -0.1993 -0.2787  0.4388
   31BDTP    C229202   6.445   9.924   6.605 -0.1810 -0.3102  0.2970
   31BDTP    C329203   6.311   9.888   6.605 -0.1671 -0.3684  0.0602
   31BDTP    C429204   6.216   9.988   6.581 -0.1717 -0.3970 -0.0415
   31BDTP    C529205   6.259  10.121   6.557 -0.1900 -0.3655  0.1006
   31BDTP    C629206   6.393  10.158   6.557 -0.2039 -0.3069  0.3371
   31BDTP    C729207   6.071   9.974   6.577 -0.1597 -0.4574 -0.2822
   31BDTP    C829208   6.006  10.090   6.551 -0.1682 -0.4721 -0.3273
   31BDTP    S129209   6.117  10.232   6.529 -0.1925 -0.4117 -0.0713
   31BDTP    C929210   6.633  10.071   6.585 -0.2112 -0.2182  0.6796
   31BDTP   C1029211   6.699   9.955   6.611 -0.2028 -0.2036  0.7248
   31BDTP    S229212   6.588   9.813   6.633 -0.1785 -0.2636  0.4686
   32FTM     S129213   6.189   9.719   6.806  0.4838 -0.2405  0.6307
   32FTM     C129214   6.128   9.560   6.749 -0.1635 -0.0917  0.8914
   32FTM     C229215   6.169   9.537   6.621 -0.8339 -0.1643  0.6818
   32FTM     C329216   6.248   9.641   6.562 -0.8841 -0.3357  0.3146
   32FTM     C429217   6.269   9.745   6.646 -0.2305 -0.3966  0.2406
   32FTM     F129218   6.136   9.422   6.551 -1.4420 -0.0794  0.8100
   32FTM     C529219   6.031   9.484   6.843 -0.2871 -0.0126  1.0214
   32FTM     C629220   6.063   9.476   7.002 -0.0875  0.0203  1.2044
   32FTM     C729221   5.934   9.493   7.090  0.5653  0.1472  0.2633
   32FTM     C829222   5.875   9.638   7.096 -1.7737  0.2574 -0.4686
   32FTM     C929223   5.790   9.656   7.225  1.6327 -0.8847  0.6694
   32FTM    C1029224   5.790   9.803   7.262  1.4570 -0.2024  1.0197
   32FTM    C1129225   6.160   9.360   7.032 -0.3349 -1.0560 -1.1733
   32FTM    C1229226   6.096   9.256   7.132 -1.0620 -0.2747  0.7131
   33FTM     S129227   6.585  10.307   6.419  0.1610  0.2305 -0.1421
   33FTM     C129228   6.574  10.486   6.434  0.3386  0.2378 -0.0882
   33FTM     C229229   6.473  10.519   6.519  0.1042  0.3197 -0.3941
   33FTM     C329230   6.400  10.410   6.576 -0.2199  0.3805 -0.6822
   33FTM     C429231   6.447  10.289   6.534 -0.2342  0.3434 -0.5937
   33FTM     F129232   6.441  10.650   6.550  0.1692  0.3448 -0.4314
   33FTM     C529233   6.677  10.565   6.365 -1.1830 -0.0519  0.7907
   33FTM     C629234   6.615  10.624   6.229 -0.6351  1.1722  0.3973
   33FTM     C729235   6.719  10.592   6.126  0.3617  0.8631 -0.9329
   33FTM     C829236   6.684  10.610   5.971  0.0600 -0.4455 -0.7328
   33FTM     C929237   6.777  10.713   5.904 -0.4652  0.9899  0.6998
   33FTM    C1029238   6.795  10.859   5.922 -0.3885 -1.0669 -0.3346
   33FTM    C1129239   6.606  10.769   6.257  0.0300 -0.7085 -0.5622
   33FTM    C1229240   6.509  10.863   6.193 -1.1393  0.9226  0.2565
   34TPM     C129241   6.835   9.943   6.639  0.3124  0.1621  0.0473
   34TPM     C229242   6.898   9.829   6.680  0.0416  0.0713  0.2093
   34TPM     C329243   7.018   9.852   6.756  0.0225 -0.1061  0.2961
   34TPM     C429244   7.048   9.984   6.772  0.2786 -0.1505  0.2003
   34TPM     S129245   6.925  10.090   6.693  0.5659  0.0300 -0.0085
   35BDD     C129246   7.305   9.995   7.068  0.1280 -0.2279 -0.0492
   35BDD     C229247   7.270  10.125   7.045  0.0795 -0.2241  0.0446
   35BDD     C329248   7.184  10.142   6.929  0.0454 -0.1760  0.0765
   35BDD     C429249   7.156  10.025   6.865  0.0684 -0.1440  0.0066
   35BDD     S129250   7.234   9.885   6.946  0.1342 -0.1714 -0.1038
   35BDD     C529251   7.313  10.239   7.129  0.0629 -0.2644  0.1082
   35BDD     C629252   7.134  10.274   6.885 -0.0087 -0.1636  0.1751
   35BDD     O129253   7.061  10.289   6.785 -0.0380 -0.1221  0.2027
   35BDD     O229254   7.387  10.224   7.229  0.0923 -0.3061  0.0807
   35BDD     C729255   7.178  10.388   6.969 -0.0253 -0.2041  0.2388
   35BDD     C829256   7.263  10.371   7.085  0.0088 -0.2522  0.2068
   35BDD     C929257   7.292  10.488   7.149 -0.0141 -0.2844  0.2767
   35BDD     S229258   7.214  10.628   7.068 -0.0797 -0.2566  0.3872
   35BDD    C1029259   7.143  10.518   6.946 -0.0737 -0.2003  0.3325
   35BDD    C1129260   7.059  10.588   6.845  0.7759  0.2507 -0.0752
   35BDD    C1229261   6.900  10.616   6.836 -0.3980 -0.4210 -0.5138
   35BDD    C1329262   6.837  10.668   6.967 -0.2845 -0.3100 -0.2707
   35BDD    C1429263   6.689  10.655   6.993  0.1449 -1.0693 -0.4007
   35BDD    C1529264   6.638  10.714   7.124 -0.0619  0.0815  0.2231
   35BDD    C1629265   6.495  10.648   7.125  0.6364 -0.4937 -0.1074
   35BDD    C1729266   6.868  10.714   6.719 -1.1433 -0.5199 -0.1337
   35BDD    C1829267   6.906  10.862   6.724 -0.6197 -0.3396 -0.0922
   35BDD    C1929268   7.330  10.528   7.281  0.0580  0.1508 -0.4697
   35BDD    C2029269   7.391  10.670   7.298  0.1578 -0.3784 -0.4007
   35BDD    C2129270   7.287  10.762   7.363 -0.5117 -0.0154  0.7629
   35BDD    C2229271   7.329  10.893   7.411  1.1387  1.3213  0.6356
   35BDD    C2329272   7.230  10.972   7.488 -0.1138 -0.9422  0.0071
   35BDD    C2429273   7.162  11.068   7.390 -0.5343 -0.8124  0.4817
   35BDD    C2529274   7.509  10.724   7.192  1.4335  0.5863 -0.8446
   35BDD    C2629275   7.611  10.607   7.176 -0.1599  0.1627 -0.9050
   36TPM     C129276   7.423   9.932   7.132  0.1252 -0.0450 -0.1776
   36TPM     C229277   7.505   9.853   7.057  0.0682 -0.4055  0.1298
   36TPM     C329278   7.621   9.807   7.127  0.0703 -0.1559  0.2931
   36TPM     C429279   7.628   9.850   7.256  0.1289  0.3950  0.1106
   36TPM     S129280   7.487   9.954   7.300  0.1866  0.6435 -0.2852
   37BDTP    C129281   8.054   9.658   7.664 -0.1321  0.0677 -0.0286
   37BDTP    C229282   8.057   9.800   7.677  0.0503  0.0727 -0.1178
   37BDTP    C329283   7.977   9.884   7.601  0.1245  0.1256 -0.1377
   37BDTP    C429284   7.889   9.825   7.507  0.0141  0.1767 -0.0664
   37BDTP    C529285   7.886   9.683   7.495 -0.1682  0.1721  0.0226
   37BDTP    C629286   7.966   9.599   7.571 -0.2424  0.1189  0.0429
   37BDTP    C729287   7.797   9.892   7.418  0.0609  0.2366 -0.0707
   37BDTP    C829288   7.725   9.807   7.339 -0.0755  0.2768  0.0100
   37BDTP    S129289   7.765   9.632   7.368 -0.2826  0.2441  0.1028
   37BDTP    C929290   8.146   9.591   7.754 -0.1786  0.0081 -0.0243
   37BDTP   C1029291   8.218   9.675   7.832 -0.0422 -0.0322 -0.1050
   37BDTP    S229292   8.178   9.851   7.803  0.1648  0.0005 -0.1977
   38FTM     S129293   7.871  10.137   7.686 -0.1313  0.0945 -0.1642
   38FTM     C129294   7.959  10.288   7.642  0.0929  0.0761  0.2142
   38FTM     C229295   8.070  10.257   7.570  0.0370  0.0896  0.1204
   38FTM     C329296   8.094  10.118   7.546 -0.1786  0.1144 -0.2427
   38FTM     C429297   7.997  10.039   7.601 -0.2913  0.1199 -0.4330
   38FTM     F129298   8.158  10.353   7.523  0.1776  0.0803  0.3577
   38FTM     C529299   7.899  10.421   7.682 -0.1807 -0.4797 -0.2363
   38FTM     C629300   7.891  10.446   7.832  0.4530  1.0511  0.5999
   38FTM     C729301   7.816  10.589   7.855 -0.5505  0.7660  1.7174
   38FTM     C829302   7.668  10.584   7.847  1.2872  0.8984 -0.0941
   38FTM     C929303   7.615  10.597   7.706  0.9380 -0.6106  0.1505
   38FTM    C1029304   7.482  10.544   7.655  0.0621 -0.6343 -1.0496
   38FTM    C1129305   8.028  10.439   7.908  1.1184 -0.3805  0.3773
   38FTM    C1229306   8.023  10.475   8.059 -0.4915 -0.5475  1.1055
   39FTM     S129307   7.817   9.358   7.483 -0.4664  0.0158  0.4907
   39FTM     C129308   7.908   9.203   7.485 -0.7050 -0.1278  0.3122
   39FTM     C229309   8.031   9.222   7.538 -0.5598 -0.3150  0.0490
   39FTM     C329310   8.062   9.356   7.580 -0.2613 -0.3576 -0.0277
   39FTM     C429311   7.958   9.441   7.558 -0.1751 -0.1975  0.1835
   39FTM     F129312   8.124   9.120   7.552 -0.6886 -0.4594 -0.1379
   39FTM     C529313   7.823   9.083   7.467  0.3030  1.7289  1.2674
   39FTM     C629314   7.872   8.938   7.407  0.9236  0.0550  1.4524
   39FTM     C729315   8.004   8.885   7.460 -1.0788  0.4373 -0.6639
   39FTM     C829316   8.013   8.815   7.595 -0.9884  0.2330  0.0908
   39FTM     C929317   8.156   8.746   7.609 -0.5565  1.7986  0.8703
   39FTM    C1029318   8.277   8.834   7.620 -0.7540  0.0212  0.2027
   39FTM    C1129319   7.854   8.920   7.259 -0.6147 -1.4555  0.3252
   39FTM    C1229320   7.961   8.982   7.163 -0.2842  0.7073  0.5329
   40TPM     C129321   8.333   9.631   7.910 -0.3401  0.4205  0.3759
   40TPM     C229322   8.425   9.706   7.975 -0.6182  0.4337  0.7578
   40TPM     C329323   8.515   9.630   8.057 -0.5386  0.3824  0.6225
   40TPM     C429324   8.492   9.495   8.054 -0.1999  0.3303  0.1377
   40TPM     S129325   8.353   9.455   7.946  0.0465  0.3420 -0.1887
   41BDD     C129326   8.803   9.261   8.069  0.2838 -0.1719  0.0778
   41BDD     C229327   8.764   9.280   8.199  0.2201 -0.1450  0.0551
   41BDD     C329328   8.649   9.366   8.213  0.0606 -0.3407 -0.0362
   41BDD     C429329   8.601   9.413   8.093  0.0048 -0.5135 -0.0816
   41BDD     S129330   8.697   9.351   7.955  0.1483 -0.4442 -0.0137
   41BDD     C529331   8.832   9.218   8.315  0.3037  0.0618  0.1163
   41BDD     C629332   8.590   9.400   8.344 -0.0305 -0.3483 -0.0746
   41BDD     O129333   8.490   9.475   8.356 -0.1681 -0.5171 -0.1533
   41BDD     O229334   8.932   9.143   8.303  0.4411  0.2303  0.1950
   41BDD     C729335   8.658   9.339   8.460  0.0527 -0.1419 -0.0134
   41BDD     C829336   8.773   9.252   8.446  0.2122  0.0539  0.0780
   41BDD     C929337   8.821   9.206   8.565  0.2677  0.2270  0.1233
   41BDD     S229338   8.725   9.268   8.704  0.1243  0.1574  0.0554
   41BDD    C1029339   8.619   9.357   8.590 -0.0110 -0.1149 -0.0360
   41BDD    C1129340   8.503   9.441   8.659  0.2763  1.8622 -0.0819
   41BDD    C1229341   8.476   9.464   8.810 -1.1933 -0.4844 -1.3139
   41BDD    C1329342   8.372   9.572   8.833 -0.3652 -0.2060 -0.9212
   41BDD    C1429343   8.359   9.643   8.967  0.2752  0.8568 -0.2577
   41BDD    C1529344   8.252   9.755   8.984 -0.7806 -0.6295 -1.6077
   41BDD    C1629345   8.272   9.842   9.112  0.2339 -0.1866 -0.1628
   41BDD    C1729346   8.448   9.334   8.879  0.7208  0.1589  1.2480
   41BDD    C1829347   8.327   9.250   8.838 -1.6997 -1.3769 -1.1023
   41BDD    C1929348   8.933   9.120   8.626  0.6113  0.5917  1.1264
   41BDD    C2029349   8.939   8.969   8.585  0.5119 -0.5039  1.5465
   41BDD    C2129350   8.807   8.890   8.625  0.3409 -0.4603  0.4377
   41BDD    C2229351   8.834   8.776   8.705  0.8146  1.1297  0.9264
   41BDD    C2329352   8.710   8.716   8.776 -0.8851  0.8806 -0.1832
   41BDD    C2429353   8.629   8.808   8.856  0.0333  0.3035 -0.3079
   41BDD    C2529354   9.080   8.915   8.562  0.3040 -1.1468  0.0808
   41BDD    C2629355   9.101   8.781   8.485  0.8702 -0.1596 -1.7220
   42TPM     C129356   8.875   9.153   7.994  0.6033 -0.1998 -0.0896
   42TPM     C229357   9.010   9.145   8.016  0.6893  0.0894 -0.5031
   42TPM     C329358   9.078   9.059   7.923  0.6583  0.5627 -0.9778
   42TPM     C429359   8.996   9.000   7.831  0.5486  0.6343 -0.9260
   42TPM     S129360   8.824   9.050   7.854  0.4754  0.1058 -0.2688
   43BDTP    C129361   9.006   8.603   7.349  0.2124  0.5608 -0.0559
   43BDTP    C229362   9.113   8.555   7.431  0.2954  0.4175 -0.2470
   43BDTP    C329363   9.151   8.617   7.549  0.5252  0.3078 -0.2626
   43BDTP    C429364   9.082   8.733   7.588  0.6809  0.3407 -0.0813
   43BDTP    C529365   8.975   8.782   7.507  0.5984  0.4842  0.1094
   43BDTP    C629366   8.937   8.719   7.389  0.3683  0.5939  0.1252
   43BDTP    C729367   9.103   8.815   7.706  0.9263  0.2456 -0.0592
   43BDTP    C829368   9.020   8.921   7.716  1.0307  0.3092  0.1365
   43BDTP    S129369   8.901   8.932   7.579  0.8330  0.4997  0.3206
   43BDTP    C929370   8.984   8.522   7.232 -0.0327  0.6566 -0.0780
   43BDTP   C1029371   9.068   8.416   7.221 -0.1371  0.5925 -0.2737
   43BDTP    S229372   9.186   8.404   7.359  0.0608  0.4025 -0.4579
   44FTM     S129373   9.417   8.532   7.559  0.0514 -0.1430 -0.3748
   44FTM     C129374   9.477   8.450   7.708  0.4382 -0.1520 -0.5325
   44FTM     C229375   9.380   8.451   7.804  0.8068  0.1602 -0.1527
   44FTM     C329376   9.256   8.514   7.767  0.8109  0.4191  0.2735
   44FTM     C429377   9.259   8.563   7.640  0.4328  0.3012  0.2185
   44FTM     F129378   9.397   8.395   7.929  1.1625  0.2298 -0.1687
   44FTM     C529379   9.588   8.361   7.710 -0.0592  0.3655  0.7264
   44FTM     C629380   9.575   8.209   7.746 -2.1868 -1.9338 -0.0932
   44FTM     C729381   9.727   8.162   7.787  0.1769  0.0566  1.0907
   44FTM     C829382   9.828   8.140   7.672 -0.1298 -0.7302 -0.1130
   44FTM     C929383   9.946   8.039   7.704 -0.3610 -0.2594  1.1100
   44FTM    C1029384  10.020   8.013   7.561 -0.1996  0.5832 -0.3451
   44FTM    C1129385   9.498   8.129   7.643  0.1746  0.0048  1.4306
   44FTM    C1229386   9.421   8.037   7.729 -0.0561 -0.0720  0.2710
   45FTM     S129387   8.840   8.814   7.140  0.1945 -0.3039 -0.2860
   45FTM     C129388   8.668   8.868   7.148  0.0800 -0.7242  0.1756
   45FTM     C229389   8.622   8.856   7.275  0.2594 -1.4207  0.1830
   45FTM     C329390   8.715   8.805   7.372  0.4909 -1.6639 -0.1618
   45FTM     C429391   8.836   8.778   7.317  0.4891 -1.1366 -0.4423
   45FTM     F129392   8.492   8.890   7.312  0.2244 -1.8792  0.5020
   45FTM     C529393   8.596   8.915   7.022 -0.6671 -0.3604 -1.3455
   45FTM     C629394   8.474   8.845   6.965  0.2587 -1.1062  1.0191
   45FTM     C729395   8.481   8.696   6.940 -0.4795  0.2424 -0.8750
   45FTM     C829396   8.455   8.598   7.057 -0.1215 -0.4852 -0.4727
   45FTM     C929397   8.453   8.456   7.012  0.4832 -0.2208  0.0930
   45FTM    C1029398   8.543   8.371   7.086  0.0823 -0.3089 -0.8165
   45FTM    C1129399   8.434   8.923   6.832 -0.8366  0.1861  0.3773
   45FTM    C1229400   8.321   8.879   6.749  0.8695 -0.6484 -0.4158
   46TPM     C129401   9.073   8.337   7.107 -0.1118 -0.4197  0.0649
   46TPM     C229402   9.183   8.262   7.081  0.0157 -0.1686 -0.1261
   46TPM     C329403   9.166   8.168   6.973 -0.0126 -0.3269  0.0157
   46TPM     C429404   9.041   8.171   6.917 -0.1616 -0.6987  0.3149
   46TPM     S129405   8.936   8.294   6.997 -0.2786 -0.8794  0.4416
   47BDD     C129406   8.987   7.901   6.635 -0.2060  0.1140 -0.0622
   47BDD     C229407   8.993   8.021   6.571 -0.1435  0.0908 -0.1006
   47BDD     C329408   9.010   8.134   6.661 -0.1824  0.1190 -0.1290
   47BDD     C429409   9.016   8.097   6.793 -0.2742  0.1638 -0.1116
   47BDD     S129410   9.002   7.920   6.813 -0.3181  0.1731 -0.0587
   47BDD     C529411   8.984   8.038   6.425 -0.0458  0.0415 -0.1125
   47BDD     C629412   9.018   8.273   6.614 -0.1276  0.1011 -0.1721
   47BDD     O129413   9.032   8.370   6.692 -0.1612  0.1256 -0.1967
   47BDD     O229414   8.969   7.941   6.347 -0.0119  0.0167 -0.0881
   47BDD     C729415   9.009   8.290   6.467 -0.0296  0.0517 -0.1842
   47BDD     C829416   8.992   8.177   6.377  0.0095  0.0231 -0.1556
   47BDD     C929417   8.986   8.214   6.245  0.1011 -0.0212 -0.1730
   47BDD     S229418   8.999   8.391   6.225  0.1451 -0.0307 -0.2259
   47BDD    C1029419   9.014   8.410   6.403  0.0329  0.0286 -0.2227
   47BDD    C1129420   9.032   8.558   6.419  0.2125  0.1075  0.8799
   47BDD    C1229421   8.952   8.649   6.520 -0.0096 -1.0007  0.8521
   47BDD    C1329422   8.962   8.805   6.512 -0.5831  0.1924  1.0541
   47BDD    C1429423   9.088   8.904   6.516  1.1261 -0.8940 -0.0276
   47BDD    C1529424   9.144   8.891   6.653 -0.4308 -0.2820 -0.5909
   47BDD    C1629425   9.249   8.999   6.680  0.0377 -0.1333 -0.9661
   47BDD    C1729426   8.803   8.597   6.541  0.1374 -0.0091  0.4181
   47BDD    C1829427   8.684   8.562   6.450 -1.9108 -0.0925  0.5335
   47BDD    C1929428   8.962   8.137   6.106 -1.2242  0.3639 -0.9984
   47BDD    C2029429   8.828   8.059   6.090 -0.8033  0.8975  0.2325
   47BDD    C2129430   8.704   8.127   6.068  1.6075 -0.7880 -0.3539
   47BDD    C2229431   8.568   8.060   6.063  0.5545 -0.5087  0.3550
   47BDD    C2329432   8.532   7.940   6.148  0.5435  0.5656 -0.9717
   47BDD    C2429433   8.507   7.964   6.301  0.0086  0.8701  1.1084
   47BDD    C2529434   8.834   7.920   6.011  0.4708  0.2685 -0.0371
   47BDD    C2629435   8.874   7.930   5.864 -0.8786 -1.0503  0.2107
   48TPM     C129436   8.995   7.765   6.594  0.2965 -0.1321 -0.2988
   48TPM     C229437   9.109   7.697   6.627  0.4110 -0.0026 -0.4237
   48TPM     C329438   9.122   7.571   6.560  0.5157  0.0429 -0.4896
   48TPM     C429439   9.019   7.542   6.476  0.4808 -0.0520 -0.4151
   48TPM     S129440   8.896   7.674   6.475  0.3120 -0.2071 -0.2544
   49BDTP    C129441   8.960   7.008   6.146 -0.3700  0.1804 -0.4654
   49BDTP    C229442   8.843   7.079   6.107 -0.4344  0.1187 -0.3837
   49BDTP    C329443   8.813   7.207   6.152 -0.4783  0.0964 -0.3498
   49BDTP    C429444   8.904   7.268   6.241 -0.4585  0.1369 -0.3985
   49BDTP    C529445   9.021   7.198   6.280 -0.3936  0.1986 -0.4803
   49BDTP    C629446   9.051   7.070   6.234 -0.3496  0.2208 -0.5142
   49BDTP    C729447   8.895   7.400   6.301 -0.4953  0.1242 -0.3767
   49BDTP    C829448   8.999   7.431   6.382 -0.4623  0.1730 -0.4371
   49BDTP    S129449   9.122   7.298   6.394 -0.3793  0.2414 -0.5305
   49BDTP    C929450   8.969   6.877   6.086 -0.3326  0.1928 -0.4873
   49BDTP   C1029451   8.866   6.846   6.004 -0.3660  0.1441 -0.4268
   49BDTP    S229452   8.742   6.979   5.992 -0.4486  0.0756 -0.3336
   50FTM     S129453   8.631   7.420   6.080 -0.1269  0.0436 -0.0184
   50FTM     C129454   8.458   7.392   6.124 -0.2894  0.5220 -0.3377
   50FTM     C229455   8.443   7.266   6.173 -0.8013  0.4306 -0.7170
   50FTM     C329456   8.561   7.186   6.180 -1.0917 -0.0067 -0.7808
   50FTM     C429457   8.671   7.252   6.134 -0.7921 -0.2579 -0.4394
   50FTM     F129458   8.320   7.217   6.216 -1.0376  0.7372 -1.0291
   50FTM     C529459   8.373   7.507   6.108 -0.2065  0.2349 -0.4969
   50FTM     C629460   8.297   7.501   5.966  0.0787 -0.9399 -0.8771
   50FTM     C729461   8.187   7.634   5.971  0.2708  1.0237  0.8617
   50FTM     C829462   8.217   7.748   5.880 -0.7229 -0.9855 -0.0423
   50FTM     C929463   8.116   7.850   5.843 -0.0631 -0.1947  1.1261
   50FTM    C1029464   8.185   7.953   5.739 -0.7466 -0.6309 -1.2785
   50FTM    C1129465   8.242   7.353   5.907  0.5310 -1.4038  0.7149
   50FTM    C1229466   8.090   7.349   5.907  0.8716 -0.0088  0.1433
   51FTM     S129467   9.294   6.953   6.171  0.0906  0.2913  0.2852
   51FTM     C129468   9.386   6.877   6.305 -0.2744  0.2259  0.5027
   51FTM     C229469   9.319   6.891   6.422 -0.5469  0.2546  0.3425
   51FTM     C329470   9.193   6.960   6.415 -0.4904  0.3275  0.0483
   51FTM     C429471   9.164   7.001   6.288 -0.1636  0.3554 -0.0191
   51FTM     F129472   9.366   6.842   6.543 -0.8643  0.2165  0.4532
   51FTM     C529473   9.497   6.776   6.276 -0.0276 -0.4604  1.5654
   51FTM     C629474   9.531   6.653   6.370 -1.4259  0.7507  1.1095
   51FTM     C729475   9.646   6.685   6.473  2.3286 -0.9722  0.9279
   51FTM     C829476   9.790   6.701   6.434  0.5760  0.6221 -0.2991
   51FTM     C929477   9.895   6.707   6.549  0.1578 -0.3805 -1.2437
   51FTM    C1029478   9.967   6.831   6.511  0.2490 -1.7625 -0.3117
   51FTM    C1129479   9.435   6.534   6.398 -1.1881 -0.1479 -0.5275
   51FTM    C1229480   9.486   6.403   6.446  1.9091 -0.2686  0.4630
   52TPM     C129481   8.842   6.732   5.929 -1.1808 -0.3344  0.0033
   52TPM     C229482   8.730   6.714   5.853 -1.2658 -0.4900  0.1642
   52TPM     C329483   8.713   6.578   5.807 -1.0252 -0.4683  0.0064
   52TPM     C429484   8.812   6.494   5.848 -0.7567 -0.2960 -0.2746
   52TPM     S129485   8.935   6.579   5.949 -0.7871 -0.1468 -0.3625
   53BDD     C129486   8.715   6.126   5.789  0.1313  0.0732  0.5319
   53BDD     C229487   8.848   6.129   5.756  0.0999  0.1124  0.4092
   53BDD     C329488   8.906   6.261   5.765 -0.0029  0.1838  0.0685
   53BDD     C429489   8.818   6.357   5.805 -0.0476  0.1982 -0.0638
   53BDD     S129490   8.655   6.289   5.834  0.0348  0.1230  0.2291
   53BDD     C529491   8.925   6.010   5.714  0.1631  0.0857  0.6009
   53BDD     C629492   9.048   6.288   5.734 -0.0520  0.2352 -0.1134
   53BDD     O129493   9.099   6.402   5.742 -0.1402  0.2966 -0.4073
   53BDD     O229494   8.875   5.896   5.706  0.2515  0.0241  0.8948
   53BDD     C729495   9.126   6.169   5.692  0.0110  0.2084  0.0782
   53BDD     C829496   9.067   6.037   5.683  0.1132  0.1370  0.4190
   53BDD     C929497   9.156   5.941   5.642  0.1588  0.1227  0.5513
   53BDD     S229498   9.319   6.010   5.613  0.0761  0.1978  0.2585
   53BDD    C1029499   9.259   6.172   5.659 -0.0205  0.2474 -0.0443
   53BDD    C1129500   9.365   6.275   5.635 -0.0264  0.3913  0.5023
   53BDD    C1229501   9.355   6.425   5.577  0.3228  0.0201  0.3163
   53BDD    C1329502   9.497   6.469   5.523 -0.4022 -0.2794  0.0685
   53BDD    C1429503   9.536   6.600   5.462  0.2726  0.1972  1.0293
   53BDD    C1529504   9.516   6.708   5.569  0.0244 -0.8799  0.5817
   53BDD    C1629505   9.530   6.835   5.480  0.9033  0.2074 -1.2582
   53BDD    C1729506   9.237   6.446   5.475 -1.0848 -0.2874 -0.1568
   53BDD    C1829507   9.205   6.595   5.456 -0.2858  1.6674  0.6652
   53BDD    C1929508   9.122   5.793   5.617 -0.3765 -1.4867 -0.5531
   53BDD    C2029509   9.199   5.703   5.705  0.4481 -0.0536  0.7577
   53BDD    C2129510   9.178   5.710   5.868  0.2000  0.2079 -0.0814
   53BDD    C2229511   9.262   5.790   5.958  0.1863 -0.3621  0.5128
   53BDD    C2329512   9.218   5.806   6.110 -1.4707 -0.9836  0.5292
   53BDD    C2429513   9.310   5.749   6.220 -0.6152 -0.2917  0.2129
   53BDD    C2529514   9.335   5.666   5.662 -1.3380  0.3635  0.6971
   53BDD    C2629515   9.405   5.556   5.745 -0.4776  0.6197 -0.4732
   54TPM     C129516   8.613   6.021   5.774 -0.4331 -0.1087  0.9013
   54TPM     C229517   8.518   6.002   5.870 -0.9978 -0.1689  0.3444
   54TPM     C329518   8.423   5.898   5.838 -1.0898  0.1472 -0.4680
   54TPM     C429519   8.446   5.838   5.718 -0.5958  0.4485 -0.5307
   54TPM     S129520   8.590   5.908   5.635  0.0295  0.3555  0.4395
   55BDTP    C129521   8.022   5.393   5.581 -0.2267  0.0573 -0.1599
   55BDTP    C229522   8.097   5.402   5.460 -0.0274  0.0103 -0.0411
   55BDTP    C329523   8.203   5.491   5.444  0.0277 -0.0267  0.1131
   55BDTP    C429524   8.236   5.574   5.552 -0.1206 -0.0167  0.1521
   55BDTP    C529525   8.161   5.565   5.673 -0.3202  0.0304  0.0333
   55BDTP    C629526   8.056   5.476   5.689 -0.3750  0.0673 -0.1208
   55BDTP    C729527   8.342   5.673   5.559 -0.0995 -0.0491  0.3034
   55BDTP    C829528   8.349   5.738   5.678 -0.2708 -0.0290  0.3041
   55BDTP    S129529   8.224   5.683   5.798 -0.4835  0.0340  0.1132
   55BDTP    C929530   7.917   5.294   5.575 -0.2481  0.0896 -0.3111
   55BDTP   C1029531   7.909   5.229   5.456 -0.0765  0.0695 -0.3119
   55BDTP    S229532   8.034   5.284   5.336  0.1361  0.0066 -0.1208
   56FTM     S129533   8.303   5.641   5.217 -0.1295 -0.1196  0.0112
   56FTM     C129534   8.438   5.561   5.127 -0.2046 -0.0580 -0.1561
   56FTM     C229535   8.452   5.433   5.170 -0.3622 -0.1804 -0.4647
   56FTM     C329536   8.362   5.390   5.272 -0.4330 -0.3259 -0.5870
   56FTM     C429537   8.276   5.488   5.310 -0.3253 -0.3148 -0.3649
   56FTM     F129538   8.548   5.347   5.118 -0.4525 -0.1677 -0.6548
   56FTM     C529539   8.537   5.641   5.046 -0.4219 -0.4637 -0.4686
   56FTM     C629540   8.559   5.794   5.051 -0.4469  0.2880 -0.0950
   56FTM     C729541   8.656   5.854   4.951  0.4621 -0.6718  1.1798
   56FTM     C829542   8.667   5.837   4.798  0.6660 -0.2744 -0.6095
   56FTM     C929543   8.779   5.929   4.762 -0.9847 -0.5874  1.2381
   56FTM    C1029544   8.784   5.979   4.613 -0.0956  0.1184 -0.4864
   56FTM    C1129545   8.581   5.857   5.190 -0.4923 -0.6827  0.1614
   56FTM    C1229546   8.597   6.011   5.217  1.0538 -0.3799  1.3125
   57FTM     S129547   7.893   5.619   5.846  0.5446  0.3853  0.4796
   57FTM     C129548   7.856   5.570   6.015  0.3375  0.1380  0.3632
   57FTM     C229549   7.915   5.450   6.042 -0.4131 -0.3289 -0.0149
   57FTM     C329550   7.990   5.391   5.935 -0.8621 -0.5183 -0.2319
   57FTM     C429551   7.989   5.468   5.823 -0.4416 -0.1856 -0.0128
   57FTM     F129552   7.904   5.386   6.165 -0.7381 -0.6126 -0.1870
   57FTM     C529553   7.756   5.651   6.092  0.2185  0.8952 -0.7046
   57FTM     C629554   7.801   5.775   6.164 -0.0410  0.1658  0.5794
   57FTM     C729555   7.943   5.801   6.232 -0.5048  0.4343  0.9051
   57FTM     C829556   8.000   5.698   6.337  0.5358  1.3244 -0.6849
   57FTM     C929557   7.903   5.634   6.434 -0.0312  0.7483 -0.5917
   57FTM    C1029558   7.918   5.672   6.581  0.0523  0.5178 -0.7304
   57FTM    C1129559   7.684   5.861   6.202 -0.3655  0.3660  0.1196
   57FTM    C1229560   7.672   5.887   6.353  0.8017 -1.0095 -0.7208
   58TPM     C129561   7.808   5.128   5.429  0.2471  0.1988 -0.1153
   58TPM     C229562   7.756   5.102   5.306  0.0358  0.0951 -0.0048
   58TPM     C329563   7.655   4.998   5.307  0.0508  0.0808  0.2509
   58TPM     C429564   7.631   4.946   5.430  0.2738  0.1737  0.3352
   58TPM     S129565   7.733   5.024   5.557  0.4838  0.2873  0.0964
   59BDD     C129566   7.292   4.801   5.565 -0.3743 -0.1437  0.4868
   59BDD     C229567   7.360   4.697   5.508 -0.3959 -0.1379  0.4510
   59BDD     C329568   7.485   4.738   5.445 -0.2834 -0.1742  0.6471
   59BDD     C429569   7.509   4.872   5.455 -0.1775 -0.2069  0.8293
   59BDD     S129570   7.379   4.957   5.544 -0.2116 -0.1945  0.7683
   59BDD     C529571   7.314   4.557   5.509 -0.5207 -0.0992  0.2352
   59BDD     C629572   7.574   4.642   5.376 -0.2849 -0.1749  0.6461
   59BDD     O129573   7.681   4.677   5.322 -0.1879 -0.2060  0.8152
   59BDD     O229574   7.207   4.522   5.564 -0.6179 -0.0679  0.0663
   59BDD     C729575   7.528   4.502   5.378 -0.4097 -0.1361  0.4303
   59BDD     C829576   7.403   4.461   5.441 -0.5223 -0.0999  0.2345
   59BDD     C929577   7.379   4.327   5.431 -0.6280 -0.0674  0.0520
   59BDD     S229578   7.509   4.243   5.341 -0.5940 -0.0795  0.1130
   59BDD    C1029579   7.596   4.398   5.320 -0.4313 -0.1305  0.3946
   59BDD    C1129580   7.697   4.402   5.208  0.7468  0.9170  0.2434
   59BDD    C1229581   7.791   4.281   5.200 -1.5777 -0.4797 -0.0026
   59BDD    C1329582   7.876   4.314   5.077 -0.4976  0.1733 -0.4459
   59BDD    C1429583   7.991   4.403   5.053  0.2930 -0.3322  0.6221
   59BDD    C1529584   8.061   4.385   4.917  0.2162 -0.2418 -0.3302
   59BDD    C1629585   7.977   4.454   4.807  0.1044 -1.0012  0.3579
   59BDD    C1729586   7.857   4.246   5.345 -0.0052 -0.9140  0.9873
   59BDD    C1829587   7.985   4.159   5.328  0.2182 -0.1432 -0.5060
   59BDD    C1929588   7.258   4.244   5.448  1.2903 -0.1264 -1.2014
   59BDD    C2029589   7.259   4.142   5.573 -0.0898 -0.8435  0.5156
   59BDD    C2129590   7.171   4.016   5.554 -0.1635 -1.0473 -0.3602
   59BDD    C2229591   7.010   4.022   5.546  0.2910  0.2471  0.5342
   59BDD    C2329592   6.918   3.914   5.602  0.3580  1.0472  0.5862
   59BDD    C2429593   6.957   3.844   5.724  1.4122 -0.7853  0.3556
   59BDD    C2529594   7.251   4.233   5.712  0.0039  0.3391 -0.3058
   59BDD    C2629595   7.233   4.139   5.835 -0.9116 -0.0197  0.1951
   60TPM     C129596   7.181   4.810   5.665  0.0588 -0.1777  0.1945
   60TPM     C229597   7.178   4.910   5.757 -0.7612  0.0794 -0.0914
   60TPM     C329598   7.086   4.887   5.865 -1.4039  0.1774 -0.6058
   60TPM     C429599   7.018   4.769   5.855 -1.0738 -0.0049 -0.7124
   60TPM     S129600   7.066   4.677   5.707  0.0830 -0.3169 -0.1671
    1BDTP    C129601   7.221   7.535   9.242 -0.4735  0.0478 -0.0968
    1BDTP    C229602   7.204   7.600   9.368 -0.1471 -0.1707  0.0615
    1BDTP    C329603   7.141   7.539   9.476  0.0993 -0.3443  0.1087
    1BDTP    C429604   7.092   7.408   9.459  0.0209 -0.3004 -0.0045
    1BDTP    C529605   7.109   7.344   9.333 -0.3054 -0.0819 -0.1624
    1BDTP    C629606   7.172   7.405   9.225 -0.5517  0.0917 -0.2098
    1BDTP    C729607   7.024   7.325   9.556  0.2347 -0.4531  0.0167
    1BDTP    C829608   6.989   7.203   9.509  0.0865 -0.3611 -0.1159
    1BDTP    S129609   7.038   7.176   9.336 -0.3445 -0.0677 -0.2866
    1BDTP    C929610   7.289   7.618   9.145 -0.6871  0.2007 -0.1183
    1BDTP   C1029611   7.324   7.741   9.192 -0.5389  0.1085  0.0145
    1BDTP    S229612   7.276   7.768   9.365 -0.1079 -0.1847  0.1856
    2FTM     S129613   7.249   7.594   9.740 -0.1435  0.4025 -0.2333
    2FTM     C129614   7.177   7.737   9.822 -0.6770  0.1010 -0.1685
    2FTM     C229615   7.083   7.794   9.742 -0.6529 -0.0184 -0.2828
    2FTM     C329616   7.061   7.731   9.615 -0.2285  0.1142 -0.4234
    2FTM     C429617   7.142   7.623   9.597  0.0826  0.3425 -0.4173
    2FTM     F129618   7.010   7.906   9.780 -1.0139 -0.2548 -0.2661
    2FTM     C529619   7.207   7.766   9.969 -1.6052 -0.1516 -0.1438
    2FTM     C629620   7.112   7.725  10.078 -0.6238  1.2822 -0.8977
    2FTM     C729621   7.030   7.590  10.057 -0.2811  0.1889 -0.0758
    2FTM     C829622   6.892   7.590  10.109  0.9154  0.6109 -1.1615
    2FTM     C929623   6.822   7.456  10.145  0.4630  0.4119  0.7459
    2FTM    C1029624   6.782   7.395  10.015 -0.1999 -0.2862  0.4614
    2FTM    C1129625   7.155   7.735  10.230  0.7190 -0.7275  0.6655
    2FTM    C1229626   7.278   7.651  10.279  0.4733  0.1512  1.2020
    3FTM     S129627   7.109   7.335   8.960  0.0944 -0.0351  0.0723
    3FTM     C129628   7.223   7.229   8.870 -0.4610 -1.2211  0.7262
    3FTM     C229629   7.326   7.192   8.951 -0.6889 -1.3185  0.9739
    3FTM     C329630   7.323   7.243   9.085 -0.4517 -0.4970  0.6778
    3FTM     C429631   7.213   7.322   9.107 -0.0279  0.2543  0.1870
    3FTM     F129632   7.429   7.110   8.909 -1.1262 -2.1577  1.4839
    3FTM     C529633   7.211   7.214   8.719 -0.6123 -0.4643 -0.1434
    3FTM     C629634   7.119   7.115   8.669  0.9823 -0.4596  0.6162
    3FTM     C729635   7.118   6.960   8.692 -0.2816 -0.4354 -0.4476
    3FTM     C829636   7.171   6.867   8.582 -0.3897 -0.6821  0.1638
    3FTM     C929637   7.317   6.897   8.554  0.8570 -0.1453  1.6252
    3FTM    C1029638   7.349   6.829   8.416  0.6266 -0.0947 -0.1918
    3FTM    C1129639   6.996   7.181   8.641  0.5595  1.3272  0.3145
    3FTM    C1229640   6.896   7.116   8.534 -1.3592 -0.7612  0.0078
    4TPM     C129641   7.363   7.847   9.090 -1.2331  0.2260  0.1621
    4TPM     C229642   7.368   7.980   9.121 -1.2641  0.3120 -0.2029
    4TPM     C329643   7.395   8.064   9.007 -0.6368 -0.0439 -0.3254
    4TPM     C429644   7.411   7.995   8.890 -0.1273 -0.4013 -0.0544
    4TPM     S129645   7.392   7.818   8.915 -0.4027 -0.3154  0.3808
    5BDD     C129646   7.652   8.101   8.601 -0.2110 -0.3930 -0.2483
    5BDD     C229647   7.564   8.205   8.611 -0.0629 -0.2823 -0.0882
    5BDD     C329648   7.464   8.187   8.715  0.0885 -0.1664  0.0789
    5BDD     C429649   7.478   8.069   8.783  0.0537 -0.1909  0.0435
    5BDD     S129650   7.616   7.973   8.722 -0.1709 -0.3605 -0.2015
    5BDD     C529651   7.569   8.325   8.525 -0.0554 -0.2785 -0.0825
    5BDD     C629652   7.360   8.287   8.743  0.2621 -0.0362  0.2675
    5BDD     O129653   7.274   8.272   8.832  0.3929  0.0634  0.4117
    5BDD     O229654   7.655   8.341   8.436 -0.1860 -0.3784 -0.2263
    5BDD     C729655   7.364   8.407   8.657  0.2698 -0.0322  0.2735
    5BDD     C829656   7.464   8.425   8.553  0.1184 -0.1478  0.1066
    5BDD     C929657   7.451   8.543   8.485  0.1531 -0.1235  0.1423
    5BDD     S229658   7.313   8.640   8.546  0.3778  0.0459  0.3868
    5BDD    C1029659   7.276   8.512   8.667  0.4178  0.0787  0.4342
    5BDD    C1129660   7.161   8.541   8.780 -0.4765 -0.7918  2.1936
    5BDD    C1229661   7.069   8.662   8.776  1.2896  0.5315  1.9289
    5BDD    C1329662   7.150   8.809   8.771 -0.0901 -0.3129  0.1141
    5BDD    C1429663   7.082   8.940   8.727 -0.5191 -0.3476 -1.0961
    5BDD    C1529664   7.062   8.998   8.876 -1.0165  0.7493  0.2458
    5BDD    C1629665   7.058   9.147   8.862  0.4093  0.0450 -0.8141
    5BDD    C1729666   6.938   8.627   8.856  0.7963 -0.7351  2.3655
    5BDD    C1829667   6.819   8.688   8.762  0.9339  0.3180 -0.8776
    5BDD    C1929668   7.536   8.605   8.376 -1.1217 -0.4731 -0.3937
    5BDD    C2029669   7.467   8.628   8.235 -2.4550  0.3291  0.5123
    5BDD    C2129670   7.399   8.753   8.234  0.6007 -0.5721  0.1288
    5BDD    C2229671   7.443   8.870   8.135 -0.0001  0.4827 -1.7247
    5BDD    C2329672   7.438   8.843   7.980 -1.2499 -0.7394  0.7533
    5BDD    C2429673   7.540   8.935   7.891  1.7421  1.3190  0.3300
    5BDD    C2529674   7.393   8.512   8.185  1.5205  0.8889  0.0984
    5BDD    C2629675   7.417   8.463   8.041  0.7161 -0.7967 -0.1851
    6TPM     C129676   7.770   8.079   8.514  0.2259  1.1441  0.1307
    6TPM     C229677   7.764   8.015   8.394 -0.5882  1.7905 -0.1915
    6TPM     C329678   7.880   8.037   8.311 -0.6076  1.2901 -0.3581
    6TPM     C429679   7.974   8.118   8.368  0.1916  0.2622 -0.1629
    6TPM     S129680   7.923   8.172   8.532  1.0373 -0.1569  0.2502
    7BDTP    C129681   8.570   8.143   8.160  0.0789 -0.1857 -0.0105
    7BDTP    C229682   8.577   8.209   8.287  0.1385 -0.0756 -0.0708
    7BDTP    C329683   8.466   8.228   8.368  0.1733  0.0112 -0.0432
    7BDTP    C429684   8.342   8.180   8.322  0.1485 -0.0107  0.0479
    7BDTP    C529685   8.335   8.114   8.196  0.0887 -0.1206  0.1078
    7BDTP    C629686   8.446   8.096   8.115  0.0539 -0.2077  0.0800
    7BDTP    C729687   8.213   8.187   8.388  0.1757  0.0658  0.0921
    7BDTP    C829688   8.111   8.132   8.319  0.1402  0.0196  0.1810
    7BDTP    S129689   8.164   8.062   8.159  0.0665 -0.1278  0.2213
    7BDTP    C929690   8.698   8.136   8.094  0.0515 -0.2623 -0.0548
    7BDTP   C1029691   8.800   8.191   8.164  0.0875 -0.2160 -0.1438
    7BDTP    S229692   8.748   8.261   8.323  0.1609 -0.0689 -0.1843
    8FTM     S129693   8.357   8.357   8.609 -0.5652  0.1173  0.0404
    8FTM     C129694   8.429   8.305   8.765  0.3187  0.5234 -0.2184
    8FTM     C229695   8.534   8.221   8.741  0.5739  0.9363 -0.5946
    8FTM     C329696   8.563   8.193   8.604  0.1087  0.9608 -0.7017
    8FTM     C429697   8.478   8.258   8.519 -0.5230  0.5539 -0.3980
    8FTM     F129698   8.609   8.164   8.843  1.2436  1.3163 -0.8643
    8FTM     C529699   8.379   8.345   8.903 -0.6595 -0.6368  0.3326
    8FTM     C629700   8.342   8.254   9.014  1.2689  1.6445 -0.0819
    8FTM     C729701   8.436   8.216   9.132  1.2994 -0.0348  0.9620
    8FTM     C829702   8.437   8.334   9.234 -0.5496 -1.0710  0.5241
    8FTM     C929703   8.573   8.362   9.263 -1.0934  0.4766 -0.8713
    8FTM    C1029704   8.630   8.466   9.163 -0.0340 -1.0285 -0.0384
    8FTM    C1129705   8.238   8.143   8.971  0.7541  0.2120 -0.8335
    8FTM    C1229706   8.309   8.032   8.913  1.4359  0.3602  1.3464
    9FTM     S129707   8.538   8.015   7.845  0.3026  0.0368  0.5199
    9FTM     C129708   8.514   7.838   7.819 -0.0380  0.0848  0.5023
    9FTM     C229709   8.436   7.787   7.919 -0.7472  0.3592  0.1065
    9FTM     C329710   8.392   7.880   8.018 -1.0617  0.5442 -0.1998
    9FTM     C429711   8.437   8.007   7.995 -0.5774  0.4072 -0.0331
    9FTM     F129712   8.401   7.654   7.925 -1.1537  0.4592 -0.0020
    9FTM     C529713   8.602   7.763   7.715  0.6252 -0.0895 -0.4026
    9FTM     C629714   8.626   7.826   7.567 -0.1377  1.4660 -0.4658
    9FTM     C729715   8.741   7.745   7.503 -0.4526  0.5274  0.4697
    9FTM     C829716   8.870   7.816   7.533  0.3399 -0.5774  1.0691
    9FTM     C929717   8.893   7.939   7.453 -0.7654  0.2770 -0.6740
    9FTM    C1029718   9.016   8.026   7.491  0.0490 -0.0348 -0.0783
    9FTM    C1129719   8.494   7.796   7.501 -0.3123  0.8348  0.0933
    9FTM    C1229720   8.493   7.808   7.348 -0.2338 -0.4913  0.3371
   10TPM     C129721   8.923   8.135   8.149 -0.1174 -0.1322  0.1210
   10TPM     C229722   9.001   8.093   8.252  0.3231  0.8526  0.2122
   10TPM     C329723   9.124   8.030   8.210  0.7706  1.6129  0.3359
   10TPM     C429724   9.138   8.024   8.074  0.6716  1.2077  0.3402
   10TPM     S129725   8.997   8.098   7.989 -0.0002 -0.1757  0.1857
   11BDD     C129726   9.296   7.701   7.916 -0.2080  0.0670  0.0403
   11BDD     C229727   9.397   7.771   7.976 -0.1903  0.0724  0.0041
   11BDD     C329728   9.353   7.895   8.036 -0.2046 -0.0093  0.1626
   11BDD     C429729   9.219   7.918   8.022 -0.2332 -0.0759  0.3175
   11BDD     S129730   9.139   7.785   7.932 -0.2439 -0.0410  0.2755
   11BDD     C529731   9.538   7.726   7.979 -0.1595  0.1531 -0.1777
   11BDD     C629732   9.446   7.987   8.106 -0.1898 -0.0182  0.1547
   11BDD     O129733   9.407   8.094   8.159 -0.2019 -0.0887  0.2913
   11BDD     O229734   9.576   7.619   7.927 -0.1473  0.2236 -0.3145
   11BDD     C729735   9.586   7.942   8.110 -0.1588  0.0622 -0.0269
   11BDD     C829736   9.631   7.818   8.049 -0.1445  0.1441 -0.1855
   11BDD     C929737   9.765   7.795   8.064 -0.1161  0.2106 -0.3405
   11BDD     S229738   9.845   7.928   8.154 -0.1057  0.1758 -0.2988
   11BDD    C1029739   9.687   8.013   8.170 -0.1411  0.0679 -0.0634
   11BDD    C1129740   9.689   8.161   8.228  0.2253  2.8421 -0.7955
   11BDD    C1229741   9.771   8.201   8.356 -0.4633 -1.1788  0.9265
   11BDD    C1329742   9.919   8.169   8.336  0.6117 -0.7049  0.2265
   11BDD    C1429743  10.014   8.198   8.454 -1.1328 -0.9191 -0.1446
   11BDD    C1529744  10.164   8.166   8.397  0.2458 -0.2090  0.5436
   11BDD    C1629745  10.232   8.049   8.455  0.2701  1.4767  0.6133
   11BDD    C1729746   9.754   8.352   8.367  0.0235 -0.2176 -0.7939
   11BDD    C1829747   9.733   8.461   8.256 -0.6128 -0.0875  0.6749
   11BDD    C1929748   9.856   7.679   8.001  0.1139 -0.3008 -0.9089
   11BDD    C2029749   9.962   7.598   8.089  0.4941 -0.4414 -0.3329
   11BDD    C2129750  10.097   7.657   8.134 -0.5761 -0.0456 -0.6675
   11BDD    C2229751  10.188   7.603   8.256  1.5101  0.1011  0.1572
   11BDD    C2329752  10.332   7.618   8.204 -0.4311  0.4724 -0.2128
   11BDD    C2429753  10.452   7.584   8.305  0.4996 -1.4820 -0.2223
   11BDD    C2529754   9.986   7.457   8.035  1.4965 -1.0216  0.1550
   11BDD    C2629755  10.038   7.449   7.887  0.5588  0.6419 -0.5637
   12TPM     C129756   9.295   7.572   7.848 -0.0234 -0.0305  0.4282
   12TPM     C229757   9.359   7.597   7.730  0.2794 -0.2663  0.5395
   12TPM     C329758   9.307   7.523   7.619  0.3567 -0.2507  0.4926
   12TPM     C429759   9.203   7.441   7.651  0.1128 -0.0031  0.3453
   12TPM     S129760   9.163   7.451   7.827 -0.2361  0.2313  0.2538
   13BDTP    C129761   8.890   7.021   7.306  0.3071 -0.1829  0.0910
   13BDTP    C229762   8.977   6.936   7.380  0.0873 -0.2111  0.3182
   13BDTP    C329763   9.067   6.985   7.474  0.0417 -0.2173  0.3662
   13BDTP    C429764   9.072   7.124   7.495  0.2205 -0.1947  0.1814
   13BDTP    C529765   8.985   7.209   7.420  0.4396 -0.1665 -0.0459
   13BDTP    C629766   8.894   7.160   7.327  0.4858 -0.1603 -0.0939
   13BDTP    C729767   9.157   7.198   7.586  0.2136 -0.1960  0.1889
   13BDTP    C829768   9.138   7.332   7.583  0.4146 -0.1704 -0.0192
   13BDTP    S129769   9.010   7.384   7.465  0.6411 -0.1413 -0.2538
   13BDTP    C929770   8.804   6.947   7.215  0.3138 -0.1817  0.0836
   13BDTP   C1029771   8.823   6.813   7.217  0.1128 -0.2071  0.2915
   13BDTP    S229772   8.951   6.761   7.335 -0.1136 -0.2365  0.5260
   14FTM     S129773   9.342   6.926   7.526  0.1195 -0.0303  0.5383
   14FTM     C129774   9.361   6.810   7.662 -0.7270 -0.2537  0.4764
   14FTM     C229775   9.240   6.763   7.700 -1.0345  0.2546  0.1434
   14FTM     C329776   9.127   6.814   7.628 -0.6402  0.8345 -0.0789
   14FTM     C429777   9.163   6.902   7.532 -0.0102  0.7683  0.0896
   14FTM     F129778   9.223   6.671   7.803 -1.6916  0.2245  0.0197
   14FTM     C529779   9.489   6.750   7.698  0.4113  0.5688 -2.1980
   14FTM     C629780   9.621   6.762   7.616 -0.7138  1.1296  1.2522
   14FTM     C729781   9.686   6.906   7.627  0.8117  1.1331  0.0714
   14FTM     C829782   9.746   6.955   7.755 -1.2014 -0.0446  0.5984
   14FTM     C929783   9.795   6.837   7.841  0.1498 -1.0807  0.3007
   14FTM    C1029784   9.869   6.865   7.971 -0.0261 -0.4380 -0.4869
   14FTM    C1129785   9.604   6.722   7.462  0.9925  0.4099 -1.4864
   14FTM    C1229786   9.729   6.682   7.401  0.4371 -0.4087 -0.0602
   15FTM     S129787   8.929   7.288   7.075  0.0798  0.1019 -0.1048
   15FTM     C129788   8.787   7.373   7.004  0.3277  0.4063 -0.2403
   15FTM     C229789   8.681   7.367   7.089  0.1702  0.4508 -0.4296
   15FTM     C329790   8.704   7.297   7.213 -0.1450  0.2557 -0.4801
   15FTM     C429791   8.831   7.249   7.222 -0.2321  0.0550 -0.3238
   15FTM     F129792   8.558   7.424   7.061  0.3026  0.6709 -0.5690
   15FTM     C529793   8.801   7.414   6.869 -1.7265 -0.7041  0.7053
   15FTM     C629794   8.712   7.349   6.752 -0.3898  0.4071 -0.1459
   15FTM     C729795   8.566   7.376   6.724 -0.3273  0.8642 -1.4608
   15FTM     C829796   8.526   7.506   6.675  0.7172  1.6239  0.6469
   15FTM     C929797   8.503   7.591   6.810 -0.1217  1.9612  0.0204
   15FTM    C1029798   8.459   7.732   6.784 -1.3223 -0.9259  0.6748
   15FTM    C1129799   8.754   7.200   6.749  1.2660 -0.5059  0.6247
   15FTM    C1229800   8.675   7.100   6.855 -0.4764  0.0030  1.1436
   16TPM     C129801   8.768   6.709   7.128 -0.4904 -0.8322  0.1237
   16TPM     C229802   8.795   6.576   7.137 -1.2081 -0.9620  0.4414
   16TPM     C329803   8.729   6.497   7.036 -1.2848 -0.7962  0.3601
   16TPM     C429804   8.653   6.570   6.950 -0.6256 -0.5400 -0.0195
   16TPM     S129805   8.658   6.746   6.990  0.1488 -0.4879 -0.3061
   17BDD     C129806   8.528   6.319   6.676  0.0440 -0.0360  0.5698
   17BDD     C229807   8.428   6.412   6.684  0.0119 -0.0544  0.3947
   17BDD     C329808   8.455   6.517   6.780 -0.0362  0.1216  0.2149
   17BDD     C429809   8.576   6.504   6.843 -0.0402  0.2717  0.2554
   17BDD     S129810   8.664   6.358   6.787  0.0160  0.2031  0.5215
   17BDD     C529811   8.304   6.406   6.604  0.0246 -0.2344  0.3865
   17BDD     C629812   8.361   6.628   6.805 -0.0765  0.1346  0.0095
   17BDD     O129813   8.384   6.719   6.887 -0.1183  0.2866 -0.1456
   17BDD     O229814   8.281   6.315   6.522  0.0663 -0.3861  0.5416
   17BDD     C729815   8.236   6.623   6.725 -0.0639 -0.0454  0.0013
   17BDD     C829816   8.209   6.517   6.630 -0.0157 -0.2215  0.1811
   17BDD     C929817   8.089   6.530   6.566 -0.0119 -0.3715  0.1407
   17BDD     S229818   8.001   6.677   6.622 -0.0681 -0.3027 -0.1252
   17BDD    C1029819   8.136   6.716   6.733 -0.0963 -0.0637 -0.1736
   17BDD    C1129820   8.115   6.827   6.840 -0.6406  0.2936 -0.1406
   17BDD    C1229821   8.098   6.979   6.784  0.2994  0.4329  0.8278
   17BDD    C1329822   8.212   7.046   6.712  0.2750  0.9543  1.3923
   17BDD    C1429823   8.357   6.987   6.701  0.4637 -0.3656 -1.3536
   17BDD    C1529824   8.412   6.999   6.570  0.6534 -0.0012  0.9840
   17BDD    C1629825   8.533   6.920   6.546 -0.4363 -0.1062  0.8432
   17BDD    C1729826   7.959   7.035   6.756 -0.1079 -1.1328  1.5251
   17BDD    C1829827   7.855   6.991   6.854 -1.0262  0.6332  0.5061
   17BDD    C1929828   8.012   6.456   6.464  0.4019  0.2730 -0.7647
   17BDD    C2029829   7.861   6.424   6.493  1.0527 -0.7009  2.2171
   17BDD    C2129830   7.812   6.386   6.642  1.4356 -0.4813  1.2484
   17BDD    C2229831   7.836   6.242   6.669  0.4725  0.0728 -1.5890
   17BDD    C2329832   7.719   6.197   6.769 -1.3118 -0.2054 -0.2129
   17BDD    C2429833   7.729   6.036   6.773 -0.4063 -0.3671 -0.2744
   17BDD    C2529834   7.806   6.336   6.370 -0.0156  0.2509  0.0679
   17BDD    C2629835   7.803   6.392   6.233  0.8185  1.1028  1.3714
   18TPM     C129836   8.553   6.196   6.604  0.8399  0.4721 -0.4953
   18TPM     C229837   8.539   6.200   6.468  1.2269  0.7627 -0.5289
   18TPM     C329838   8.598   6.087   6.401  0.8132  0.5542 -0.5454
   18TPM     C429839   8.656   5.997   6.485  0.1103  0.1045 -0.5245
   18TPM     S129840   8.641   6.048   6.657 -0.0848 -0.0920 -0.4818
   19BDTP    C129841   8.881   5.436   6.349 -0.1059 -0.2191  0.0417
   19BDTP    C229842   8.968   5.484   6.451  0.0048 -0.1811 -0.0697
   19BDTP    C329843   8.955   5.610   6.509  0.0808 -0.1508 -0.1177
   19BDTP    C429844   8.851   5.693   6.463  0.0460 -0.1585 -0.0528
   19BDTP    C529845   8.764   5.645   6.361 -0.0648 -0.1967  0.0588
   19BDTP    C629846   8.777   5.519   6.304 -0.1405 -0.2268  0.1068
   19BDTP    C729847   8.817   5.826   6.507  0.1096 -0.1319 -0.0844
   19BDTP    C829848   8.710   5.881   6.443  0.0527 -0.1479 -0.0031
   19BDTP    S129849   8.637   5.770   6.319 -0.0892 -0.1990  0.1252
   19BDTP    C929850   8.915   5.302   6.305 -0.1695 -0.2456  0.0734
   19BDTP   C1029851   9.022   5.248   6.369 -0.1128 -0.2296 -0.0081
   19BDTP    S229852   9.095   5.359   6.493  0.0294 -0.1784 -0.1362
   20FTM     S129853   8.976   5.695   6.783  0.0204 -0.1585 -0.7665
   20FTM     C129854   9.136   5.763   6.830  0.0834 -0.3691 -0.6737
   20FTM     C229855   9.222   5.754   6.725  0.0124 -0.1158 -0.7563
   20FTM     C329856   9.171   5.695   6.605 -0.0920  0.2489 -0.8932
   20FTM     C429857   9.041   5.658   6.618 -0.1020  0.2755 -0.9165
   20FTM     F129858   9.354   5.799   6.732  0.0384 -0.1987 -0.7124
   20FTM     C529859   9.143   5.822   6.952 -0.5198  0.2586 -1.8819
   20FTM     C629860   9.208   5.777   7.087 -0.4932  0.0208  1.5184
   20FTM     C729861   9.195   5.624   7.117 -1.1935 -0.6080 -0.9489
   20FTM     C829862   9.063   5.546   7.109  0.6567 -0.4443  0.2488
   20FTM     C929863   9.084   5.402   7.144 -0.0715  0.7848  0.4033
   20FTM    C1029864   8.962   5.310   7.148 -0.5537 -0.3757  0.1393
   20FTM    C1129865   9.193   5.853   7.219 -0.4211 -0.2956  0.4565
   20FTM    C1229866   9.178   5.998   7.247 -0.3410 -0.4030  1.0914
   21FTM     S129867   8.768   5.527   6.021 -0.8616 -0.1940  0.2391
   21FTM     C129868   8.632   5.444   5.937 -1.2754 -0.1440  0.8468
   21FTM     C229869   8.546   5.392   6.028 -1.1036  0.2403  1.2360
   21FTM     C329870   8.579   5.413   6.166 -0.6499  0.5132  1.0887
   21FTM     C429871   8.695   5.483   6.181 -0.4690  0.3312  0.5700
   21FTM     F129872   8.431   5.323   5.992 -1.3461  0.3685  1.7486
   21FTM     C529873   8.616   5.415   5.783 -0.8239  0.3771 -1.2620
   21FTM     C629874   8.716   5.312   5.714  1.0596 -0.0153  0.4903
   21FTM     C729875   8.865   5.330   5.702 -0.3705  0.6994  0.3715
   21FTM     C829876   8.966   5.279   5.803  1.1902 -0.6088 -0.7347
   21FTM     C929877   8.951   5.153   5.881 -1.2878  0.4068 -0.2090
   21FTM    C1029878   9.075   5.058   5.895  0.7679 -1.0743  1.7237
   21FTM    C1129879   8.683   5.292   5.554 -0.1403 -0.9288 -0.1560
   21FTM    C1229880   8.708   5.164   5.486 -0.3611 -0.4161 -1.0881
   22TPM     C129881   9.046   5.109   6.337 -0.3486  0.0050 -0.9250
   22TPM     C229882   9.160   5.065   6.276 -0.2937  0.5361 -1.2237
   22TPM     C329883   9.161   4.923   6.253  0.3545  0.5199 -1.1237
   22TPM     C429884   9.049   4.859   6.295  0.7940 -0.0240 -0.7488
   22TPM     S129885   8.931   4.974   6.369  0.4203 -0.5615 -0.4911
   23BDD     C129886   8.982   4.513   6.470  0.3126 -0.2589 -0.1339
   23BDD     C229887   8.978   4.484   6.336  0.2382 -0.2049 -0.1433
   23BDD     C329888   9.011   4.598   6.252  0.2513 -0.1869 -0.1141
   23BDD     C429889   9.040   4.711   6.323  0.3352 -0.2279 -0.0825
   23BDD     S129890   9.027   4.683   6.500  0.4041 -0.2916 -0.0875
   23BDD     C529891   8.944   4.352   6.281  0.1523 -0.1675 -0.1796
   23BDD     C629892   9.014   4.590   6.105  0.1800 -0.1299 -0.1184
   23BDD     O129893   9.043   4.688   6.033  0.1912 -0.1146 -0.0931
   23BDD     O229894   8.915   4.254   6.353  0.1409 -0.1827 -0.2049
   23BDD     C729895   8.979   4.458   6.049  0.0942 -0.0926 -0.1547
   23BDD     C829896   8.946   4.344   6.133  0.0811 -0.1105 -0.1841
   23BDD     C929897   8.917   4.231   6.062 -0.0031 -0.0697 -0.2156
   23BDD     S229898   8.930   4.258   5.885 -0.0716 -0.0059 -0.2109
   23BDD    C1029899   8.976   4.429   5.916  0.0198 -0.0385 -0.1645
   23BDD    C1129900   8.952   4.490   5.780 -0.3253 -0.4586 -2.3019
   23BDD    C1229901   8.881   4.616   5.754 -0.1404  0.3662 -1.1816
   23BDD    C1329902   8.937   4.686   5.625  0.1924 -0.0182 -1.2565
   23BDD    C1429903   9.086   4.709   5.630 -0.9749 -1.3906  0.2420
   23BDD    C1529904   9.186   4.755   5.740  1.2164 -0.5798 -1.6130
   23BDD    C1629905   9.318   4.822   5.710 -0.3171 -1.1820  0.4710
   23BDD    C1729906   8.737   4.580   5.747  2.0237 -1.0515  0.1640
   23BDD    C1829907   8.636   4.678   5.681  0.5804 -2.4202  0.0366
   23BDD    C1929908   8.912   4.079   6.102  0.7057 -0.9186 -0.1703
   23BDD    C2029909   8.784   3.996   6.071 -0.0690  0.6107 -0.5308
   23BDD    C2129910   8.815   3.845   6.068  0.3240  0.5045  1.0505
   23BDD    C2229911   8.918   3.774   6.164 -0.4754 -1.0143  0.4242
   23BDD    C2329912   8.900   3.620   6.173 -1.0855 -0.1162 -0.2100
   23BDD    C2429913   9.027   3.536   6.221  0.3967  0.0664 -0.4669
   23BDD    C2529914   8.674   4.017   5.972  0.0754  0.8051  0.2804
   23BDD    C2629915   8.557   4.117   5.983  0.1152  0.5257 -0.7799
   24TPM     C129916   8.957   4.442   6.594  1.0145  0.7365  0.0238
   24TPM     C229917   8.986   4.310   6.613  0.6647  0.6009 -0.3426
   24TPM     C329918   9.004   4.274   6.751  0.0229  0.0449 -0.3949
   24TPM     C429919   8.988   4.378   6.837 -0.1168 -0.2431 -0.0683
   24TPM     S129920   8.949   4.531   6.750  0.5570  0.1685  0.3338
   25BDTP    C129921   8.917   4.315   7.459 -0.2418  0.1370  0.0129
   25BDTP    C229922   8.901   4.183   7.407 -0.0193  0.0510  0.1616
   25BDTP    C329923   8.908   4.154   7.272  0.2217 -0.1205  0.2102
   25BDTP    C429924   8.933   4.260   7.182  0.2451 -0.2120  0.1079
   25BDTP    C529925   8.949   4.392   7.234  0.0224 -0.1262 -0.0408
   25BDTP    C629926   8.941   4.421   7.369 -0.2186  0.0453 -0.0895
   25BDTP    C729927   8.944   4.254   7.038  0.4741 -0.3904  0.1324
   25BDTP    C829928   8.968   4.373   6.979  0.4354 -0.4419  0.0112
   25BDTP    S129929   8.979   4.510   7.098  0.1025 -0.2719 -0.1515
   25BDTP    C929930   8.905   4.321   7.603 -0.4711  0.3152 -0.0118
   25BDTP   C1029931   8.882   4.201   7.662 -0.4323  0.3667  0.1097
   25BDTP    S229932   8.871   4.064   7.543 -0.0993  0.1967  0.2722
   26FTM     S129933   8.812   3.969   7.057 -0.8884  0.1269  0.7172
   26FTM     C129934   8.912   3.819   7.056 -0.3740  0.4667 -0.0604
   26FTM     C229935   8.991   3.815   7.167 -0.0088  0.3924 -0.3200
   26FTM     C329936   8.979   3.925   7.257 -0.1044  0.0744  0.0604
   26FTM     C429937   8.888   4.017   7.214 -0.5579 -0.1005  0.6302
   26FTM     F129938   9.080   3.711   7.192  0.4339  0.6079 -0.9179
   26FTM     C529939   8.866   3.723   6.954 -0.7306  0.0409 -0.1546
   26FTM     C629940   8.797   3.751   6.813  0.2557 -0.4098 -0.0954
   26FTM     C729941   8.646   3.807   6.820  0.6605  0.3027  0.8952
   26FTM     C829942   8.542   3.708   6.841  0.1723 -0.6458  1.6955
   26FTM     C929943   8.415   3.776   6.880 -1.1776 -0.4837 -1.7355
   26FTM    C1029944   8.344   3.691   6.975  0.6499 -0.7255 -0.1306
   26FTM    C1129945   8.872   3.834   6.710 -0.0897  0.0159 -0.3134
   26FTM    C1229946   8.839   3.807   6.566  0.3989 -0.9151 -0.1715
   27FTM     S129947   8.812   4.644   7.525  0.1037  0.0029  0.0916
   27FTM     C129948   8.907   4.796   7.541 -0.1018  0.1602 -0.1729
   27FTM     C229949   9.025   4.784   7.474 -0.1023  0.2153 -0.1826
   27FTM     C329950   9.048   4.659   7.408  0.0541  0.1407  0.0101
   27FTM     C429951   8.944   4.572   7.425  0.1773  0.0244  0.1729
   27FTM     F129952   9.119   4.886   7.468 -0.2434  0.3368 -0.3668
   27FTM     C529953   8.826   4.902   7.622  1.0810 -0.4499 -0.1948
   27FTM     C629954   8.886   4.972   7.744  0.5096  0.3075  0.2425
   27FTM     C729955   8.967   4.879   7.843  0.4017 -1.3528 -0.3672
   27FTM     C829956   9.108   4.849   7.818  0.4919 -0.9762 -1.2570
   27FTM     C929957   9.140   4.760   7.947  1.4975 -0.0779  2.3301
   27FTM    C1029958   9.283   4.739   7.975  0.2971 -0.9374  0.5137
   27FTM    C1129959   8.776   5.066   7.814  1.1016  1.3001 -1.1948
   27FTM    C1229960   8.816   5.157   7.926  0.1725 -0.0072  0.1874
   28TPM     C129961   8.895   4.192   7.807 -1.0971 -0.0527  0.9169
   28TPM     C229962   8.863   4.286   7.900 -2.3460 -0.7709  1.2650
   28TPM     C329963   8.892   4.245   8.035 -2.1207 -1.0155  1.1463
   28TPM     C429964   8.945   4.120   8.045 -0.6993 -0.4838  0.7080
   28TPM     S129965   8.964   4.043   7.883  0.4735  0.3738  0.4086
   29BDD     C129966   8.859   3.846   8.316 -0.2268  0.1993 -0.1304
   29BDD     C229967   8.940   3.938   8.377 -0.1457  0.1991 -0.2372
   29BDD     C329968   8.978   4.048   8.291 -0.0422  0.0618 -0.3691
   29BDD     C429969   8.925   4.039   8.165 -0.0459 -0.0409 -0.3603
   29BDD     S129970   8.824   3.892   8.146 -0.1795  0.0274 -0.1869
   29BDD     C529971   8.986   3.927   8.517 -0.1600  0.3254 -0.2224
   29BDD     C629972   9.065   4.159   8.336  0.0567  0.0372 -0.4988
   29BDD     O129973   9.098   4.254   8.262  0.1462 -0.0813 -0.6125
   29BDD     O229974   8.953   3.832   8.592 -0.2489  0.4439 -0.1090
   29BDD     C729975   9.111   4.148   8.476  0.0422  0.1634 -0.4838
   29BDD     C829976   9.073   4.037   8.563 -0.0610  0.3009 -0.3524
   29BDD     C929977   9.126   4.046   8.689 -0.0575  0.4035 -0.3605
   29BDD     S229978   9.227   4.193   8.708  0.0761  0.3352 -0.5340
   29BDD    C1029979   9.192   4.239   8.538  0.1233  0.1632 -0.5908
   29BDD    C1129980   9.262   4.366   8.492  0.2983 -0.3729 -0.2511
   29BDD    C1229981   9.410   4.369   8.464  0.1287 -0.6720 -0.5228
   29BDD    C1329982   9.453   4.507   8.418 -0.6550 -0.8669  0.3171
   29BDD    C1429983   9.440   4.624   8.529  0.1995  1.6015  0.0454
   29BDD    C1529984   9.542   4.726   8.489 -0.1102  1.7363 -1.4701
   29BDD    C1629985   9.482   4.871   8.472 -1.1450 -0.0666  1.4539
   29BDD    C1729986   9.478   4.255   8.393  0.8267  1.1667 -1.1183
   29BDD    C1829987   9.535   4.161   8.489 -0.5044  0.2714  0.5808
   29BDD    C1929988   9.103   3.948   8.807  0.1712  0.8700  0.2479
   29BDD    C2029989   9.235   3.879   8.849 -0.1098 -1.0199 -0.5234
   29BDD    C2129990   9.346   3.833   8.764  0.7487  1.2378 -0.0570
   29BDD    C2229991   9.315   3.734   8.658  0.1541 -0.8382 -0.2175
   29BDD    C2329992   9.444   3.731   8.581 -0.1562  0.4282 -0.2235
   29BDD    C2429993   9.424   3.632   8.478  2.5769 -0.5547 -0.6582
   29BDD    C2529994   9.213   3.803   8.990  0.1351 -1.0306 -0.2087
   29BDD    C2629995   9.107   3.687   8.968 -0.2043  0.5002 -1.0830
   30TPM     C129996   8.784   3.732   8.362  0.5129 -0.2834 -0.6721
   30TPM     C229997   8.660   3.758   8.412  0.3943 -0.0288 -1.0843
   30TPM     C329998   8.570   3.646   8.404  0.3481 -0.0034 -0.9301
   30TPM     C429999   8.625   3.535   8.347  0.4312 -0.2386 -0.4005
   30TPM     S130000   8.796   3.563   8.299  0.5753 -0.5126 -0.0527
   31BDTP    C130001   8.219   3.079   8.217  0.4191 -0.1296 -0.1414
   31BDTP    C230002   8.298   3.085   8.098  0.3190  0.2120 -0.1922
   31BDTP    C330003   8.407   3.170   8.084  0.2575  0.3117 -0.0730
   31BDTP    C430004   8.441   3.252   8.193  0.2966  0.0631  0.1047
   31BDTP    C530005   8.363   3.246   8.312  0.3967 -0.2784  0.1550
   31BDTP    C630006   8.253   3.162   8.326  0.4584 -0.3781  0.0359
   31BDTP    C730007   8.550   3.347   8.203  0.2469  0.1060  0.2512
   31BDTP    C830008   8.557   3.412   8.321  0.3042 -0.1833  0.4077
   31BDTP    S130009   8.427   3.362   8.438  0.4292 -0.5505  0.3912
   31BDTP    C930010   8.110   2.984   8.208  0.4687 -0.1723 -0.2882
   31BDTP   C1030011   8.103   2.919   8.089  0.4115  0.1169 -0.4444
   31BDTP    S230012   8.233   2.970   7.972  0.2869  0.4842 -0.4281
   32FTM     S130013   8.516   3.302   7.859  0.2295  0.1593 -0.1541
   32FTM     C130014   8.602   3.199   7.739 -0.2328  0.2198 -0.5435
   32FTM     C230015   8.608   3.071   7.785 -0.6084  0.0622 -0.9224
   32FTM     C330016   8.548   3.046   7.912 -0.5612 -0.1110 -0.9331
   32FTM     C430017   8.494   3.159   7.966 -0.1351 -0.0851 -0.5495
   32FTM     F130018   8.669   2.968   7.713 -1.0176  0.0653 -1.2825
   32FTM     C530019   8.638   3.212   7.591 -0.9222  0.4373  0.7117
   32FTM     C630020   8.542   3.159   7.480 -1.9379  0.2968 -0.2682
   32FTM     C730021   8.539   3.004   7.440 -0.7331 -1.8721  0.9989
   32FTM     C830022   8.657   2.926   7.366 -0.4242 -0.6548  0.7594
   32FTM     C930023   8.813   2.938   7.373  0.8986 -1.1017  0.7033
   32FTM    C1030024   8.890   3.073   7.394  1.2084 -0.6242  1.0607
   32FTM    C1130025   8.421   3.241   7.507  0.4373  0.1747 -0.3335
   32FTM    C1230026   8.323   3.151   7.575  1.0985 -0.6327 -1.2105
   33FTM     S130027   8.265   3.112   8.601  0.0537  0.5017  0.3453
   33FTM     C130028   8.114   3.097   8.697 -0.1511  0.9594  0.1003
   33FTM     C230029   8.006   3.103   8.614  0.0298  0.3229 -0.1943
   33FTM     C330030   8.034   3.119   8.475  0.3316 -0.5383 -0.2460
   33FTM     C430031   8.168   3.126   8.450  0.3834 -0.5624  0.0172
   33FTM     F130032   7.875   3.094   8.660 -0.0668  0.4827 -0.4342
   33FTM     C530033   8.141   3.127   8.845  0.4759  0.9766  0.3402
   33FTM     C630034   8.228   3.237   8.881  0.2142 -1.0519 -1.3526
   33FTM     C730035   8.161   3.379   8.913 -0.0934  0.8941  0.1397
   33FTM     C830036   8.096   3.425   9.036  1.1418  0.2849  0.8620
   33FTM     C930037   8.111   3.572   9.075  0.4753 -0.0062  0.1600
   33FTM    C1030038   8.058   3.664   8.969 -0.2636 -1.5764  0.7104
   33FTM    C1130039   8.379   3.229   8.918 -0.2726  1.1438  0.0563
   33FTM    C1230040   8.491   3.321   8.872  0.7285 -0.0339  0.0377
   34TPM     C130041   7.992   2.833   8.063 -0.8165  0.5021  0.6179
   34TPM     C230042   7.948   2.711   8.105 -0.6090  0.3411  0.3769
   34TPM     C330043   7.828   2.666   8.037 -0.1386 -0.0542 -0.2131
   34TPM     C430044   7.782   2.754   7.944  0.0127 -0.1945 -0.4223
   34TPM     S130045   7.886   2.901   7.934 -0.4306  0.1643  0.1144
   35BDD     C130046   7.420   2.616   7.824 -0.1356 -0.2316 -0.6712
   35BDD     C230047   7.459   2.698   7.721 -0.0445 -0.1654 -0.5842
   35BDD     C330048   7.587   2.762   7.744  0.0225 -0.3242 -0.5115
   35BDD     C430049   7.644   2.728   7.863 -0.0186 -0.5093 -0.5441
   35BDD     S130050   7.542   2.613   7.955 -0.1439 -0.4972 -0.6679
   35BDD     C530051   7.379   2.720   7.599 -0.0155  0.0463 -0.5649
   35BDD     C630052   7.648   2.855   7.646  0.1247 -0.2869 -0.4125
   35BDD     O130053   7.759   2.910   7.666  0.1824 -0.4238 -0.3498
   35BDD     O230054   7.268   2.665   7.579 -0.0732  0.1833 -0.6276
   35BDD     C730055   7.568   2.877   7.524  0.1537 -0.0753 -0.3932
   35BDD     C830056   7.440   2.813   7.501  0.0868  0.0837 -0.4660
   35BDD     C930057   7.383   2.847   7.382  0.1279  0.2686 -0.4336
   35BDD     S230058   7.485   2.962   7.290  0.2533  0.2566 -0.3096
   35BDD    C1030059   7.607   2.959   7.421  0.2449 -0.0091 -0.3064
   35BDD    C1130060   7.728   3.058   7.395  1.2810  1.0356 -1.1922
   35BDD    C1230061   7.867   3.018   7.356  0.0307  1.3117  0.5728
   35BDD    C1330062   7.947   3.149   7.317  0.8560  1.2956 -1.2203
   35BDD    C1430063   7.979   3.179   7.165  0.0594 -1.3237  0.1285
   35BDD    C1530064   8.054   3.314   7.141  0.1497  0.0055 -0.7779
   35BDD    C1630065   8.207   3.281   7.179  0.1107 -1.4421 -0.5187
   35BDD    C1730066   7.899   2.872   7.294  0.2937 -0.4637 -0.6754
   35BDD    C1830067   8.011   2.782   7.360  1.3094 -0.2288  0.7648
   35BDD    C1930068   7.270   2.789   7.295  0.7331 -0.3532 -0.2222
   35BDD    C2030069   7.302   2.752   7.142  1.4107  0.1408 -0.6929
   35BDD    C2130070   7.162   2.713   7.070  0.4899 -0.7355 -0.6166
   35BDD    C2230071   7.097   2.839   7.002 -0.0290  0.5649  0.2145
   35BDD    C2330072   6.994   2.820   6.900  1.0511  0.1719 -0.1572
   35BDD    C2430073   7.001   2.928   6.797  0.5924  1.0621  0.3050
   35BDD    C2530074   7.406   2.660   7.103  0.7586  1.1980  0.3872
   35BDD    C2630075   7.555   2.683   7.135  1.0923  0.2197  0.1994
   36TPM     C130076   7.308   2.542   7.858 -0.0962 -0.3727  0.3998
   36TPM     C230077   7.318   2.412   7.896 -0.4187 -0.2433  0.9600
   36TPM     C330078   7.190   2.349   7.920 -0.6003  0.0518  0.7920
   36TPM     C430079   7.084   2.431   7.902 -0.4167  0.1473  0.1037
   36TPM     S130080   7.136   2.596   7.851  0.0034 -0.1300 -0.3897
   37BDTP    C130081   6.514   2.209   8.037 -0.5157 -0.0053  0.1390
   37BDTP    C230082   6.490   2.349   8.024 -0.4588 -0.0004  0.0851
   37BDTP    C330083   6.592   2.440   7.997 -0.4201 -0.0507  0.0597
   37BDTP    C430084   6.723   2.391   7.982 -0.4383 -0.1087  0.0889
   37BDTP    C530085   6.746   2.251   7.994 -0.4952 -0.1136  0.1431
   37BDTP    C630086   6.645   2.160   8.021 -0.5338 -0.0632  0.1682
   37BDTP    C730087   6.843   2.466   7.953 -0.4058 -0.1673  0.0716
   37BDTP    C830088   6.955   2.390   7.944 -0.4356 -0.2154  0.1092
   37BDTP    S130089   6.923   2.213   7.970 -0.5083 -0.1932  0.1723
   37BDTP    C930090   6.393   2.135   8.065 -0.5479  0.0533  0.1564
   37BDTP   C1030091   6.282   2.211   8.074 -0.5184  0.1014  0.1185
   37BDTP    S230092   6.314   2.388   8.049 -0.4456  0.0792  0.0558
   38FTM     S130093   6.488   2.663   7.830 -0.3162 -0.1210  0.1973
   38FTM     C130094   6.540   2.823   7.895  1.1641 -0.3939 -0.2265
   38FTM     C230095   6.610   2.805   8.010  1.2587 -0.7519 -0.3357
   38FTM     C330096   6.628   2.670   8.053  0.2112 -0.8339 -0.1025
   38FTM     C430097   6.569   2.581   7.969 -0.7156 -0.5287  0.1953
   38FTM     F130098   6.663   2.911   8.082  2.2995 -1.0267 -0.6537
   38FTM     C530099   6.485   2.955   7.839 -0.3242  0.8085 -0.4547
   38FTM     C630100   6.340   2.992   7.814  0.5379  0.5379 -0.7318
   38FTM     C730101   6.342   3.148   7.803 -0.1316 -0.0097 -0.8786
   38FTM     C830102   6.288   3.223   7.930 -0.0832  1.8333 -0.1812
   38FTM     C930103   6.207   3.347   7.912 -0.5880 -0.5748 -0.4011
   38FTM    C1030104   6.146   3.367   8.043  1.3647  0.0002  0.7864
   38FTM    C1130105   6.253   2.912   7.724 -0.0472  0.3529  0.2011
   38FTM    C1230106   6.105   2.920   7.706  0.6710 -0.8149 -0.4978
   39FTM     S130107   6.699   1.899   7.917  0.0616  0.4778  0.2491
   39FTM     C130108   6.784   1.784   8.027 -0.3197 -0.1086 -0.0569
   39FTM     C230109   6.797   1.840   8.150 -0.2954 -0.5588  0.1481
   39FTM     C330110   6.743   1.972   8.166  0.0136 -0.4770  0.5457
   39FTM     C430111   6.687   2.019   8.051  0.2334  0.0530  0.6487
   39FTM     F130112   6.858   1.775   8.256 -0.5515 -1.0715 -0.0124
   39FTM     C530113   6.813   1.634   7.972  0.9994  0.4778 -0.8207
   39FTM     C630114   6.697   1.547   7.891  1.3240 -0.5954 -0.3720
   39FTM     C730115   6.604   1.487   8.000 -0.3657 -0.3428  1.9435
   39FTM     C830116   6.458   1.454   7.946 -0.6759  0.8715  1.0467
   39FTM     C930117   6.384   1.365   8.045 -0.6162  0.2783  1.0644
   39FTM    C1030118   6.313   1.455   8.142 -0.5236 -0.4187  0.8322
   39FTM    C1130119   6.782   1.436   7.816  0.4523  0.1815 -1.4193
   39FTM    C1230120   6.718   1.327   7.724 -0.0946 -0.0888 -0.2164
   40TPM     C130121   6.153   2.155   8.051 -0.5605  0.5481  0.2312
   40TPM     C230122   6.100   2.148   7.926 -0.2075  0.1481  0.1005
   40TPM     C330123   5.990   2.055   7.915  0.2462 -0.3824 -0.0764
   40TPM     C430124   5.960   1.992   8.032  0.2390 -0.3872 -0.0804
   40TPM     S130125   6.068   2.045   8.166 -0.3456  0.2833  0.1402
   41BDD     C130126   5.788   1.645   7.972  0.1840  0.0099 -0.1881
   41BDD     C230127   5.697   1.720   8.041  0.1166 -0.0918 -0.1671
   41BDD     C330128   5.746   1.851   8.079  0.0502 -0.1147  0.0000
   41BDD     C430129   5.874   1.875   8.038  0.0680 -0.0301  0.1044
   41BDD     S130130   5.942   1.734   7.950  0.1690  0.0841  0.0001
   41BDD     C530131   5.561   1.673   8.075  0.1106 -0.1717 -0.3004
   41BDD     C630132   5.664   1.948   8.154 -0.0287 -0.2197  0.0501
   41BDD     O130133   5.706   2.061   8.187 -0.0859 -0.2394  0.1945
   41BDD     O230134   5.518   1.560   8.042  0.1681 -0.1519 -0.4449
   41BDD     C730135   5.528   1.901   8.188 -0.0345 -0.2995 -0.0830
   41BDD     C830136   5.479   1.770   8.150  0.0321 -0.2767 -0.2501
   41BDD     C930137   5.350   1.747   8.191  0.0142 -0.3613 -0.3545
   41BDD     S230138   5.282   1.887   8.279 -0.0871 -0.4754 -0.2505
   41BDD    C1030139   5.436   1.976   8.257 -0.1020 -0.4013 -0.0622
   41BDD    C1130140   5.433   2.123   8.295  0.5155  0.1834 -0.6288
   41BDD    C1230141   5.372   2.230   8.203  1.5220  0.5065 -0.5707
   41BDD    C1330142   5.471   2.347   8.157 -1.2400 -0.0233  0.0897
   41BDD    C1430143   5.574   2.325   8.040 -1.8354  1.5984  0.6856
   41BDD    C1530144   5.543   2.317   7.891  0.6969  0.5221 -0.1170
   41BDD    C1630145   5.578   2.193   7.826  0.9723 -0.7258 -0.5466
   41BDD    C1730146   5.213   2.230   8.182 -0.0989  0.9342  0.9736
   41BDD    C1830147   5.156   2.333   8.092  0.2030 -0.9176  0.6959
   41BDD    C1930148   5.240   1.652   8.150  0.4451 -0.4754 -0.0603
   41BDD    C2030149   5.142   1.726   8.054 -0.7141 -0.2180 -0.4882
   41BDD    C2130150   5.168   1.857   7.973 -1.1361  1.4733  0.0624
   41BDD    C2230151   5.283   1.870   7.863 -2.3994 -0.7986  0.0307
   41BDD    C2330152   5.340   1.774   7.761 -0.7765 -0.5877  0.8457
   41BDD    C2430153   5.448   1.837   7.659  1.6430 -0.0061 -0.5226
   41BDD    C2530154   5.023   1.635   8.020 -0.6768 -0.0159  0.8919
   41BDD    C2630155   4.909   1.664   8.103  1.2662  1.3789  0.2807
   42TPM     C130156   5.795   1.513   7.920  0.6261  0.3249 -0.7140
   42TPM     C230157   5.713   1.483   7.815  0.7592  0.3915 -0.8372
   42TPM     C330158   5.754   1.366   7.741  0.4627  0.0274 -0.4345
   42TPM     C430159   5.867   1.307   7.790  0.1036 -0.3169 -0.0042
   42TPM     S130160   5.931   1.396   7.934  0.1119 -0.2070 -0.0750
   43BDTP    C130161   6.206   0.903   7.451 -0.3577  0.2302  0.1401
   43BDTP    C230162   6.246   0.872   7.584 -0.2508  0.3017  0.1240
   43BDTP    C330163   6.195   0.938   7.695 -0.1235  0.3975  0.1270
   43BDTP    C430164   6.098   1.038   7.673 -0.1001  0.4243  0.1470
   43BDTP    C530165   6.058   1.068   7.540 -0.2069  0.3528  0.1631
   43BDTP    C630166   6.109   1.003   7.429 -0.3344  0.2570  0.1601
   43BDTP    C730167   6.031   1.120   7.772  0.0232  0.5190  0.1538
   43BDTP    C830168   5.942   1.209   7.720  0.0141  0.5220  0.1742
   43BDTP    S130169   5.932   1.201   7.539 -0.1518  0.4053  0.1873
   43BDTP    C930170   6.273   0.821   7.352 -0.4810  0.1356  0.1332
   43BDTP   C1030171   6.362   0.732   7.403 -0.4722  0.1325  0.1129
   43BDTP    S230172   6.372   0.740   7.585 -0.3062  0.2492  0.0998
   44FTM     S130173   6.192   0.844   7.968  0.0409 -0.2289  0.3822
   44FTM     C130174   6.335   0.894   8.065 -0.1308 -0.3749  0.7144
   44FTM     C230175   6.416   0.973   7.990  0.2367 -0.6401  0.8276
   44FTM     C330176   6.373   0.999   7.856  0.6640 -0.7435  0.6669
   44FTM     C430177   6.255   0.937   7.828  0.6223 -0.5511  0.4228
   44FTM     F130178   6.535   1.026   8.039  0.2081 -0.8051  1.0836
   44FTM     C530179   6.349   0.815   8.192 -0.3435 -0.8542 -0.7192
   44FTM     C630180   6.401   0.864   8.321  0.8454 -0.3059  0.2632
   44FTM     C730181   6.408   0.765   8.438 -0.6931  0.6410 -0.1611
   44FTM     C830182   6.509   0.644   8.426 -0.2385 -0.0823  0.6314
   44FTM     C930183   6.515   0.523   8.531  0.2343  0.1618 -0.1640
   44FTM    C1030184   6.408   0.408   8.515  0.2381 -0.0052  0.7013
   44FTM    C1130185   6.359   1.005   8.368  0.3726 -0.8261 -0.0448
   44FTM    C1230186   6.220   1.025   8.432  0.1113  0.6511  0.1075
   45FTM     S130187   6.186   1.130   7.197  0.2640  0.2847 -0.2142
   45FTM     C130188   6.074   1.141   7.056  0.2390  0.0066 -0.2171
   45FTM     C230189   5.957   1.078   7.084  0.0949  0.4000  0.0751
   45FTM     C330190   5.947   1.019   7.214 -0.0025  0.9288  0.3133
   45FTM     C430191   6.060   1.037   7.288  0.0696  0.9408  0.1999
   45FTM     F130192   5.852   1.071   6.994  0.0426  0.3046  0.1442
   45FTM     C530193   6.122   1.216   6.931  0.2559 -1.9156  0.4762
   45FTM     C630194   6.045   1.350   6.887  0.5249  0.4587 -1.4953
   45FTM     C730195   6.068   1.471   6.982  1.0262  1.3074 -0.6831
   45FTM     C830196   6.204   1.497   7.053  1.3807  0.5429  0.2615
   45FTM     C930197   6.196   1.625   7.146  0.3897  1.0272  0.6598
   45FTM    C1030198   6.335   1.703   7.139 -0.8634  0.7551 -0.4261
   45FTM    C1130199   5.906   1.330   6.822  0.3456 -0.1767  0.0976
   45FTM    C1230200   5.784   1.341   6.908 -0.0530  0.9590 -0.4372
   46TPM     C130201   6.463   0.649   7.341 -0.5814 -0.6580 -0.6571
   46TPM     C230202   6.439   0.568   7.235 -0.2959 -1.1685 -0.3377
   46TPM     C330203   6.556   0.500   7.185 -0.0796 -1.0489  0.0060
   46TPM     C430204   6.670   0.531   7.254 -0.2003 -0.4471 -0.0518
   46TPM     S130205   6.637   0.648   7.387 -0.5995  0.0188 -0.5479
   47BDD     C130206   7.063   0.526   7.211 -0.2834 -0.1114  0.0209
   47BDD     C230207   7.023   0.396   7.195 -0.1991 -0.1361  0.0091
   47BDD     C330208   6.878   0.379   7.201 -0.1892 -0.2279 -0.0097
   47BDD     C430209   6.811   0.496   7.221 -0.2661 -0.2719 -0.0117
   47BDD     S130210   6.923   0.636   7.234 -0.3561 -0.2014  0.0098
   47BDD     C530211   7.115   0.283   7.174 -0.1247 -0.0762  0.0142
   47BDD     C630212   6.813   0.247   7.187 -0.1040 -0.2687 -0.0250
   47BDD     O130213   6.689   0.233   7.192 -0.0955 -0.3479 -0.0411
   47BDD     O230214   7.239   0.297   7.169 -0.1333  0.0030  0.0303
   47BDD     C730215   6.906   0.134   7.166 -0.0294 -0.2088 -0.0199
   47BDD     C830216   7.050   0.151   7.160 -0.0393 -0.1170 -0.0011
   47BDD     C930217   7.117   0.034   7.140  0.0373 -0.0730  0.0008
   47BDD     S230218   7.005  -0.106   7.127  0.1273 -0.1438 -0.0207
   47BDD    C1030219   6.866   0.004   7.151  0.0546 -0.2335 -0.0318
   47BDD    C1130220   6.725  -0.065   7.167 -1.1351 -1.7274  0.3262
   47BDD    C1230221   6.659  -0.100   7.043  0.9904  0.0044 -0.0725
   47BDD    C1330222   6.569  -0.215   7.076 -1.0000 -0.4714 -0.4145
   47BDD    C1430223   6.473  -0.261   6.979 -0.8891  1.0193 -1.0169
   47BDD    C1530224   6.327  -0.239   7.007  0.0953 -0.7216  1.3487
   47BDD    C1630225   6.260  -0.233   6.868  0.2640  1.1096 -0.6745
   47BDD    C1730226   6.734  -0.117   6.910  0.9783  0.8667  0.1753
   47BDD    C1830227   6.660  -0.083   6.783 -1.0320  0.3003  1.3787
   47BDD    C1930228   7.261  -0.004   7.185  0.4640  0.0863  0.4154
   47BDD    C2030229   7.387  -0.039   7.077  0.4289 -1.1275  0.3680
   47BDD    C2130230   7.348  -0.147   6.966 -0.0604 -0.4880 -0.4982
   47BDD    C2230231   7.471  -0.170   6.879 -0.0334 -0.2151 -0.5878
   47BDD    C2330232   7.463  -0.270   6.767  1.1230  1.1439 -0.3784
   47BDD    C2430233   7.326  -0.332   6.732 -1.2370  1.0686  0.4436
   47BDD    C2530234   7.461   0.088   7.045  0.0806  0.0880 -0.3778
   47BDD    C2630235   7.531   0.155   7.169  0.6697 -0.0562  1.7758
   48TPM     C130236   7.199   0.585   7.213  0.3811 -0.2608 -0.3185
   48TPM     C230237   7.268   0.547   7.324  0.1303 -0.2025 -0.1397
   48TPM     C330238   7.358   0.648   7.373 -0.2532 -0.0379  0.2339
   48TPM     C430239   7.358   0.763   7.301 -0.2947  0.0294  0.3400
   48TPM     S130240   7.242   0.753   7.162  0.1508 -0.1111 -0.0266
   49BDTP    C130241   7.708   1.218   7.545 -0.1141  0.3867 -0.4848
   49BDTP    C230242   7.588   1.285   7.509 -0.3215  0.0313 -0.4683
   49BDTP    C330243   7.481   1.221   7.449 -0.1673 -0.3010 -0.3923
   49BDTP    C430244   7.493   1.083   7.422  0.2093 -0.2826 -0.3297
   49BDTP    C530245   7.613   1.016   7.458  0.4169  0.0727 -0.3464
   49BDTP    C630246   7.720   1.080   7.518  0.2624  0.4050 -0.4224
   49BDTP    C730247   7.395   0.995   7.361  0.4292 -0.5886 -0.2465
   49BDTP    C830248   7.436   0.867   7.348  0.7869 -0.4815 -0.2003
   49BDTP    S130249   7.604   0.839   7.413  0.8959  0.0220 -0.2561
   49BDTP    C930250   7.806   1.305   7.607 -0.3339  0.6926 -0.5682
   49BDTP   C1030251   7.765   1.434   7.619 -0.6917  0.5855 -0.6143
   49BDTP    S230252   7.597   1.462   7.554 -0.8004  0.0821 -0.5586
   50FTM     S130253   7.316   1.417   7.332 -0.2957  0.1209  0.3415
   50FTM     C130254   7.140   1.411   7.369 -0.2186 -0.6000  0.6236
   50FTM     C230255   7.113   1.304   7.448  0.2401 -1.0908  0.1302
   50FTM     C330256   7.225   1.222   7.484  0.5521 -0.9399 -0.4822
   50FTM     C430257   7.341   1.267   7.430  0.3249 -0.3130 -0.4572
   50FTM     F130258   6.985   1.274   7.494  0.4047 -1.7059  0.2041
   50FTM     C530259   7.040   1.529   7.315 -1.6897  0.6933 -0.0438
   50FTM     C630260   6.906   1.523   7.234 -1.4546 -0.7329 -0.0445
   50FTM     C730261   6.815   1.407   7.246  0.6080 -0.6912 -0.2900
   50FTM     C830262   6.753   1.332   7.121  0.0067  0.4583 -0.2177
   50FTM     C930263   6.624   1.262   7.154  0.1320 -0.2654  0.1980
   50FTM    C1030264   6.555   1.186   7.030  1.2458  0.2720 -1.1492
   50FTM    C1130265   6.828   1.649   7.268  0.3975 -2.2465 -0.8597
   50FTM    C1230266   6.681   1.677   7.217  0.9148  0.5987 -1.1258
   51FTM     S130267   7.825   0.862   7.682 -0.4139  0.4642  0.2670
   51FTM     C130268   7.978   0.797   7.612 -0.7026 -0.5262  0.5354
   51FTM     C230269   8.020   0.876   7.510 -0.2315 -1.0317  0.3256
   51FTM     C330270   7.939   0.990   7.481  0.3678 -0.6881 -0.0472
   51FTM     C430271   7.830   0.998   7.563  0.3556  0.1066 -0.1257
   51FTM     F130272   8.136   0.850   7.437 -0.3157 -1.8357  0.4590
   51FTM     C530273   8.030   0.658   7.628 -0.0016 -0.1805 -0.0736
   51FTM     C630274   7.925   0.565   7.662 -0.0960  0.0018 -0.4356
   51FTM     C730275   7.980   0.446   7.744  0.6456  0.0398  0.3647
   51FTM     C830276   7.963   0.487   7.886 -0.6219  0.7246  0.1843
   51FTM     C930277   7.844   0.428   7.972 -1.8112  1.0695  0.4201
   51FTM    C1030278   7.796   0.277   7.958 -0.5589 -0.1486  0.4556
   51FTM    C1130279   7.820   0.501   7.569 -0.7851  0.2173  0.7912
   51FTM    C1230280   7.870   0.388   7.468 -0.0212 -0.4886 -0.3256
   52TPM     C130281   7.828   1.520   7.690 -0.0291  0.3980  0.0481
   52TPM     C230282   7.778   1.638   7.737  0.0416  0.2941  0.3883
   52TPM     C330283   7.863   1.703   7.832  0.2154  0.1114  0.3582
   52TPM     C430284   7.979   1.635   7.858  0.2775  0.0760 -0.0046
   52TPM     S130285   7.988   1.482   7.763  0.1196  0.2722 -0.3393
   53BDD     C130286   8.167   1.618   8.207  0.2858 -0.0113 -0.4360
   53BDD     C230287   8.170   1.750   8.172  0.1109  0.0263 -0.3104
   53BDD     C330288   8.101   1.777   8.046 -0.1993  0.1050 -0.1271
   53BDD     C430289   8.048   1.666   7.988 -0.2568  0.1262 -0.1155
   53BDD     S130290   8.080   1.519   8.087  0.0734  0.0493 -0.3335
   53BDD     C530291   8.234   1.857   8.252  0.2229 -0.0088 -0.3541
   53BDD     C630292   8.092   1.913   7.989 -0.4275  0.1562  0.0305
   53BDD     O130293   8.033   1.936   7.881 -0.6952  0.2240  0.1886
   53BDD     O230294   8.293   1.833   8.360  0.4907 -0.0766 -0.5124
   53BDD     C730295   8.156   2.019   8.069 -0.3157  0.1211 -0.0134
   53BDD     C830296   8.224   1.992   8.194 -0.0052  0.0425 -0.1967
   53BDD     C930297   8.277   2.104   8.252  0.0520  0.0212 -0.2081
   53BDD     S230298   8.246   2.251   8.154 -0.2786  0.0983  0.0098
   53BDD    C1030299   8.158   2.151   8.033 -0.4904  0.1587  0.1125
   53BDD    C1130300   8.120   2.238   7.921  0.0386 -1.2432  0.3704
   53BDD    C1230301   7.976   2.287   7.936 -0.3230 -0.5587  0.4350
   53BDD    C1330302   7.926   2.379   7.822 -0.5818 -0.9872 -0.3581
   53BDD    C1430303   7.875   2.305   7.712  0.4701  0.3863 -0.0697
   53BDD    C1530304   7.890   2.357   7.561  0.6354  0.5694  0.2979
   53BDD    C1630305   7.797   2.470   7.529 -0.0668  0.4253 -0.0611
   53BDD    C1730306   7.868   2.186   7.998  1.2757 -1.5082 -0.1597
   53BDD    C1830307   7.739   2.224   8.071  0.5005 -0.7217  0.2155
   53BDD    C1930308   8.355   2.122   8.383 -0.4831 -0.2071  0.0903
   53BDD    C2030309   8.248   2.139   8.519 -1.0202 -0.7601  1.6311
   53BDD    C2130310   8.122   2.048   8.513 -0.2832  0.4591  0.7390
   53BDD    C2230311   8.008   2.062   8.624  0.0741 -0.2161  0.4659
   53BDD    C2330312   7.975   2.205   8.677  0.4939  0.5126 -0.6046
   53BDD    C2430313   7.926   2.228   8.832 -0.2216  1.1837 -0.0663
   53BDD    C2530314   8.329   2.132   8.642 -1.3755  0.9731 -0.1187
   53BDD    C2630315   8.319   1.995   8.743  0.6523 -1.2598 -0.0643
   54TPM     C130316   8.188   1.545   8.336 -0.1645  0.2484  0.3939
   54TPM     C230317   8.257   1.428   8.339 -0.4125  0.0984  0.2813
   54TPM     C330318   8.245   1.356   8.464 -0.6530 -0.0504  0.1733
   54TPM     C430319   8.166   1.419   8.556 -0.5885 -0.0140  0.2034
   54TPM     S130320   8.101   1.575   8.492 -0.2160  0.2129  0.3722
   55BDTP    C130321   8.089   1.179   9.124  0.0653 -0.5094  0.0827
   55BDTP    C230322   7.969   1.253   9.101  0.0806 -0.4422  0.2120
   55BDTP    C330323   7.947   1.324   8.983 -0.0069 -0.4309  0.2351
   55BDTP    C430324   8.047   1.322   8.885 -0.1142 -0.4885  0.1261
   55BDTP    C530325   8.167   1.248   8.909 -0.1295 -0.5557 -0.0029
   55BDTP    C630326   8.189   1.177   9.026 -0.0423 -0.5670 -0.0261
   55BDTP    C730327   8.047   1.388   8.756 -0.2172 -0.4896  0.1258
   55BDTP    C830328   8.159   1.367   8.682 -0.3078 -0.5536  0.0043
   55BDTP    S130329   8.281   1.261   8.767 -0.2756 -0.6214 -0.1271
   55BDTP    C930330   8.089   1.113   9.254  0.1681 -0.5083  0.0830
   55BDTP   C1030331   7.977   1.134   9.327  0.2590 -0.4444  0.2046
   55BDTP    S230332   7.855   1.240   9.243  0.2268 -0.3765  0.3358
   56FTM     S130333   7.777   1.552   9.050  0.4700  0.0577  0.0738
   56FTM     C130334   7.622   1.567   8.959  0.2426  0.5355  0.5348
   56FTM     C230335   7.608   1.463   8.873 -0.1893  0.7415  0.3495
   56FTM     C330336   7.715   1.367   8.871 -0.3656  0.5452 -0.1502
   56FTM     C430337   7.813   1.399   8.960 -0.0585  0.1768 -0.3544
   56FTM     F130338   7.498   1.448   8.790 -0.4507  1.1201  0.6213
   56FTM     C530339   7.529   1.671   9.005 -1.2179  0.8441  0.2667
   56FTM     C630340   7.386   1.707   8.957 -0.7246  1.0135 -1.0715
   56FTM     C730341   7.324   1.817   9.027 -0.7355 -0.5460  0.5695
   56FTM     C830342   7.199   1.784   9.114 -0.3508  0.8352  0.4532
   56FTM     C930343   7.272   1.746   9.252 -0.2686 -1.2272  1.5074
   56FTM    C1030344   7.275   1.859   9.350 -0.7115 -0.7220 -0.6739
   56FTM    C1130345   7.355   1.697   8.812 -0.9661 -0.2757  1.1071
   56FTM    C1230346   7.232   1.611   8.770 -0.6043  0.0970 -0.7625
   57FTM     S130347   8.466   1.167   9.125  0.1431 -0.0771  0.1578
   57FTM     C130348   8.542   1.004   9.104  0.0737 -0.0282 -0.5374
   57FTM     C230349   8.454   0.920   9.044 -0.1132  0.1523 -0.5217
   57FTM     C330350   8.326   0.974   9.011 -0.2117  0.2610  0.0188
   57FTM     C430351   8.315   1.105   9.047 -0.0962  0.1604  0.4305
   57FTM     F130352   8.485   0.787   9.015 -0.2060  0.2299 -0.9959
   57FTM     C530353   8.679   0.995   9.164 -1.9476 -1.1525  0.5376
   57FTM     C630354   8.803   1.065   9.091 -0.8195 -0.9987  0.3246
   57FTM     C730355   8.937   1.069   9.155 -0.7442 -0.1459 -0.4386
   57FTM     C830356   8.936   1.049   9.303 -0.2084  0.4881 -0.9219
   57FTM     C930357   8.938   1.179   9.372 -0.6949 -0.0443 -1.4226
   57FTM    C1030358   8.813   1.190   9.470  0.1300  0.4647 -0.3501
   57FTM    C1130359   8.817   1.002   8.949 -0.8000 -0.0394 -1.1968
   57FTM    C1230360   8.860   1.068   8.812 -0.1284  0.3214 -0.1721
   58TPM     C130361   7.967   1.115   9.474  0.0450 -0.9375 -0.3677
   58TPM     C230362   7.881   1.031   9.538  0.0850 -0.6733  0.0403
   58TPM     C330363   7.905   1.019   9.679  0.0840  0.0290  0.1040
   58TPM     C430364   8.010   1.095   9.723  0.0432  0.3004 -0.2555
   58TPM     S130365   8.087   1.187   9.588  0.0028 -0.3149 -0.7057
   59BDD     C130366   8.031   1.035  10.123  0.2025 -0.2333 -0.1898
   59BDD     C230367   8.147   1.098  10.090  0.1516 -0.1647 -0.2372
   59BDD     C330368   8.156   1.133   9.949 -0.0060  0.0034 -0.2072
   59BDD     C430369   8.046   1.094   9.877 -0.0725  0.0606 -0.1368
   59BDD     S130370   7.924   1.013   9.981  0.0573 -0.0921 -0.1035
   59BDD     C530371   8.254   1.131  10.187  0.2453 -0.2513 -0.3123
   59BDD     C630372   8.273   1.202   9.891 -0.0846  0.1013 -0.2491
   59BDD     O130373   8.280   1.231   9.770 -0.2203  0.2463 -0.2234
   59BDD     O230374   8.246   1.101  10.308  0.3810 -0.3963 -0.3383
   59BDD     C730375   8.380   1.234   9.988  0.0093  0.0148 -0.3240
   59BDD     C830376   8.371   1.200  10.129  0.1669 -0.1534 -0.3543
   59BDD     C930377   8.481   1.238  10.201  0.2332 -0.2106 -0.4244
   59BDD     S230378   8.602   1.320  10.098  0.1035 -0.0578 -0.4577
   59BDD    C1030379   8.496   1.298   9.955 -0.0420  0.0834 -0.3717
   59BDD    C1130380   8.541   1.350   9.829  0.2599  0.0338  0.3428
   59BDD    C1230381   8.448   1.474   9.786  0.0856 -1.4132  0.0729
   59BDD    C1330382   8.413   1.572   9.883 -0.6309 -0.4919 -0.4532
   59BDD    C1430383   8.302   1.671   9.818 -2.0087  0.5760 -0.0346
   59BDD    C1530384   8.323   1.818   9.886  0.0456  1.4736 -0.1696
   59BDD    C1630385   8.247   1.937   9.819 -0.4487 -0.4596  0.3765
   59BDD    C1730386   8.489   1.518   9.641 -0.5945  0.4925  1.8167
   59BDD    C1830387   8.427   1.467   9.509  1.3335  0.1161  0.0032
   59BDD    C1930388   8.527   1.225  10.344 -1.0585  0.4171 -0.1779
   59BDD    C2030389   8.480   1.320  10.460 -0.5065  0.0860  0.0856
   59BDD    C2130390   8.347   1.387  10.469 -0.3902 -0.2609  0.5228
   59BDD    C2230391   8.284   1.479  10.362  0.9805  0.5643  0.4737
   59BDD    C2330392   8.363   1.600  10.345  0.4604 -0.3221  0.1366
   59BDD    C2430393   8.318   1.699  10.246 -0.1313 -1.2222 -0.7034
   59BDD    C2530394   8.533   1.292  10.604  0.2417 -0.8308  1.0533
   59BDD    C2630395   8.515   1.180  10.707 -0.4903  1.1729  1.2291
   60TPM     C130396   7.956   0.980  10.238 -0.2977 -0.1983 -0.1797
   60TPM     C230397   8.017   0.936  10.351 -0.1676 -0.0545 -0.1941
   60TPM     C330398   7.927   0.874  10.445 -0.0601  0.0605 -0.0136
   60TPM     C430399   7.797   0.870  10.403 -0.1081  0.0044  0.1380
   60TPM     S130400   7.779   0.946  10.240 -0.2945 -0.1996  0.0642
    1BDTP    C130401   2.620   3.072   3.598  0.1751  0.0577 -0.1353
    1BDTP    C230402   2.615   3.173   3.497 -0.0317  0.2410  0.0557
    1BDTP    C330403   2.500   3.199   3.424 -0.1293  0.2481  0.2104
    1BDTP    C430404   2.385   3.123   3.451 -0.0180  0.0661  0.1753
    1BDTP    C530405   2.390   3.022   3.552  0.1888 -0.1171 -0.0157
    1BDTP    C630406   2.505   2.996   3.626  0.2865 -0.1243 -0.1704
    1BDTP    C730407   2.255   3.132   3.388 -0.0865  0.0360  0.3123
    1BDTP    C830408   2.163   3.044   3.437  0.0570 -0.1585  0.2344
    1BDTP    S130409   2.229   2.938   3.569  0.2993 -0.3309 -0.0236
    1BDTP    C930410   2.751   3.063   3.661  0.2436  0.0879 -0.2723
    1BDTP   C1030411   2.842   3.151   3.612  0.1000  0.2823 -0.1944
    1BDTP    S230412   2.776   3.257   3.480 -0.1421  0.4548  0.0636
    2FTM     S130413   2.457   3.476   3.321 -0.9850 -0.2720  0.4000
    2FTM     C130414   2.409   3.484   3.148 -0.2006  0.3617  0.1945
    2FTM     C230415   2.415   3.359   3.093  0.1335  0.5749 -0.2633
    2FTM     C330416   2.456   3.254   3.180 -0.1922  0.2659 -0.4773
    2FTM     C430417   2.483   3.298   3.306 -0.7954 -0.1991 -0.1732
    2FTM     F130418   2.383   3.334   2.960  0.7540  1.0625 -0.5161
    2FTM     C530419   2.390   3.618   3.090 -0.3739 -0.0079 -1.0890
    2FTM     C630420   2.237   3.641   3.064 -2.5998 -1.0687 -0.9043
    2FTM     C730421   2.229   3.782   3.004 -0.8185 -0.0131 -0.2001
    2FTM     C830422   2.214   3.773   2.849 -0.7375  1.8926 -0.8624
    2FTM     C930423   2.184   3.902   2.754 -0.5587 -0.6124 -0.7572
    2FTM    C1030424   2.275   4.020   2.785 -0.9702 -0.2249  0.1236
    2FTM    C1130425   2.127   3.601   3.164 -0.4789  0.7021  0.1048
    2FTM    C1230426   2.062   3.659   3.299 -0.5353  0.4160  1.3145
    3FTM     S130427   2.636   2.773   3.730  0.2506 -0.3476  0.7097
    3FTM     C130428   2.554   2.684   3.863 -0.3383 -0.4940  0.2618
    3FTM     C230429   2.442   2.750   3.901 -0.3389 -0.3722  0.0506
    3FTM     C330430   2.413   2.871   3.831  0.1078 -0.1630  0.2202
    3FTM     C430431   2.507   2.899   3.735  0.4619 -0.1229  0.5727
    3FTM     F130432   2.359   2.705   4.003 -0.7438 -0.4433 -0.3089
    3FTM     C530433   2.597   2.543   3.903 -0.7148  0.7308  0.6257
    3FTM     C630434   2.530   2.423   3.828 -1.4535 -0.0525 -1.3618
    3FTM     C730435   2.584   2.290   3.869 -0.6865  0.4983  0.9203
    3FTM     C830436   2.725   2.253   3.826 -0.6807 -0.3662 -0.6833
    3FTM     C930437   2.791   2.120   3.880  0.0747 -0.1911  1.3466
    3FTM    C1030438   2.926   2.132   3.836 -0.3238  0.1317 -0.6528
    3FTM    C1130439   2.390   2.412   3.811  0.0259 -0.2369 -0.3705
    3FTM    C1230440   2.286   2.371   3.913 -0.1497 -0.5655 -0.3493
    4TPM     C130441   2.978   3.138   3.641  0.1202 -0.6222 -0.2343
    4TPM     C230442   3.075   3.234   3.637  0.3158 -0.8275 -0.6628
    4TPM     C330443   3.185   3.209   3.727  0.1600 -0.5466 -0.3901
    4TPM     C430444   3.172   3.094   3.799 -0.1541 -0.1270  0.2465
    4TPM     S130445   3.019   3.007   3.758 -0.2787 -0.0538  0.5532
    5BDD     C130446   3.275   3.088   4.175 -0.2050  0.3617 -0.1311
    5BDD     C230447   3.392   3.108   4.107 -0.2241  0.3132 -0.1782
    5BDD     C330448   3.376   3.106   3.962 -0.2689  0.2362 -0.1721
    5BDD     C430449   3.247   3.084   3.922 -0.2833  0.2269 -0.1202
    5BDD     S130450   3.137   3.065   4.063 -0.2419  0.3142 -0.0757
    5BDD     C530451   3.523   3.131   4.172 -0.2018  0.3361 -0.2307
    5BDD     C630452   3.489   3.125   3.869 -0.2958  0.1743 -0.2178
    5BDD     O130453   3.475   3.123   3.745 -0.3344  0.1078 -0.2126
    5BDD     O230454   3.537   3.133   4.296 -0.1632  0.4025 -0.2360
    5BDD     C730455   3.620   3.148   3.934 -0.2734  0.1972 -0.2702
    5BDD     C830456   3.636   3.150   4.079 -0.2286  0.2744 -0.2764
    5BDD     C930457   3.765   3.172   4.118 -0.2142  0.2835 -0.3282
    5BDD     S230458   3.875   3.191   3.978 -0.2556  0.1963 -0.3727
    5BDD    C1030459   3.737   3.168   3.866 -0.2925  0.1487 -0.3174
    5BDD    C1130460   3.786   3.151   3.729 -0.9570 -0.1657  0.1545
    5BDD    C1230461   3.932   3.156   3.661  1.3773 -1.9589  1.1022
    5BDD    C1330462   3.931   3.091   3.524 -0.9061 -0.9616  1.3237
    5BDD    C1430463   3.873   3.177   3.401  0.2636  0.6799  0.2764
    5BDD    C1530464   3.949   3.223   3.274  0.0182 -0.2257 -0.4534
    5BDD    C1630465   3.883   3.316   3.181  0.6774 -1.3813 -0.6770
    5BDD    C1730466   4.053   3.117   3.747  1.0136  0.6988 -0.5786
    5BDD    C1830467   4.096   2.970   3.777 -0.0811 -0.6659 -0.0460
    5BDD    C1930468   3.838   3.179   4.250  1.1432  0.3951 -0.0726
    5BDD    C2030469   3.927   3.054   4.289 -0.3201 -1.2091  1.1824
    5BDD    C2130470   4.024   3.107   4.402 -0.8452 -0.4151  1.2238
    5BDD    C2230471   4.159   3.030   4.401 -0.1588  0.6245 -0.1662
    5BDD    C2330472   4.287   3.078   4.337  1.1016 -0.0897 -0.3447
    5BDD    C2430473   4.383   2.962   4.323 -0.8617  0.4183 -0.2375
    5BDD    C2530474   3.863   2.916   4.304  0.6768 -0.3609 -0.2924
    5BDD    C2630475   3.775   2.842   4.411 -0.6076  1.1534  0.3646
    6TPM     C130476   3.237   3.058   4.317 -0.3421 -0.2415 -0.2661
    6TPM     C230477   3.130   3.113   4.382 -0.0403  0.1690 -0.1013
    6TPM     C330478   3.107   3.057   4.513  0.4715  0.8834  0.3061
    6TPM     C430479   3.197   2.961   4.548  0.5599  1.0176  0.4524
    6TPM     S130480   3.318   2.932   4.418 -0.0007  0.2462  0.0836
    7BDTP    C130481   3.388   2.591   5.021 -0.1758  0.3479 -0.4343
    7BDTP    C230482   3.399   2.722   5.077 -0.1515  0.2434 -0.1917
    7BDTP    C330483   3.357   2.836   5.010 -0.0857  0.3808 -0.0008
    7BDTP    C430484   3.302   2.821   4.882 -0.0418  0.6333 -0.0513
    7BDTP    C530485   3.290   2.690   4.826 -0.0663  0.7378 -0.2939
    7BDTP    C630486   3.332   2.576   4.893 -0.1320  0.6004 -0.4845
    7BDTP    C730487   3.251   2.924   4.793  0.0284  0.8124  0.1163
    7BDTP    C830488   3.203   2.878   4.675  0.0575  1.0433  0.0126
    7BDTP    S130489   3.215   2.697   4.660  0.0001  1.0665 -0.3116
    7BDTP    C930490   3.438   2.488   5.109 -0.2460  0.1689 -0.6018
    7BDTP   C1030491   3.486   2.534   5.227 -0.2751 -0.0620 -0.4983
    7BDTP    S230492   3.475   2.715   5.243 -0.2176 -0.0853 -0.1738
    8FTM     S130493   3.430   3.119   5.034  0.0301  0.3943 -0.0830
    8FTM     C130494   3.320   3.217   5.139  0.5663  0.5219  0.3677
    8FTM     C230495   3.225   3.137   5.194  0.4461  0.7029  0.4236
    8FTM     C330496   3.231   2.998   5.158 -0.0581  0.7520  0.1267
    8FTM     C430497   3.334   2.971   5.074 -0.3329  0.6041 -0.1662
    8FTM     F130498   3.126   3.185   5.279  0.7855  0.8346  0.7471
    8FTM     C530499   3.361   3.359   5.184  0.2760  1.0196 -0.1773
    8FTM     C630500   3.309   3.489   5.117  0.4820  0.5806  1.4566
    8FTM     C730501   3.170   3.504   5.064  0.2944 -0.7059  0.2209
    8FTM     C830502   3.063   3.548   5.164 -0.5712 -0.6569  0.2761
    8FTM     C930503   2.945   3.581   5.078 -0.0887 -0.5466  0.1080
    8FTM    C1030504   2.806   3.585   5.153  0.2856 -0.7443  1.5374
    8FTM    C1130505   3.403   3.542   5.008 -0.1788 -0.3717  0.0267
    8FTM    C1230506   3.560   3.554   5.042 -0.4223  1.0767  1.0653
    9FTM     S130507   3.485   2.323   4.823  0.2518  0.0500  0.5839
    9FTM     C130508   3.380   2.199   4.744 -0.0443  0.1455  0.8229
    9FTM     C230509   3.257   2.252   4.720  0.0253  0.3381  0.8806
    9FTM     C330510   3.237   2.388   4.761  0.3062  0.4213  0.7458
    9FTM     C430511   3.348   2.441   4.818  0.4568  0.2880  0.5795
    9FTM     F130512   3.155   2.179   4.660 -0.1613  0.4507  1.0588
    9FTM     C530513   3.430   2.057   4.736 -0.3895 -0.9826  0.2923
    9FTM     C630514   3.383   1.959   4.841 -0.7149  0.2511 -0.4716
    9FTM     C730515   3.458   1.828   4.800 -0.8314 -0.4977 -1.4224
    9FTM     C830516   3.382   1.709   4.800  0.1939 -0.9357  0.0900
    9FTM     C930517   3.325   1.667   4.661 -0.7507 -0.7825  1.2768
    9FTM    C1030518   3.264   1.525   4.675 -0.6151 -0.5644  0.5684
    9FTM    C1130519   3.430   1.995   4.984  0.8103 -0.3186 -0.4725
    9FTM    C1230520   3.575   2.027   5.017 -0.0642 -0.9587 -0.9993
   10TPM     C130521   3.579   2.468   5.319 -0.4086  0.5602  0.0381
   10TPM     C230522   3.636   2.346   5.297 -0.4386  0.6609 -0.6535
   10TPM     C330523   3.732   2.308   5.398 -0.3946  0.0989 -0.8997
   10TPM     C430524   3.749   2.401   5.496 -0.3311 -0.4303 -0.3960
   10TPM     S130525   3.643   2.545   5.469 -0.3220 -0.2585  0.4348
   11BDD     C130526   4.096   2.462   5.672 -0.3657  0.3110  0.1588
   11BDD     C230527   4.045   2.349   5.729 -0.2781  0.2497  0.1156
   11BDD     C330528   3.920   2.305   5.670 -0.0216 -0.0772 -0.1976
   11BDD     C430529   3.877   2.386   5.569  0.0829 -0.2603 -0.3892
   11BDD     S130530   3.991   2.522   5.540 -0.1329 -0.0362 -0.1900
   11BDD     C530531   4.110   2.276   5.841 -0.4271  0.4894  0.3611
   11BDD     C630532   3.847   2.185   5.717  0.1107 -0.1959 -0.2959
   11BDD     O130533   3.739   2.148   5.666  0.3319 -0.4778 -0.5660
   11BDD     O230534   4.218   2.314   5.891 -0.6485  0.7712  0.6312
   11BDD     C730535   3.912   2.113   5.828 -0.0383  0.0438 -0.0504
   11BDD     C830536   4.038   2.156   5.887 -0.2948  0.3706  0.2630
   11BDD     C930537   4.081   2.075   5.989 -0.3994  0.5538  0.4543
   11BDD     S230538   3.967   1.940   6.017 -0.1836  0.3297  0.2552
   11BDD    C1030539   3.862   2.000   5.885  0.0493 -0.0176 -0.0933
   11BDD    C1130540   3.739   1.906   5.839 -1.0213 -1.7060  0.2141
   11BDD    C1230541   3.628   1.871   5.939 -1.0156 -0.5783  0.2619
   11BDD    C1330542   3.517   1.774   5.874  0.1000 -1.4403  0.4485
   11BDD    C1430543   3.538   1.632   5.912  1.2226 -0.4552  0.6066
   11BDD    C1530544   3.599   1.556   5.796 -0.1294 -1.0927 -0.1579
   11BDD    C1630545   3.655   1.432   5.856 -0.1405  0.3780 -1.5026
   11BDD    C1730546   3.562   1.994   6.006  0.3722 -0.4216 -0.3472
   11BDD    C1830547   3.605   2.037   6.152  0.0706 -0.2002  0.5917
   11BDD    C1930548   4.170   2.082   6.104 -0.6778  0.0031 -1.1896
   11BDD    C2030549   4.103   2.140   6.232  1.3535 -0.5187 -0.5822
   11BDD    C2130550   4.041   2.049   6.348  1.1792 -0.1016 -0.1280
   11BDD    C2230551   4.099   1.924   6.387  0.0691 -0.2080  0.4027
   11BDD    C2330552   4.068   1.794   6.305  0.1723 -1.1825 -0.5346
   11BDD    C2430553   4.124   1.677   6.347 -0.1890 -0.4685 -0.6800
   11BDD    C2530554   4.038   2.279   6.200  0.0191 -0.2813 -0.0769
   11BDD    C2630555   3.897   2.290   6.144  1.2258  0.6540  0.3963
   12TPM     C130556   4.213   2.560   5.707  0.0219  0.0199  0.2594
   12TPM     C230557   4.262   2.655   5.623  0.7752 -0.5282  0.0578
   12TPM     C330558   4.362   2.739   5.682  1.2341 -1.0060 -0.0310
   12TPM     C430559   4.390   2.707   5.812  0.8305 -0.8223  0.1031
   12TPM     S130560   4.291   2.569   5.870 -0.1679 -0.0254  0.3538
   13BDTP    C130561   4.856   2.922   6.189  0.4363 -0.2134 -0.2384
   13BDTP    C230562   4.813   2.804   6.256  0.3579 -0.1742 -0.2192
   13BDTP    C330563   4.708   2.726   6.210  0.2403 -0.0563 -0.1509
   13BDTP    C430564   4.642   2.766   6.093  0.1980  0.0271 -0.0987
   13BDTP    C530565   4.685   2.884   6.026  0.2767 -0.0122 -0.1178
   13BDTP    C630566   4.790   2.962   6.072  0.3942 -0.1301 -0.1862
   13BDTP    C730567   4.530   2.702   6.027  0.0800  0.1538 -0.0243
   13BDTP    C830568   4.488   2.765   5.915  0.0664  0.2107  0.0128
   13BDTP    S130569   4.583   2.915   5.877  0.2011  0.1121 -0.0410
   13BDTP    C930570   4.968   2.987   6.255  0.5544 -0.3401 -0.3126
   13BDTP   C1030571   5.010   2.923   6.367  0.5680 -0.3971 -0.3498
   13BDTP    S230572   4.915   2.773   6.405  0.4334 -0.2984 -0.2960
   14FTM     S130573   4.797   2.469   6.312 -0.0637  0.7543 -0.1085
   14FTM     C130574   4.674   2.373   6.402  0.1436 -0.0421 -0.6552
   14FTM     C230575   4.555   2.440   6.405 -0.0439 -0.3779 -0.3881
   14FTM     C330576   4.553   2.567   6.339 -0.3526 -0.0445  0.2427
   14FTM     C430577   4.674   2.598   6.283 -0.4034  0.5666  0.4660
   14FTM     F130578   4.442   2.390   6.467  0.0529 -1.0070 -0.6992
   14FTM     C530579   4.682   2.229   6.442 -0.4923  0.5235 -0.3145
   14FTM     C630580   4.765   2.114   6.360 -0.1878  0.3696 -1.0332
   14FTM     C730581   4.822   1.987   6.430 -0.3245 -0.7075  0.5387
   14FTM     C830582   4.739   1.906   6.529 -0.2210 -0.5054 -0.3757
   14FTM     C930583   4.765   1.760   6.519 -0.5716 -0.8243 -0.0383
   14FTM    C1030584   4.642   1.661   6.520 -1.6337  0.3517 -0.3077
   14FTM    C1130585   4.675   2.070   6.253  0.6110  0.6526  0.6087
   14FTM    C1230586   4.533   2.005   6.273 -1.2717 -0.3811 -0.9479
   15FTM     S130587   4.665   3.191   5.981 -0.1089  0.0104 -0.1456
   15FTM     C130588   4.757   3.310   5.881  0.0561  0.2664  0.3025
   15FTM     C230589   4.886   3.269   5.867  0.1564  0.4593  0.6634
   15FTM     C330590   4.920   3.146   5.933  0.1122  0.4208  0.6149
   15FTM     C430591   4.814   3.091   5.998 -0.0268  0.1909  0.2032
   15FTM     F130592   4.980   3.340   5.795  0.2944  0.6822  1.0592
   15FTM     C530593   4.693   3.430   5.818  0.3445  0.8292 -1.3032
   15FTM     C630594   4.649   3.422   5.668 -0.4075  0.8865 -0.5220
   15FTM     C730595   4.505   3.392   5.627 -0.2122  0.1972  0.2511
   15FTM     C830596   4.398   3.485   5.676 -0.2585  0.2393  0.0221
   15FTM     C930597   4.266   3.442   5.595 -0.4712 -0.0149 -0.9872
   15FTM    C1030598   4.144   3.421   5.697 -0.6506  1.1752  0.3227
   15FTM    C1130599   4.749   3.458   5.557  0.9153  1.1320 -0.5407
   15FTM    C1230600   4.714   3.403   5.410  0.7173  0.3456 -1.0574
   16TPM     C130601   5.105   2.979   6.456  0.2214 -0.3634  0.9091
   16TPM     C230602   5.189   2.911   6.538  0.7385 -0.2088  0.5194
   16TPM     C330603   5.282   2.994   6.609  0.8925 -0.0322  0.1143
   16TPM     C430604   5.269   3.127   6.581  0.4927 -0.0521  0.1954
   16TPM     S130605   5.137   3.157   6.462 -0.1138 -0.2974  0.7939
   17BDD     C130606   5.422   3.364   6.859 -0.0822  0.1776 -0.1154
   17BDD     C230607   5.507   3.373   6.752 -0.1475  0.1051 -0.1737
   17BDD     C330608   5.461   3.300   6.635 -0.1692 -0.0579 -0.0632
   17BDD     C430609   5.341   3.236   6.655 -0.1202 -0.1073  0.0776
   17BDD     S130610   5.278   3.264   6.821 -0.0435  0.0467  0.0818
   17BDD     C530611   5.633   3.449   6.753 -0.1923  0.1830 -0.3331
   17BDD     C630612   5.537   3.295   6.509 -0.2377 -0.1587 -0.1013
   17BDD     O130613   5.497   3.232   6.408 -0.2564 -0.2992 -0.0060
   17BDD     O230614   5.673   3.513   6.854 -0.1736  0.3234 -0.4284
   17BDD     C730615   5.664   3.372   6.510 -0.2826 -0.0807 -0.2606
   17BDD     C830616   5.710   3.445   6.627 -0.2609  0.0822 -0.3712
   17BDD     C930617   5.829   3.509   6.607 -0.3099  0.1315 -0.5121
   17BDD     S230618   5.892   3.481   6.441 -0.3865 -0.0225 -0.5161
   17BDD    C1030619   5.749   3.380   6.403 -0.3479 -0.1532 -0.3188
   17BDD    C1130620   5.757   3.322   6.274 -0.2399  0.5063 -0.1888
   17BDD    C1230621   5.773   3.417   6.147  0.7985  0.3809 -1.6171
   17BDD    C1330622   5.655   3.505   6.127 -0.6933 -0.8235 -0.3196
   17BDD    C1430623   5.666   3.616   6.024  1.0736  0.3051  0.4458
   17BDD    C1530624   5.769   3.730   6.008 -0.2582 -0.4565 -0.7451
   17BDD    C1630625   5.919   3.727   6.051  0.8629 -0.3590 -0.1246
   17BDD    C1730626   5.795   3.338   6.024  0.9586  0.2727  0.4983
   17BDD    C1830627   5.930   3.270   6.024 -1.6257 -0.8881  0.7546
   17BDD    C1930628   5.920   3.558   6.714 -0.5934 -0.3358 -0.2003
   17BDD    C2030629   6.069   3.568   6.693 -0.2944  0.7693  0.0142
   17BDD    C2130630   6.161   3.630   6.575  0.2043 -0.4655  0.5193
   17BDD    C2230631   6.168   3.583   6.432 -0.6435 -0.1308  0.5279
   17BDD    C2330632   6.296   3.524   6.405 -0.8586 -0.7508  0.8014
   17BDD    C2430633   6.297   3.472   6.257 -1.6648 -0.7156 -0.3905
   17BDD    C2530634   6.146   3.619   6.820 -0.0610 -0.0378  0.7246
   17BDD    C2630635   6.281   3.560   6.836  0.3758 -0.1306  1.0208
   18TPM     C130636   5.417   3.429   6.983 -0.0525  0.2643 -0.3658
   18TPM     C230637   5.491   3.346   7.064  0.6844  1.2555  0.0221
   18TPM     C330638   5.433   3.326   7.194  1.0074  1.5485  0.2160
   18TPM     C430639   5.315   3.393   7.213  0.5170  0.7809 -0.0243
   18TPM     S130640   5.268   3.487   7.066 -0.3982 -0.3808 -0.5176
   19BDTP    C130641   4.971   3.330   7.733 -0.3637  0.0764 -0.0226
   19BDTP    C230642   4.883   3.407   7.650 -0.5465 -0.0034  0.0949
   19BDTP    C330643   4.920   3.450   7.523 -0.6851  0.1984  0.1240
   19BDTP    C430644   5.048   3.417   7.476 -0.6411  0.4929  0.0333
   19BDTP    C530645   5.135   3.341   7.559 -0.4580  0.5728 -0.0843
   19BDTP    C630646   5.099   3.297   7.685 -0.3198  0.3709 -0.1135
   19BDTP    C730647   5.108   3.451   7.348 -0.7610  0.7405  0.0422
   19BDTP    C830648   5.234   3.405   7.331 -0.6782  0.9990 -0.0616
   19BDTP    S130649   5.295   3.311   7.475 -0.4363  0.9652 -0.1854
   19BDTP    C930650   4.911   3.296   7.860 -0.2438 -0.1711 -0.0317
   19BDTP   C1030651   4.785   3.342   7.877 -0.3268 -0.4296  0.0721
   19BDTP    S230652   4.724   3.436   7.733 -0.5685 -0.3960  0.1960
   20FTM     S130653   4.797   3.702   7.437 -0.1044  0.5653 -0.2585
   20FTM     C130654   4.646   3.689   7.340 -0.1863  0.0193 -0.0611
   20FTM     C230655   4.621   3.558   7.311 -0.0631 -0.1226  0.4575
   20FTM     C330656   4.715   3.463   7.362  0.0987  0.1773  0.7267
   20FTM     C430657   4.816   3.523   7.431  0.0993  0.5614  0.4034
   20FTM     F130658   4.511   3.517   7.238 -0.0893 -0.5325  0.7197
   20FTM     C530659   4.561   3.811   7.304  0.6758 -0.2920  0.5440
   20FTM     C630660   4.623   3.941   7.293  0.0865 -0.0705  0.3708
   20FTM     C730661   4.734   3.964   7.174  0.8188 -0.0961 -0.9279
   20FTM     C830662   4.679   4.063   7.078  0.0788 -0.6904 -0.4752
   20FTM     C930663   4.769   4.119   6.975 -0.8514 -0.3965  1.3305
   20FTM    C1030664   4.678   4.234   6.889 -1.2833  0.5194 -0.4389
   20FTM    C1130665   4.650   4.014   7.433  1.0456 -0.8165  1.1318
   20FTM    C1230666   4.706   4.163   7.437 -0.4285  0.1025  0.5573
   21FTM     S130667   5.338   3.113   7.702 -0.1264  0.2784  0.2718
   21FTM     C130668   5.352   3.027   7.859 -0.2763  0.4268  0.3672
   21FTM     C230669   5.251   3.066   7.942 -0.2991  0.5773  0.2697
   21FTM     C330670   5.160   3.163   7.890 -0.2040  0.5861  0.1185
   21FTM     C430671   5.192   3.200   7.763 -0.1047  0.4375  0.0997
   21FTM     F130672   5.236   3.016   8.071 -0.4078  0.7159  0.3116
   21FTM     C530673   5.490   2.968   7.893 -0.7395  1.0990 -0.4111
   21FTM     C630674   5.595   2.920   7.793  0.2051 -1.5533  1.2919
   21FTM     C730675   5.673   3.036   7.717 -0.7893 -0.7488 -0.3378
   21FTM     C830676   5.761   3.159   7.767 -0.1902  0.3355 -0.1899
   21FTM     C930677   5.681   3.275   7.807  0.6406 -0.1557  1.7281
   21FTM    C1030678   5.643   3.354   7.676 -0.0059 -0.5021  0.4410
   21FTM    C1130679   5.582   2.780   7.732 -1.1519  0.0840 -0.4854
   21FTM    C1230680   5.505   2.787   7.600  0.1802  0.8675 -0.1260
   22TPM     C130681   4.693   3.320   7.987 -0.3530  0.2589  0.1565
   22TPM     C230682   4.623   3.400   8.073 -1.2206  0.0883 -0.3664
   22TPM     C330683   4.571   3.331   8.188 -1.1313  0.1304 -0.3006
   22TPM     C430684   4.601   3.198   8.190 -0.1959  0.3332  0.2730
   22TPM     S130685   4.698   3.150   8.046  0.6517  0.4879  0.7780
   23BDD     C130686   4.712   2.974   8.483  0.0139 -0.1228 -0.0131
   23BDD     C230687   4.580   3.000   8.506  0.0122 -0.1943  0.0598
   23BDD     C330688   4.521   3.092   8.410 -0.0569 -0.1228  0.1698
   23BDD     C430689   4.610   3.135   8.315 -0.1069  0.0020  0.1789
   23BDD     S130690   4.773   3.063   8.340 -0.0710  0.0387  0.0508
   23BDD     C530691   4.502   2.941   8.617  0.0743 -0.3308  0.0315
   23BDD     C630692   4.380   3.134   8.416 -0.0706 -0.1810  0.2618
   23BDD     O130693   4.330   3.214   8.333 -0.1302 -0.1194  0.3569
   23BDD     O230694   4.552   2.862   8.700  0.1339 -0.3924 -0.0634
   23BDD     C730695   4.302   3.076   8.527 -0.0087 -0.3175  0.2334
   23BDD     C830696   4.360   2.984   8.623  0.0604 -0.3889  0.1235
   23BDD     C930697   4.271   2.941   8.717  0.1105 -0.5138  0.1144
   23BDD     S230698   4.109   3.013   8.693  0.0746 -0.5505  0.2426
   23BDD    C1030699   4.170   3.102   8.550 -0.0103 -0.3890  0.3066
   23BDD    C1130700   4.051   3.167   8.472 -0.2814 -0.2168 -0.5142
   23BDD    C1230701   4.074   3.310   8.436  0.9328 -2.1225  0.1900
   23BDD    C1330702   4.009   3.409   8.540  0.2725  0.6150  0.4719
   23BDD    C1430703   4.099   3.422   8.653  0.2981 -0.1397 -0.4038
   23BDD    C1530704   4.041   3.548   8.712  0.7692  0.4063  0.1781
   23BDD    C1630705   3.907   3.568   8.799 -0.9072 -0.1934 -0.6944
   23BDD    C1730706   3.982   3.349   8.321  1.7420  0.0272  0.5707
   23BDD    C1830707   3.975   3.299   8.176 -1.0301  0.8365 -0.7280
   23BDD    C1930708   4.284   2.835   8.837 -0.3020 -0.0760  1.6559
   23BDD    C2030709   4.231   2.866   8.976 -0.8754 -0.1292 -0.2105
   23BDD    C2130710   4.284   3.003   9.032 -0.1693  0.5539 -0.0444
   23BDD    C2230711   4.427   3.025   9.073 -0.4307 -1.4901  1.5982
   23BDD    C2330712   4.459   3.147   9.157 -0.7621 -0.1318 -1.9611
   23BDD    C2430713   4.423   3.117   9.306 -0.1389 -0.5622  1.4492
   23BDD    C2530714   4.210   2.753   9.083 -0.9066  0.2216  0.0846
   23BDD    C2630715   4.192   2.616   9.037 -1.1712 -0.7303  0.5269
   24TPM     C130716   4.818   2.895   8.541 -0.5877  0.3619  0.3472
   24TPM     C230717   4.818   2.762   8.570 -0.8879  0.3999  0.5298
   24TPM     C330718   4.946   2.712   8.613 -1.0428  0.2062  0.7761
   24TPM     C430719   5.044   2.808   8.616 -0.8606  0.0203  0.7819
   24TPM     S130720   4.981   2.969   8.565 -0.4763  0.0762  0.4739
   25BDTP    C130721   5.651   2.725   8.781 -0.1246 -0.2791  0.1476
   25BDTP    C230722   5.648   2.858   8.730 -0.0682 -0.3385 -0.0112
   25BDTP    C330723   5.531   2.917   8.682 -0.0187 -0.3886 -0.1979
   25BDTP    C430724   5.413   2.842   8.686 -0.0254 -0.3798 -0.2291
   25BDTP    C530725   5.416   2.709   8.737 -0.0819 -0.3205 -0.0706
   25BDTP    C630726   5.533   2.650   8.785 -0.1313 -0.2704  0.1162
   25BDTP    C730727   5.280   2.882   8.643  0.0196 -0.4247 -0.4092
   25BDTP    C830728   5.185   2.786   8.659 -0.0006 -0.4022 -0.3934
   25BDTP    S130729   5.250   2.633   8.731 -0.0788 -0.3210 -0.1485
   25BDTP    C930730   5.784   2.685   8.824 -0.1694 -0.2343  0.3276
   25BDTP   C1030731   5.879   2.781   8.808 -0.1495 -0.2568  0.3119
   25BDTP    S230732   5.813   2.934   8.736 -0.0711 -0.3380  0.0669
   26FTM     S130733   5.563   3.102   8.469 -0.1092 -0.3079 -0.3432
   26FTM     C130734   5.536   3.275   8.512  0.7646 -0.2155 -0.1293
   26FTM     C230735   5.520   3.288   8.646  0.5955 -0.3326 -0.1388
   26FTM     C330736   5.527   3.167   8.723 -0.2044 -0.4975 -0.3085
   26FTM     C430737   5.550   3.058   8.644 -0.6629 -0.5069 -0.4333
   26FTM     F130738   5.497   3.410   8.708  1.1550 -0.2975  0.0057
   26FTM     C530739   5.566   3.387   8.414 -0.1803  0.0634 -0.4494
   26FTM     C630740   5.437   3.437   8.340 -1.2894 -0.1515 -0.1388
   26FTM     C730741   5.472   3.498   8.213 -0.9253 -1.1758 -0.9548
   26FTM     C830742   5.558   3.636   8.212 -0.7737  0.3176  0.1276
   26FTM     C930743   5.578   3.690   8.072  0.0661  0.6987  0.1694
   26FTM    C1030744   5.531   3.839   8.074  0.7638  0.1594 -1.7276
   26FTM    C1130745   5.308   3.353   8.320  1.0370 -1.1734 -0.2631
   26FTM    C1230746   5.184   3.405   8.233 -0.9089  0.5060  0.7951
   27FTM     S130747   5.410   2.478   8.992 -0.8074  0.1999 -0.5886
   27FTM     C130748   5.497   2.321   9.002 -0.6713  0.3043 -0.0822
   27FTM     C230749   5.603   2.321   8.917 -0.0929  0.4764  0.6218
   27FTM     C330750   5.623   2.440   8.841  0.2710  0.5361  0.8061
   27FTM     C430751   5.529   2.535   8.868 -0.0389  0.4055  0.2241
   27FTM     F130752   5.689   2.212   8.904  0.1415  0.5901  1.1408
   27FTM     C530753   5.432   2.219   9.091 -0.1115 -0.5239 -0.5391
   27FTM     C630754   5.304   2.131   9.059 -0.8589 -0.4974 -0.0846
   27FTM     C730755   5.276   2.101   8.909  0.8311 -0.7240 -0.5114
   27FTM     C830756   5.266   2.209   8.796 -0.6954 -0.3134  0.2588
   27FTM     C930757   5.161   2.311   8.799 -0.7445 -0.0774  0.4705
   27FTM    C1030758   5.009   2.272   8.796 -0.7261  0.3489 -0.5784
   27FTM    C1130759   5.177   2.177   9.138 -0.1776 -0.5868 -0.1246
   27FTM    C1230760   5.070   2.065   9.154  1.4041 -1.4622 -0.4881
   28TPM     C130761   6.022   2.775   8.808  0.1275 -0.3318 -0.4741
   28TPM     C230762   6.113   2.782   8.707  0.3829 -0.6317 -0.2689
   28TPM     C330763   6.250   2.794   8.753  0.2642 -0.4410  0.0434
   28TPM     C430764   6.262   2.795   8.888 -0.0819  0.0043  0.0762
   28TPM     S130765   6.101   2.781   8.970 -0.2861  0.2190 -0.2873
   29BDD     C130766   6.626   2.829   9.039  0.5247 -0.0786 -0.0424
   29BDD     C230767   6.578   2.709   9.084  0.5234 -0.0839 -0.0575
   29BDD     C330768   6.447   2.675   9.030  0.3668  0.0889  0.2081
   29BDD     C430769   6.397   2.770   8.945  0.2509  0.2233  0.4222
   29BDD     S130770   6.511   2.908   8.926  0.3299  0.1431  0.3059
   29BDD     C530771   6.650   2.622   9.179  0.6660 -0.2480 -0.3171
   29BDD     C630772   6.377   2.551   9.066  0.3377  0.1143  0.2401
   29BDD     O130773   6.264   2.521   9.019  0.2028  0.2632  0.4692
   29BDD     O230774   6.763   2.651   9.225  0.8010 -0.3970 -0.5462
   29BDD     C730775   6.449   2.463   9.160  0.4805 -0.0498 -0.0198
   29BDD     C830776   6.580   2.497   9.214  0.6372 -0.2226 -0.2854
   29BDD     C930777   6.629   2.402   9.300  0.7529 -0.3572 -0.4997
   29BDD     S230778   6.516   2.265   9.318  0.6741 -0.2768 -0.3832
   29BDD    C1030779   6.401   2.343   9.205  0.4792 -0.0551 -0.0353
   29BDD    C1130780   6.276   2.254   9.166  0.5792 -0.1833  1.1403
   29BDD    C1230781   6.285   2.207   9.020 -0.1054  2.2807 -0.9319
   29BDD    C1330782   6.399   2.092   8.984  0.5536 -0.4654 -0.9661
   29BDD    C1430783   6.399   1.952   9.035  1.1037  0.2739  2.1313
   29BDD    C1530784   6.546   1.933   8.974 -0.6202  0.9352  0.2229
   29BDD    C1630785   6.602   1.788   8.991  0.0438 -0.2499 -0.3886
   29BDD    C1730786   6.159   2.153   8.958 -0.3587 -0.5901 -0.3717
   29BDD    C1830787   6.028   2.226   8.943  0.7593  1.8202 -0.5521
   29BDD    C1930788   6.764   2.394   9.360 -0.2074 -0.0946 -0.2702
   29BDD    C2030789   6.863   2.280   9.332  0.6409  0.3693  1.0484
   29BDD    C2130790   6.901   2.226   9.462  0.6906 -0.0993 -1.7621
   29BDD    C2230791   6.789   2.152   9.552 -0.1092 -0.6369  0.9377
   29BDD    C2330792   6.876   2.090   9.665  1.4947 -0.5664  1.5126
   29BDD    C2430793   6.795   2.016   9.770 -0.1225  0.4679 -1.3950
   29BDD    C2530794   6.976   2.307   9.234 -0.5718  0.6002 -1.5554
   29BDD    C2630795   6.964   2.369   9.104 -0.2600  1.2147  0.4504
   30TPM     C130796   6.744   2.899   9.074 -0.4253  0.1371 -0.1079
   30TPM     C230797   6.763   2.951   9.198 -0.5426  0.2654 -0.1431
   30TPM     C330798   6.874   3.043   9.207 -0.4051  0.0933 -0.0808
   30TPM     C430799   6.940   3.060   9.089 -0.1831 -0.1661  0.0022
   30TPM     S130800   6.866   2.963   8.957 -0.1300 -0.2136  0.0073
   31BDTP    C130801   7.345   3.480   8.872 -0.1500 -0.0985  0.0949
   31BDTP    C230802   7.428   3.410   8.965 -0.1475 -0.1184  0.0775
   31BDTP    C330803   7.383   3.303   9.039 -0.1167 -0.1984 -0.0188
   31BDTP    C430804   7.250   3.262   9.023 -0.0873 -0.2618 -0.1018
   31BDTP    C530805   7.166   3.332   8.931 -0.0898 -0.2420 -0.0844
   31BDTP    C630806   7.212   3.440   8.856 -0.1203 -0.1619  0.0119
   31BDTP    C730807   7.181   3.153   9.089 -0.0528 -0.3492 -0.2086
   31BDTP    C830808   7.051   3.138   9.052 -0.0296 -0.3952 -0.2708
   31BDTP    S130809   6.999   3.260   8.928 -0.0480 -0.3344 -0.2041
   31BDTP    C930810   7.414   3.589   8.806 -0.1843 -0.0111  0.2012
   31BDTP   C1030811   7.543   3.604   8.843 -0.2078  0.0349  0.2637
   31BDTP    S230812   7.596   3.482   8.968 -0.1890 -0.0259  0.1969
   32FTM     S130813   7.617   3.127   9.036  0.1855  0.4524  0.6520
   32FTM     C130814   7.670   3.054   9.192 -0.0823  1.1793  1.0906
   32FTM     C230815   7.584   3.092   9.291 -0.3407  1.5255  0.7451
   32FTM     C330816   7.476   3.177   9.253 -0.3463  1.2531  0.1328
   32FTM     C430817   7.478   3.206   9.120 -0.0833  0.6796  0.0056
   32FTM     F130818   7.600   3.051   9.423 -0.5877  2.1095  0.9623
   32FTM     C530819   7.801   2.981   9.212  0.9191  1.3553  0.1420
   32FTM     C630820   7.858   2.906   9.085 -0.1368 -0.6476  0.1760
   32FTM     C730821   8.008   2.896   9.116  0.3339 -0.7972 -0.5121
   32FTM     C830822   8.092   2.765   9.104 -0.1526 -0.0418 -0.0120
   32FTM     C930823   8.245   2.787   9.118  0.1677 -0.0453 -0.3121
   32FTM    C1030824   8.272   2.650   9.165 -0.1884 -1.4541  0.2111
   32FTM    C1130825   7.777   2.832   8.977  1.5685 -1.9893  0.1496
   32FTM    C1230826   7.628   2.765   9.013  0.7494  0.2802  1.4234
   33FTM     S130827   7.111   3.456   8.591  0.2086 -0.4723  0.1967
   33FTM     C130828   7.004   3.596   8.554 -0.8178 -1.4799 -0.8154
   33FTM     C230829   6.994   3.677   8.663 -1.1995 -0.6352 -1.4517
   33FTM     C330830   7.068   3.636   8.779 -0.7284  0.8119 -1.1973
   33FTM     C430831   7.136   3.520   8.758  0.0389  1.0844 -0.3380
   33FTM     F130832   6.918   3.793   8.664 -1.9979 -1.1224 -2.3026
   33FTM     C530833   6.937   3.622   8.426  0.8540  0.3603 -0.2880
   33FTM     C630834   6.974   3.707   8.307 -0.3640 -0.1871 -1.1747
   33FTM     C730835   7.070   3.647   8.193 -0.5684 -0.7489 -1.4534
   33FTM     C830836   7.037   3.515   8.129 -0.0866 -1.1474  0.6029
   33FTM     C930837   7.111   3.460   8.002  0.4456 -0.2236 -0.0014
   33FTM    C1030838   7.060   3.534   7.885 -0.4678  0.7886 -0.9170
   33FTM    C1130839   6.981   3.866   8.299  0.9488  0.4671  0.1251
   33FTM    C1230840   6.885   3.956   8.386 -0.4123 -1.4567  1.3267
   34TPM     C130841   7.630   3.642   8.732  0.6476 -0.0471 -0.2446
   34TPM     C230842   7.765   3.622   8.732  0.7287  0.4748 -0.2937
   34TPM     C330843   7.833   3.688   8.623  0.4181  0.6329 -0.3963
   34TPM     C430844   7.751   3.758   8.541  0.1002  0.2316 -0.4246
   34TPM     S130845   7.578   3.746   8.594  0.1692 -0.3820 -0.3244
   35BDD     C130846   7.803   3.732   8.151 -0.1396  0.4121 -0.0596
   35BDD     C230847   7.878   3.840   8.187 -0.0368  0.3508 -0.0899
   35BDD     C330848   7.873   3.869   8.329  0.1335  0.2875 -0.0699
   35BDD     C430849   7.794   3.783   8.399  0.1582  0.3015 -0.0246
   35BDD     S130850   7.720   3.659   8.292 -0.0300  0.3948 -0.0038
   35BDD     C530851   7.958   3.921   8.093 -0.0914  0.3482 -0.1388
   35BDD     C630852   7.947   3.981   8.391  0.2656  0.2155 -0.0968
   35BDD     O130853   7.942   4.006   8.513  0.4125  0.1609 -0.0796
   35BDD     O230854   7.963   3.896   7.970 -0.2383  0.4027 -0.1559
   35BDD     C730855   8.027   4.062   8.296  0.2110  0.2129 -0.1452
   35BDD     C830856   8.032   4.033   8.154  0.0408  0.2761 -0.1652
   35BDD     C930857   8.112   4.119   8.084  0.0162  0.2621 -0.2105
   35BDD     S230858   8.186   4.243   8.191  0.2043  0.1688 -0.2312
   35BDD    C1030859   8.103   4.170   8.332  0.3138  0.1515 -0.1755
   35BDD    C1130860   8.096   4.247   8.455  0.4408  0.7777 -0.9025
   35BDD    C1230861   8.015   4.390   8.450  0.8112  0.9544 -0.3004
   35BDD    C1330862   7.855   4.374   8.423 -0.9908 -1.7853 -0.8605
   35BDD    C1430863   7.770   4.503   8.447 -0.4526  1.3857  1.3089
   35BDD    C1530864   7.626   4.495   8.382 -0.4811  0.9851  0.3235
   35BDD    C1630865   7.503   4.528   8.459  0.1320 -0.0437 -0.1355
   35BDD    C1730866   8.096   4.517   8.412 -0.3906  0.3864  0.5304
   35BDD    C1830867   8.111   4.586   8.274  0.3350  1.1802  0.7671
   35BDD    C1930868   8.161   4.113   7.942  0.8301  0.2946  0.1798
   35BDD    C2030869   8.322   4.110   7.933 -1.3360 -0.1513 -0.2534
   35BDD    C2130870   8.411   4.009   8.007  0.7479  1.0186 -0.2473
   35BDD    C2230871   8.375   3.864   8.002  0.3861  0.0670 -0.0445
   35BDD    C2330872   8.465   3.745   8.045  0.4887 -0.7213 -1.2527
   35BDD    C2430873   8.599   3.723   7.962 -0.7723  0.3766 -0.4934
   35BDD    C2530874   8.397   4.252   7.905  0.8807  0.6729 -1.1471
   35BDD    C2630875   8.487   4.233   7.778  1.2327  0.9492  0.3458
   36TPM     C130876   7.762   3.661   8.031  0.1263 -0.1367 -0.7671
   36TPM     C230877   7.753   3.712   7.905  1.0784 -1.1019 -1.2668
   36TPM     C330878   7.686   3.625   7.812  1.4350 -1.6581 -1.0138
   36TPM     C430879   7.645   3.508   7.867  0.7548 -1.1171 -0.3211
   36TPM     S130880   7.687   3.498   8.042 -0.3979  0.1466  0.0683
   37BDTP    C130881   7.188   3.169   7.585 -0.4442  0.0830  0.3358
   37BDTP    C230882   7.203   3.108   7.712 -0.2100  0.0184  0.2787
   37BDTP    C330883   7.295   3.151   7.806 -0.0948  0.0234  0.1634
   37BDTP    C430884   7.377   3.260   7.773 -0.2156  0.0955  0.1013
   37BDTP    C530885   7.362   3.322   7.645 -0.4497  0.1601  0.1582
   37BDTP    C630886   7.270   3.278   7.551 -0.5650  0.1551  0.2734
   37BDTP    C730887   7.480   3.323   7.854 -0.1326  0.1147 -0.0189
   37BDTP    C830888   7.542   3.427   7.793 -0.2910  0.1897 -0.0542
   37BDTP    S130889   7.480   3.461   7.626 -0.5677  0.2465  0.0596
   37BDTP    C930890   7.085   3.106   7.504 -0.5273  0.0637  0.4557
   37BDTP   C1030891   7.023   3.002   7.564 -0.3688 -0.0112  0.4911
   37BDTP    S230892   7.086   2.969   7.731 -0.0922 -0.0680  0.3774
   38FTM     S130893   7.303   3.193   8.086 -0.5566  0.0138 -0.1162
   38FTM     C130894   7.297   3.045   8.188  0.6686 -0.1041 -0.1834
   38FTM     C230895   7.301   2.934   8.110  1.2504 -0.0384 -0.2546
   38FTM     C330896   7.309   2.956   7.969  0.7898  0.1042 -0.2611
   38FTM     C430897   7.311   3.089   7.938 -0.1760  0.1490 -0.1927
   38FTM     F130898   7.298   2.805   8.161  2.2343 -0.1034 -0.3183
   38FTM     C530899   7.283   3.074   8.340  1.4312  0.2487  0.5951
   38FTM     C630900   7.396   3.096   8.427 -0.5079  0.3924 -0.0250
   38FTM     C730901   7.518   3.181   8.375 -0.4203  1.3857 -0.3843
   38FTM     C830902   7.636   3.126   8.286 -0.5618 -0.8830  0.3619
   38FTM     C930903   7.758   3.039   8.332 -0.0638 -1.2420  1.1649
   38FTM    C1030904   7.728   2.898   8.373 -0.4314 -0.0772  0.8402
   38FTM    C1130905   7.363   3.127   8.576  0.2666 -0.1162 -0.9067
   38FTM    C1230906   7.233   3.062   8.641 -0.6053  0.4570 -0.4475
   39FTM     S130907   7.122   3.458   7.364  0.1704  0.2530  0.4733
   39FTM     C130908   7.204   3.472   7.205  0.0803  0.3400  0.4346
   39FTM     C230909   7.319   3.399   7.205  0.0601  0.3070  0.3166
   39FTM     C330910   7.350   3.330   7.327  0.1121  0.2142  0.2508
   39FTM     C430911   7.255   3.350   7.422  0.1742  0.1749  0.3207
   39FTM     F130912   7.404   3.391   7.095 -0.0068  0.3587  0.2613
   39FTM     C530913   7.143   3.591   7.142 -0.7364  0.1722 -0.9472
   39FTM     C630914   7.201   3.735   7.151 -1.7854 -0.4338 -0.9880
   39FTM     C730915   7.159   3.850   7.263  0.2134 -0.1489  0.8771
   39FTM     C830916   7.004   3.861   7.264 -0.2256 -0.4435  0.1847
   39FTM     C930917   6.969   3.983   7.350 -0.0834 -1.1295 -1.2923
   39FTM    C1030918   6.841   4.003   7.406  0.2615 -0.5485 -1.1820
   39FTM    C1130919   7.362   3.764   7.140  1.4268 -0.3853  0.9352
   39FTM    C1230920   7.428   3.734   7.008 -0.3689  0.7201  0.0018
   40TPM     C130921   6.908   2.931   7.510  0.2528  0.4152 -0.1411
   40TPM     C230922   6.790   2.986   7.469  0.2128  0.4268 -0.0113
   40TPM     C330923   6.686   2.889   7.446  0.1212  0.4532  0.2846
   40TPM     C430924   6.724   2.760   7.469  0.0915  0.4615  0.3803
   40TPM     S130925   6.896   2.751   7.523  0.1774  0.4365  0.1021
   41BDD     C130926   6.373   2.570   7.448  0.1619  0.1567 -0.5473
   41BDD     C230927   6.469   2.473   7.452  0.1332  0.1321 -0.4576
   41BDD     C330928   6.604   2.525   7.459  0.1448  0.0977 -0.4257
   41BDD     C430929   6.610   2.662   7.460  0.1824  0.0966 -0.4914
   41BDD     S130930   6.446   2.734   7.452  0.2055  0.1386 -0.5978
   41BDD     C530931   6.439   2.328   7.451  0.0938  0.1392 -0.3983
   41BDD     C630932   6.723   2.438   7.464  0.1185  0.0671 -0.3310
   41BDD     O130933   6.840   2.483   7.470  0.1286  0.0375 -0.3036
   41BDD     O230934   6.323   2.283   7.445  0.0838  0.1689 -0.4257
   41BDD     C730935   6.694   2.293   7.462  0.0792  0.0742 -0.2716
   41BDD     C830936   6.558   2.241   7.456  0.0674  0.1087 -0.3036
   41BDD     C930937   6.553   2.104   7.455  0.0298  0.1098 -0.2379
   41BDD     S230938   6.717   2.031   7.462  0.0067  0.0678 -0.1316
   41BDD    C1030939   6.790   2.195   7.466  0.0503  0.0497 -0.1820
   41BDD    C1130940   6.928   2.182   7.422 -0.6508 -0.7354 -0.5205
   41BDD    C1230941   7.052   2.264   7.463 -1.4572  1.2050 -0.7353
   41BDD    C1330942   7.190   2.236   7.380 -0.1532 -0.9144  0.3532
   41BDD    C1430943   7.156   2.294   7.231 -0.3861  0.6282 -1.1792
   41BDD    C1530944   7.239   2.291   7.110  0.2967  0.0612  1.1231
   41BDD    C1630945   7.388   2.309   7.127  0.9762 -1.0700  0.1968
   41BDD    C1730946   7.078   2.252   7.619 -0.5083  0.5015  0.4138
   41BDD    C1830947   7.086   2.102   7.692 -0.5766  0.5101  0.7783
   41BDD    C1930948   6.446   2.015   7.430  0.9827 -0.0350  0.4891
   41BDD    C2030949   6.372   1.951   7.546  0.4555 -1.1322  1.0258
   41BDD    C2130950   6.456   1.845   7.627  0.3251  1.6754 -0.0378
   41BDD    C2230951   6.506   1.718   7.540  1.6495 -0.6825 -0.3172
   41BDD    C2330952   6.471   1.574   7.572 -0.5803  0.6702  1.4816
   41BDD    C2430953   6.350   1.520   7.507  0.6767 -0.1873  0.1632
   41BDD    C2530954   6.226   1.916   7.524  0.5349 -0.7342 -0.1093
   41BDD    C2630955   6.174   1.841   7.409 -0.6386 -0.0708  0.5493
   42TPM     C130956   6.228   2.562   7.442 -0.2957 -1.1092  0.2937
   42TPM     C230957   6.157   2.500   7.541 -0.6031 -1.3944 -0.1022
   42TPM     C330958   6.014   2.505   7.522 -0.5769 -0.6847 -0.1481
   42TPM     C430959   5.977   2.572   7.409 -0.2497  0.1416  0.2128
   42TPM     S130960   6.119   2.633   7.317  0.0536  0.0871  0.6420
   43BDTP    C130961   5.399   2.676   7.192 -0.0612  0.0464 -0.0298
   43BDTP    C230962   5.476   2.779   7.130 -0.0955  0.1226  0.0542
   43BDTP    C330963   5.612   2.795   7.152 -0.0968  0.1375  0.0515
   43BDTP    C430964   5.676   2.705   7.240 -0.0626  0.0744 -0.0381
   43BDTP    C530965   5.600   2.602   7.302 -0.0283 -0.0018 -0.1223
   43BDTP    C630966   5.464   2.586   7.280 -0.0269 -0.0167 -0.1194
   43BDTP    C730967   5.816   2.702   7.278 -0.0568  0.0756 -0.0588
   43BDTP    C830968   5.848   2.603   7.364 -0.0203  0.0048 -0.1531
   43BDTP    S130969   5.705   2.500   7.410  0.0120 -0.0732 -0.2290
   43BDTP    C930970   5.260   2.679   7.154 -0.0669  0.0452 -0.0093
   43BDTP   C1030971   5.228   2.778   7.068 -0.1035  0.1160  0.0850
   43BDTP    S230972   5.370   2.882   7.022 -0.1357  0.1940  0.1610
   44FTM     S130973   5.776   3.020   7.204 -0.3609  0.0595 -0.1116
   44FTM     C130974   5.820   3.131   7.069  0.3907  0.0570  0.1220
   44FTM     C230975   5.775   3.080   6.951  0.9489  0.1079 -0.1184
   44FTM     C330976   5.706   2.955   6.958  0.8291  0.1511 -0.4896
   44FTM     C430977   5.697   2.908   7.086  0.1574  0.1326 -0.5352
   44FTM     F130978   5.795   3.144   6.830  1.6015  0.1187 -0.0165
   44FTM     C530979   5.892   3.270   7.059  0.7544 -0.0816 -0.0439
   44FTM     C630980   5.974   3.325   7.171 -0.3835  1.1312 -1.4457
   44FTM     C730981   6.086   3.222   7.206  0.5802 -0.2256 -1.0921
   44FTM     C830982   6.195   3.165   7.113 -0.0199  0.6765 -0.4972
   44FTM     C930983   6.327   3.104   7.188 -0.7024 -1.6562  0.8307
   44FTM    C1030984   6.316   3.017   7.299  0.5209  0.6275 -0.3464
   44FTM    C1130985   5.908   3.371   7.292 -0.1744 -1.0699  0.6513
   44FTM    C1230986   5.799   3.481   7.285  0.2769  0.5384  0.8383
   45FTM     S130987   5.396   2.315   7.342  0.3830  0.1171 -0.0295
   45FTM     C130988   5.270   2.290   7.467 -0.1803 -0.0019 -0.6104
   45FTM     C230989   5.229   2.410   7.516 -0.7049 -0.0275 -0.9736
   45FTM     C330990   5.292   2.526   7.460 -0.7008  0.0422 -0.8261
   45FTM     C430991   5.384   2.494   7.365 -0.1554  0.1238 -0.3338
   45FTM     F130992   5.131   2.423   7.614 -1.2197 -0.1156 -1.4611
   45FTM     C530993   5.225   2.139   7.498 -0.8504  0.0348 -0.7326
   45FTM     C630994   5.131   2.051   7.405  0.9941 -1.0349  0.0952
   45FTM     C730995   5.009   2.132   7.338 -0.4489 -0.6858 -0.2809
   45FTM     C830996   5.037   2.178   7.187  0.1351 -0.3889  0.0020
   45FTM     C930997   5.086   2.073   7.090  0.3179 -1.0249 -0.7400
   45FTM    C1030998   5.113   2.127   6.954 -1.3066  0.0686  0.4052
   45FTM    C1130999   5.087   1.916   7.468 -0.6988  0.1711  0.6018
   45FTM    C1231000   4.977   1.913   7.564  0.8979  0.1674 -0.5384
   46TPM     C131001   5.096   2.804   6.997  0.6217 -0.1274 -1.5393
   46TPM     C231002   4.998   2.717   6.960  0.8047 -0.0668 -2.1814
   46TPM     C331003   4.883   2.781   6.902  0.5001  0.1700 -1.3409
   46TPM     C431004   4.893   2.917   6.895  0.0852  0.2902 -0.0578
   46TPM     S131005   5.051   2.974   6.962  0.0463  0.1122  0.1905
   47BDD     C131006   4.578   3.046   6.699 -0.2055  0.0948 -0.0839
   47BDD     C231007   4.558   3.077   6.830 -0.1373  0.0929 -0.0732
   47BDD     C331008   4.675   3.052   6.913 -0.0681  0.1673 -0.1475
   47BDD     C431009   4.782   3.002   6.844 -0.0847  0.2249 -0.2138
   47BDD     S131010   4.744   2.984   6.669 -0.1879  0.1899 -0.1878
   47BDD     C531011   4.432   3.130   6.885 -0.1332  0.0224  0.0056
   47BDD     C631012   4.676   3.077   7.059  0.0119  0.1786 -0.1502
   47BDD     O131013   4.777   3.056   7.130  0.0716  0.2428 -0.2143
   47BDD     O231014   4.331   3.152   6.813 -0.1929 -0.0417  0.0697
   47BDD     C731015   4.550   3.131   7.113  0.0160  0.1082 -0.0713
   47BDD     C831016   4.433   3.156   7.030 -0.0533  0.0338  0.0031
   47BDD     C931017   4.326   3.205   7.100 -0.0370 -0.0238  0.0694
   47BDD     S231018   4.364   3.224   7.275  0.0664  0.0112  0.0433
   47BDD    C1031019   4.530   3.162   7.245  0.0840  0.1064 -0.0606
   47BDD    C1131020   4.598   3.127   7.371  1.1163 -0.8986 -0.7359
   47BDD    C1231021   4.523   3.017   7.457 -0.8989 -0.8737  0.5692
   47BDD    C1331022   4.535   2.865   7.436 -0.8959 -1.2286  0.8626
   47BDD    C1431023   4.678   2.804   7.418  0.9646 -1.1265 -0.2860
   47BDD    C1531024   4.662   2.666   7.372 -1.5162  0.6605 -1.1864
   47BDD    C1631025   4.726   2.579   7.480  0.0955 -0.5141  1.1515
   47BDD    C1731026   4.523   3.027   7.609  0.2648  0.5064  0.1853
   47BDD    C1831027   4.548   3.156   7.688 -0.0870  0.0315  1.3079
   47BDD    C1931028   4.189   3.247   7.077  1.1344 -0.3673  0.1706
   47BDD    C2031029   4.161   3.380   6.992  0.4029 -0.0418 -0.2614
   47BDD    C2131030   4.010   3.391   6.953 -0.3118  1.0109  0.8709
   47BDD    C2231031   3.919   3.411   7.066  1.0859 -0.5321 -0.1850
   47BDD    C2331032   3.816   3.300   7.037  0.6634  0.4405  0.4699
   47BDD    C2431033   3.726   3.294   7.159 -0.3660  0.1844  0.3231
   47BDD    C2531034   4.245   3.502   7.014 -1.0360 -0.2008  1.1860
   47BDD    C2631035   4.216   3.633   6.950 -0.2130 -0.3983 -0.2151
   48TPM     C131036   4.506   3.039   6.572  0.0294  0.6765  0.3249
   48TPM     C231037   4.570   3.025   6.453  0.4002  1.2645  0.4469
   48TPM     C331038   4.485   2.980   6.346  0.8354  1.3050  0.0789
   48TPM     C431039   4.356   2.960   6.383  0.7964  0.7479 -0.3237
   48TPM     S131040   4.331   2.997   6.558  0.2025  0.1239 -0.2689
   49BDTP    C131041   3.877   2.727   6.065  0.1985 -0.0750  0.1498
   49BDTP    C231042   3.854   2.685   6.199  0.0983 -0.0317  0.1458
   49BDTP    C331043   3.936   2.722   6.305  0.0586 -0.0543  0.1848
   49BDTP    C431044   4.047   2.804   6.277  0.1204 -0.1227  0.2298
   49BDTP    C531045   4.071   2.845   6.143  0.2207 -0.1659  0.2338
   49BDTP    C631046   3.988   2.809   6.037  0.2603 -0.1434  0.1948
   49BDTP    C731047   4.147   2.854   6.369  0.0959 -0.1575  0.2753
   49BDTP    C831048   4.242   2.931   6.312  0.1717 -0.2239  0.3127
   49BDTP    S131049   4.220   2.950   6.132  0.2850 -0.2518  0.2956
   49BDTP    C931050   3.778   2.677   5.972  0.2231 -0.0402  0.1044
   49BDTP   C1031051   3.682   2.600   6.030  0.1472  0.0263  0.0670
   49BDTP    S231052   3.704   2.581   6.209  0.0339  0.0540  0.0842
   50FTM     S131053   4.013   2.634   6.569  0.0862  0.6280 -0.5857
   50FTM     C131054   3.908   2.697   6.701  0.2144 -0.0798 -0.1311
   50FTM     C231055   3.802   2.764   6.647 -0.1122 -0.2173  0.3284
   50FTM     C331056   3.797   2.770   6.504 -0.4731  0.2092  0.3548
   50FTM     C431057   3.902   2.705   6.446 -0.4214  0.6887 -0.0997
   50FTM     F131058   3.704   2.823   6.725 -0.1035 -0.7375  0.7528
   50FTM     C531059   3.947   2.646   6.836 -0.8195  0.1197  0.1077
   50FTM     C631060   4.016   2.723   6.943  0.1785  0.4759  0.7424
   50FTM     C731061   4.048   2.636   7.058 -1.0366  1.0918 -0.6959
   50FTM     C831062   4.160   2.530   7.044  0.0519 -0.1717 -0.8415
   50FTM     C931063   4.297   2.576   6.989  0.7859 -0.1438 -0.0854
   50FTM    C1031064   4.438   2.538   7.050 -0.3844  0.6592 -0.3144
   50FTM    C1131065   3.961   2.847   6.970  0.8062 -1.7279 -0.1359
   50FTM    C1231066   4.047   2.940   7.051  0.3743  0.9275 -1.0430
   51FTM     S131067   3.946   3.060   5.928 -0.1669 -0.0454 -0.2286
   51FTM     C131068   3.905   3.077   5.753 -0.0135 -0.9242 -0.3625
   51FTM     C231069   3.916   2.957   5.691  0.2582 -1.2017  0.2043
   51FTM     C331070   3.956   2.847   5.773  0.3613 -0.7587  0.7635
   51FTM     C431071   3.976   2.883   5.902  0.1620 -0.1210  0.6206
   51FTM     F131072   3.891   2.940   5.555  0.4298 -1.8736  0.2505
   51FTM     C531073   3.830   3.201   5.716  0.1588 -1.0667  0.8218
   51FTM     C631074   3.695   3.176   5.636  0.3645 -0.6471  0.1179
   51FTM     C731075   3.607   3.057   5.664 -0.7856  0.5930  1.7983
   51FTM     C831076   3.536   3.033   5.791  1.0304 -0.1083  0.9625
   51FTM     C931077   3.591   3.065   5.925 -0.9292 -0.1765  0.0867
   51FTM    C1031078   3.506   3.031   6.040  1.0546 -0.3921  0.1571
   51FTM    C1131079   3.618   3.268   5.539  0.1510  1.0649  0.8977
   51FTM    C1231080   3.674   3.311   5.392 -0.7022 -0.1751 -0.1049
   52TPM     C131081   3.572   2.529   5.956  0.8707 -0.0492 -0.5791
   52TPM     C231082   3.484   2.432   5.994  1.2916 -0.2756 -0.1529
   52TPM     C331083   3.394   2.391   5.889  0.7907 -0.3937  0.3113
   52TPM     C431084   3.414   2.457   5.771 -0.0121 -0.2576  0.2391
   52TPM     S131085   3.549   2.576   5.783 -0.1991  0.0326 -0.4256
   53BDD     C131086   3.299   2.285   5.444 -0.2111 -0.2097 -0.1360
   53BDD     C231087   3.245   2.411   5.440 -0.1283 -0.1745 -0.1650
   53BDD     C331088   3.275   2.490   5.558  0.1130 -0.0869 -0.2831
   53BDD     C431089   3.351   2.423   5.650  0.2108 -0.0567 -0.3426
   53BDD     S131090   3.391   2.257   5.595  0.0074 -0.1355 -0.2546
   53BDD     C531091   3.163   2.463   5.328 -0.2681 -0.2201 -0.0852
   53BDD     C631092   3.226   2.628   5.576  0.2379 -0.0365 -0.3328
   53BDD     O131093   3.252   2.696   5.678  0.4460  0.0389 -0.4348
   53BDD     O231094   3.138   2.395   5.226 -0.4762 -0.2957  0.0167
   53BDD     C731095   3.145   2.680   5.464  0.0982 -0.0822 -0.2531
   53BDD     C831096   3.115   2.601   5.346 -0.1432 -0.1698 -0.1349
   53BDD     C931097   3.038   2.668   5.254 -0.2410 -0.2000 -0.0757
   53BDD     S231098   2.998   2.834   5.310 -0.0376 -0.1211 -0.1635
   53BDD    C1031099   3.091   2.806   5.461  0.1809 -0.0470 -0.2822
   53BDD    C1131100   3.108   2.934   5.539 -0.7011  0.7402 -0.9486
   53BDD    C1231101   3.016   2.993   5.642 -0.2323  0.3764 -0.7511
   53BDD    C1331102   2.858   2.985   5.645  0.0628  1.4172 -0.6214
   53BDD    C1431103   2.804   2.845   5.687  0.0243 -0.0042  1.5967
   53BDD    C1531104   2.650   2.845   5.696  1.1391 -0.8198  1.7556
   53BDD    C1631105   2.577   2.919   5.583 -0.3567  0.6703  0.1689
   53BDD    C1731106   3.075   3.120   5.706 -1.6961  0.5443 -0.4826
   53BDD    C1831107   3.179   3.113   5.818  0.2799  0.2680  1.1157
   53BDD    C1931108   2.971   2.614   5.129  0.3081 -0.2633  0.3465
   53BDD    C2031109   2.873   2.702   5.052  0.5551  1.6285  0.7747
   53BDD    C2131110   2.719   2.690   5.073 -0.2677 -0.3059  1.0245
   53BDD    C2231111   2.639   2.563   5.114 -0.1653 -1.4485  0.3527
   53BDD    C2331112   2.491   2.558   5.121  0.3614 -1.5593  0.0189
   53BDD    C2431113   2.417   2.682   5.167 -0.4509 -0.3499 -0.3389
   53BDD    C2531114   2.937   2.769   4.930  0.3980  2.5293 -0.0705
   53BDD    C2631115   2.890   2.896   4.885 -0.1425  0.1075  1.0105
   54TPM     C131116   3.293   2.169   5.368  0.9523 -0.1399  0.5645
   54TPM     C231117   3.169   2.119   5.342  0.6593  0.2131  1.2360
   54TPM     C331118   3.170   1.980   5.302  0.0427  0.2025  1.2478
   54TPM     C431119   3.294   1.925   5.297 -0.1344 -0.1584  0.5854
   54TPM     S131120   3.421   2.044   5.343  0.4685 -0.5158 -0.1100
   55BDTP    C131121   3.451   1.327   5.307 -0.0281 -0.2026 -0.3767
   55BDTP    C231122   3.574   1.396   5.331 -0.0508 -0.2629 -0.0699
   55BDTP    C331123   3.583   1.535   5.331 -0.0314 -0.2633  0.2090
   55BDTP    C431124   3.466   1.609   5.307  0.0127 -0.2014  0.1848
   55BDTP    C531125   3.343   1.540   5.284  0.0354 -0.1411 -0.1218
   55BDTP    C631126   3.334   1.402   5.283  0.0158 -0.1406 -0.4008
   55BDTP    C731127   3.451   1.753   5.302  0.0398 -0.1893  0.4400
   55BDTP    C831128   3.325   1.795   5.277  0.0813 -0.1237  0.3408
   55BDTP    S131129   3.207   1.658   5.255  0.0917 -0.0679 -0.0895
   55BDTP    C931130   3.467   1.183   5.312 -0.0553 -0.2147 -0.6317
   55BDTP   C1031131   3.593   1.141   5.337 -0.0966 -0.2803 -0.5327
   55BDTP    S231132   3.710   1.279   5.359 -0.1072 -0.3360 -0.1022
   56FTM     S131133   3.725   1.758   5.468  0.0819  0.0771  0.1072
   56FTM     C131134   3.897   1.783   5.421  0.1393 -0.0185  0.2644
   56FTM     C231135   3.933   1.689   5.329  0.1138  0.0805  0.1534
   56FTM     C331136   3.832   1.595   5.291  0.0497  0.2329 -0.0557
   56FTM     C431137   3.714   1.617   5.355  0.0252  0.2513 -0.1063
   56FTM     F131138   4.060   1.684   5.274  0.1470  0.0388  0.2344
   56FTM     C531139   3.948   1.897   5.499  0.0704  1.5320  0.9571
   56FTM     C631140   4.095   1.919   5.494  0.5701 -0.5707  0.6349
   56FTM     C731141   4.131   2.060   5.411  1.1006 -0.1410  0.0616
   56FTM     C831142   4.194   2.020   5.283 -0.7205 -0.2907  0.8980
   56FTM     C931143   4.203   2.112   5.164 -0.4581  0.7955 -0.2028
   56FTM    C1031144   4.218   2.261   5.174  1.1676 -0.0413  0.4560
   56FTM    C1131145   4.173   1.873   5.618 -1.4868  0.6508 -0.1528
   56FTM    C1231146   4.144   1.732   5.677  0.0433  0.1623  0.5382
   57FTM     S131147   3.081   1.352   5.137 -0.2375  0.7164 -0.0112
   57FTM     C131148   2.948   1.277   5.233 -0.0275 -0.0246 -0.2893
   57FTM     C231149   2.992   1.248   5.358  0.2216 -0.9140 -0.5674
   57FTM     C331150   3.128   1.282   5.387  0.2636 -1.0699 -0.5810
   57FTM     C431151   3.191   1.338   5.280  0.0390 -0.2737 -0.3042
   57FTM     F131152   2.911   1.189   5.455  0.4266 -1.6400 -0.8262
   57FTM     C531153   2.812   1.267   5.162 -0.7942 -1.6536 -0.2987
   57FTM     C631154   2.797   1.218   5.018  0.1376  0.2570  0.4320
   57FTM     C731155   2.898   1.120   4.945 -0.0766  0.2979 -0.3831
   57FTM     C831156   2.953   0.998   5.043 -0.2030  0.9410 -0.0509
   57FTM     C931157   2.855   0.914   5.120  0.8917  1.8364 -0.5237
   57FTM    C1031158   2.768   0.796   5.027 -0.1049 -0.2823  0.2365
   57FTM    C1131159   2.640   1.199   4.984  0.5102  0.2544 -1.2348
   57FTM    C1231160   2.554   1.090   5.042 -0.7714 -0.5526  0.4478
   58TPM     C131161   3.636   1.006   5.365  0.5145 -0.2598  0.3522
   58TPM     C231162   3.703   0.972   5.479  0.1668 -0.8621  0.3880
   58TPM     C331163   3.726   0.831   5.493 -0.5735 -1.0180  0.1065
   58TPM     C431164   3.676   0.757   5.390 -0.7902 -0.5345 -0.1437
   58TPM     S131165   3.596   0.860   5.266 -0.0707  0.1606 -0.0426
   59BDD     C131166   3.743   0.376   5.352  0.3704 -0.5060  0.8502
   59BDD     C231167   3.615   0.388   5.397  0.3397 -0.3746  0.7310
   59BDD     C331168   3.573   0.525   5.419  0.3455 -0.3128  0.3656
   59BDD     C431169   3.671   0.616   5.390  0.3804 -0.3981  0.2114
   59BDD     S131170   3.821   0.537   5.333  0.4086 -0.5616  0.5132
   59BDD     C531171   3.525   0.273   5.422  0.3041 -0.3009  0.9485
   59BDD     C631172   3.439   0.561   5.467  0.3160 -0.1715  0.1826
   59BDD     O131173   3.403   0.679   5.486  0.3210 -0.1182 -0.1326
   59BDD     O231174   3.561   0.154   5.403  0.2992 -0.3542  1.2637
   59BDD     C731175   3.349   0.446   5.492  0.2804 -0.0978  0.4002
   59BDD     C831176   3.391   0.308   5.470  0.2747 -0.1596  0.7656
   59BDD     C931177   3.293   0.217   5.499  0.2397 -0.0743  0.9197
   59BDD     S231178   3.142   0.297   5.556  0.2116  0.0892  0.6180
   59BDD    C1031179   3.221   0.457   5.537  0.2497  0.0337  0.2810
   59BDD    C1131180   3.129   0.566   5.548  1.3783 -0.7180  0.4242
   59BDD    C1231181   3.092   0.641   5.671  0.1668 -1.0187 -1.6655
   59BDD    C1331182   3.006   0.760   5.652 -0.6323 -1.3984  0.5134
   59BDD    C1431183   3.102   0.874   5.604 -0.5508  0.1038 -0.0378
   59BDD    C1531184   3.192   0.934   5.710  0.4330 -0.0968 -0.1557
   59BDD    C1631185   3.121   1.019   5.818 -0.4238 -0.3462 -0.0047
   59BDD    C1731186   3.053   0.550   5.799  0.3995 -1.2353 -0.5731
   59BDD    C1831187   3.051   0.609   5.950 -0.4257  0.4313  0.1752
   59BDD    C1931188   3.289   0.056   5.530 -0.1796  0.3188 -0.3089
   59BDD    C2031189   3.177  -0.048   5.486 -0.2549 -0.4049 -1.5401
   59BDD    C2131190   3.063  -0.080   5.582 -0.1738  0.3938  0.2833
   59BDD    C2231191   2.944   0.000   5.604  0.5983 -0.3073  0.6014
   59BDD    C2331192   2.885   0.047   5.735  0.9322  0.2716 -0.0351
   59BDD    C2431193   2.882  -0.042   5.866  0.7971 -0.2948  1.2476
   59BDD    C2531194   3.147  -0.068   5.334 -0.0581 -0.6632 -1.4239
   59BDD    C2631195   3.265  -0.127   5.254 -0.7786 -1.2801  0.4055
   60TPM     C131196   3.824   0.263   5.299  0.5987 -0.2787  0.0411
   60TPM     C231197   3.935   0.236   5.374  0.0473 -1.1161  0.5807
   60TPM     C331198   4.011   0.123   5.326 -0.2607 -1.3454  0.6227
   60TPM     C431199   3.958   0.065   5.214  0.0560 -0.6828  0.1154
   60TPM     S131200   3.807   0.149   5.161  0.7732  0.2897 -0.4593
    1BDTP    C131201   7.949  10.335   4.934 -0.0291  0.0014  0.2444
    1BDTP    C231202   7.932  10.325   5.075  0.1775 -0.0172  0.2689
    1BDTP    C331203   7.900  10.205   5.138  0.3676 -0.0458  0.3105
    1BDTP    C431204   7.885  10.090   5.059  0.3536 -0.0565  0.3291
    1BDTP    C531205   7.902  10.100   4.918  0.1471 -0.0384  0.3046
    1BDTP    C631206   7.934  10.220   4.855 -0.0429 -0.0094  0.2628
    1BDTP    C731207   7.852   9.956   5.102  0.5279 -0.0857  0.3718
    1BDTP    C831208   7.844   9.866   5.002  0.4629 -0.0899  0.3804
    1BDTP    S131209   7.877   9.938   4.838  0.1721 -0.0572  0.3357
    1BDTP    C931210   7.982  10.469   4.891 -0.2031  0.0308  0.2017
    1BDTP   C1031211   7.990  10.559   4.991 -0.1384  0.0346  0.1930
    1BDTP    S231212   7.957  10.487   5.155  0.1527  0.0022  0.2378
    2FTM     S131213   7.756  10.240   5.375  0.0119  0.4353 -0.2362
    2FTM     C131214   7.842  10.194   5.527  0.0854  0.0042 -0.4028
    2FTM     C231215   7.969  10.154   5.498 -0.1210 -0.4983 -0.6355
    2FTM     C331216   8.006  10.156   5.360 -0.3433 -0.5763 -0.6971
    2FTM     C431217   7.904  10.199   5.280 -0.3061 -0.1190 -0.5050
    2FTM     F131218   8.058  10.114   5.595 -0.1209 -0.9172 -0.8068
    2FTM     C531219   7.763  10.206   5.650  0.7714  0.9450 -1.1727
    2FTM     C631220   7.705  10.082   5.736  0.6168  1.0838  0.4992
    2FTM     C731221   7.690  10.140   5.878 -0.1137  0.5816 -1.3766
    2FTM     C831222   7.590  10.257   5.921 -0.7891 -0.5771 -0.8816
    2FTM     C931223   7.605  10.308   6.054 -0.3146 -0.3816  0.3810
    2FTM    C1031224   7.627  10.452   6.032 -0.8638 -1.4368 -1.1138
    2FTM    C1131225   7.573  10.013   5.701 -0.3406  1.2867  0.0269
    2FTM    C1231226   7.625   9.936   5.572  0.2951  0.2122 -0.7780
    3FTM     S131227   8.093  10.148   4.619 -0.4286  0.4358  0.1774
    3FTM     C131228   8.032  10.193   4.456 -0.4378  0.0379  0.0705
    3FTM     C231229   7.921  10.271   4.467 -0.2987  0.2661 -0.1080
    3FTM     C331230   7.878  10.300   4.601 -0.1794  0.7517 -0.1712
    3FTM     C431231   7.958  10.242   4.695 -0.2288  0.9008 -0.0366
    3FTM     F131232   7.852  10.320   4.358 -0.2710  0.0482 -0.2251
    3FTM     C531233   8.109  10.147   4.325  1.2614 -0.5929  1.3885
    3FTM     C631234   8.211  10.231   4.252 -1.2222 -0.4730 -0.3999
    3FTM     C731235   8.247  10.376   4.320  0.9645  0.7698  1.0396
    3FTM     C831236   8.313  10.376   4.451  0.7472  0.0348 -0.9531
    3FTM     C931237   8.337  10.506   4.527 -0.5959 -0.2965 -0.1893
    3FTM    C1031238   8.326  10.628   4.437 -0.0144 -0.0735  0.0617
    3FTM    C1131239   8.244  10.197   4.109  0.4085 -0.4624 -0.6905
    3FTM    C1231240   8.150  10.254   4.000  1.8826 -0.0065  0.3079
    4TPM     C131241   7.998  10.703   4.961 -1.5104  0.2178 -0.0888
    4TPM     C231242   8.060  10.767   4.858 -1.2429 -0.0942 -0.1261
    4TPM     C331243   8.054  10.911   4.867 -0.3977 -0.0520 -0.0513
    4TPM     C431244   7.987  10.956   4.977 -0.0207  0.2924  0.0429
    4TPM     S131245   7.926  10.819   5.078 -0.7093  0.5925  0.0444
    5BDD     C131246   8.005  11.345   4.947 -0.1718 -0.2406 -0.1036
    5BDD     C231247   7.888  11.325   5.014 -0.1502 -0.0949 -0.0211
    5BDD     C331248   7.856  11.185   5.033 -0.0571 -0.0558  0.4481
    5BDD     C431249   7.949  11.100   4.980 -0.0090 -0.1718  0.7170
    5BDD     S131250   8.084  11.190   4.903 -0.0770 -0.3386  0.4008
    5BDD     C531251   7.801  11.434   5.063 -0.2146  0.0136 -0.3707
    5BDD     C631252   7.733  11.140   5.103 -0.0190  0.0958  0.6130
    5BDD     O131253   7.706  11.019   5.119  0.0614  0.1299  1.0175
    5BDD     O231254   7.829  11.555   5.046 -0.2947 -0.0203 -0.7753
    5BDD     C731255   7.647  11.249   5.152 -0.0833  0.2046  0.2633
    5BDD     C831256   7.679  11.389   5.133 -0.1765  0.1650 -0.2059
    5BDD     C931257   7.585  11.474   5.185 -0.2247  0.2818 -0.4747
    5BDD     S231258   7.451  11.384   5.263 -0.1564  0.4483 -0.1588
    5BDD    C1031259   7.529  11.229   5.219 -0.0618  0.3502  0.3455
    5BDD    C1131260   7.426  11.110   5.230 -0.6354  0.1874  1.1190
    5BDD    C1231261   7.280  11.144   5.186 -0.1257  1.2008  0.5202
    5BDD    C1331262   7.233  11.149   5.029  0.4111  0.9347 -0.5088
    5BDD    C1431263   7.305  11.260   4.954  0.7511  0.2577 -0.3866
    5BDD    C1531264   7.416  11.216   4.857 -1.1329  0.6827  0.1295
    5BDD    C1631265   7.418  11.104   4.753  0.7980  0.6394  0.3589
    5BDD    C1731266   7.185  11.220   5.276  0.3935 -0.0907  1.2464
    5BDD    C1831267   7.164  11.127   5.393 -0.3867 -0.0719 -0.2019
    5BDD    C1931268   7.545  11.610   5.204  0.7823 -0.7348 -0.0766
    5BDD    C2031269   7.611  11.714   5.118 -1.4914 -0.2442  1.1528
    5BDD    C2131270   7.585  11.707   4.967  0.1880 -0.1582  0.6196
    5BDD    C2231271   7.669  11.803   4.886 -1.6812  1.4530 -0.4094
    5BDD    C2331272   7.712  11.756   4.742 -0.0078 -0.2152 -0.3733
    5BDD    C2431273   7.584  11.720   4.664  0.7890 -0.5365  1.1988
    5BDD    C2531274   7.594  11.851   5.187  0.7431 -0.6431  0.7240
    5BDD    C2631275   7.722  11.920   5.240  0.6140  0.6731 -0.1368
    6TPM     C131276   8.092  11.463   4.925 -0.7069  0.5441 -0.4411
    6TPM     C231277   8.032  11.546   4.836 -0.2828  0.8582 -0.4425
    6TPM     C331278   8.124  11.627   4.760  0.1059  0.7643 -0.0778
    6TPM     C431279   8.255  11.605   4.792 -0.0219  0.3786  0.2016
    6TPM     S131280   8.272  11.480   4.921 -0.6480  0.1019  0.0244
    7BDTP    C131281   8.782  11.899   4.646  0.0048 -0.3093  0.8726
    7BDTP    C231282   8.819  11.761   4.646 -0.0350 -0.3239  0.4076
    7BDTP    C331283   8.729  11.660   4.674 -0.0644 -0.3947  0.0660
    7BDTP    C431284   8.596  11.695   4.704 -0.0534 -0.4541  0.1880
    7BDTP    C531285   8.559  11.833   4.704 -0.0134 -0.4395  0.6531
    7BDTP    C631286   8.649  11.934   4.675  0.0157 -0.3687  0.9949
    7BDTP    C731287   8.485  11.607   4.736 -0.0782 -0.5320 -0.1055
    7BDTP    C831288   8.368  11.671   4.759 -0.0591 -0.5761  0.1140
    7BDTP    S131289   8.382  11.852   4.744 -0.0069 -0.5251  0.7232
    7BDTP    C931290   8.893  11.987   4.614  0.0296 -0.2314  1.1663
    7BDTP   C1031291   9.010  11.922   4.591  0.0105 -0.1873  0.9470
    7BDTP    S231292   8.996  11.742   4.606 -0.0417 -0.2383  0.3375
    8FTM     S131293   8.902  11.441   4.587  0.0257 -0.2421  0.1667
    8FTM     C131294   8.884  11.282   4.669  0.0208 -0.1861  0.2752
    8FTM     C231295   8.786  11.289   4.762  0.1309 -0.0749  0.3823
    8FTM     C331296   8.721  11.416   4.776  0.2232 -0.0274  0.3866
    8FTM     C431297   8.770  11.509   4.690  0.1825 -0.1051  0.2791
    8FTM     F131298   8.750  11.181   4.842  0.1545 -0.0093  0.4827
    8FTM     C531299   8.999  11.194   4.676  0.7091  0.9107 -0.6743
    8FTM     C631300   9.040  11.113   4.556  0.3168  0.1515 -0.2325
    8FTM     C731301   8.922  11.039   4.482  0.1393  0.5111  1.4477
    8FTM     C831302   8.963  11.029   4.337 -0.4231  0.2725 -0.6536
    8FTM     C931303   8.957  11.165   4.280  0.8669  0.1293  0.3130
    8FTM    C1031304   9.052  11.163   4.172 -1.4507 -0.6954  0.2795
    8FTM    C1131305   9.166  11.017   4.568 -0.4514  0.2892  0.4273
    8FTM    C1231306   9.298  11.075   4.625 -0.7853 -1.0753 -0.8092
    9FTM     S131307   8.606  12.147   4.502 -0.0588 -0.0299  0.0937
    9FTM     C131308   8.505  12.284   4.560 -0.1033 -0.0078 -0.0346
    9FTM     C231309   8.467  12.262   4.689 -0.0849  0.1065 -0.0092
    9FTM     C331310   8.513  12.140   4.749 -0.0360  0.1820  0.1088
    9FTM     C431311   8.589  12.066   4.663 -0.0168  0.1236  0.1758
    9FTM     F131312   8.388  12.350   4.761 -0.1109  0.1495 -0.0911
    9FTM     C531313   8.473  12.402   4.470  0.2914  0.2878  1.1203
    9FTM     C631314   8.333  12.387   4.414  0.7971 -0.5578  1.6559
    9FTM     C731315   8.296  12.507   4.324  0.1375  1.3992 -0.2313
    9FTM     C831316   8.222  12.613   4.363 -0.0357 -0.2159  0.0372
    9FTM     C931317   8.303  12.716   4.425  0.6544  0.4691 -0.0179
    9FTM    C1031318   8.236  12.840   4.472 -0.6091  0.6781 -0.0652
    9FTM    C1131319   8.284  12.255   4.340 -1.8316  0.3250  0.0467
    9FTM    C1231320   8.238  12.154   4.438 -0.9439  0.6533  0.6093
   10TPM     C131321   9.139  11.977   4.566  0.3650  0.7075 -0.6332
   10TPM     C231322   9.193  12.004   4.444  0.2942  2.1463 -0.3927
   10TPM     C331323   9.330  12.048   4.448  0.2744  2.1674  0.0478
   10TPM     C431324   9.380  12.055   4.575  0.3303  0.7447  0.1433
   10TPM     S131325   9.258  12.007   4.698  0.4124 -0.7436 -0.3195
   11BDD     C131326   9.762  12.103   4.548 -0.2271 -0.1525  0.3784
   11BDD     C231327   9.715  12.227   4.580 -0.1683 -0.0974  0.2542
   11BDD     C331328   9.571  12.230   4.600 -0.1845  0.0174  0.1235
   11BDD     C431329   9.511  12.108   4.583 -0.2550  0.0483  0.1501
   11BDD     S131330   9.630  11.981   4.540 -0.3061 -0.0644  0.3405
   11BDD     C531331   9.800  12.347   4.594 -0.0958 -0.1483  0.2508
   11BDD     C631332   9.498  12.354   4.635 -0.1295  0.0924 -0.0231
   11BDD     O131333   9.374  12.357   4.653 -0.1435  0.1915 -0.1358
   11BDD     O231334   9.924  12.344   4.577 -0.0818 -0.2474  0.3635
   11BDD     C731335   9.583  12.474   4.649 -0.0570  0.0415 -0.0262
   11BDD     C831336   9.727  12.470   4.629 -0.0408 -0.0733  0.1043
   11BDD     C931337   9.787  12.592   4.647  0.0298 -0.1042  0.0776
   11BDD     S231338   9.668  12.719   4.689  0.0809  0.0085 -0.1128
   11BDD    C1031339   9.536  12.598   4.681  0.0017  0.0966 -0.1508
   11BDD    C1131340   9.405  12.649   4.726 -0.4270 -0.9620  0.1507
   11BDD    C1231341   9.388  12.692   4.870 -0.3574 -0.0697 -0.3175
   11BDD    C1331342   9.421  12.592   4.988 -0.4622 -0.5885 -0.2683
   11BDD    C1431343   9.495  12.636   5.110 -0.3645 -0.3910  0.3665
   11BDD    C1531344   9.518  12.523   5.204  0.0563 -0.8602 -0.5497
   11BDD    C1631345   9.658  12.531   5.278  0.1110  1.1921  0.2928
   11BDD    C1731346   9.280  12.792   4.888  0.8864 -0.1679  0.2026
   11BDD    C1831347   9.347  12.914   4.977  0.7946  0.0330  0.7492
   11BDD    C1931348   9.920  12.655   4.611 -0.2681  0.7394 -0.4503
   11BDD    C2031349  10.020  12.683   4.717 -0.0259  1.0326 -0.3491
   11BDD    C2131350  10.162  12.723   4.685 -0.8957  0.2379 -1.3167
   11BDD    C2231351  10.176  12.855   4.616  0.3179 -0.4403  0.0771
   11BDD    C2331352  10.325  12.903   4.614 -0.0194  0.6709 -1.3915
   11BDD    C2431353  10.434  12.805   4.552  1.2611  1.2663  0.0412
   11BDD    C2531354  10.011  12.597   4.846  0.4976  0.8881 -0.9432
   11BDD    C2631355  10.089  12.455   4.848 -0.4956 -0.6677  0.5081
   12TPM     C131356   9.895  12.058   4.488 -0.2019 -0.3390 -0.5956
   12TPM     C231357   9.964  11.955   4.544  0.0789 -0.2899 -0.8481
   12TPM     C331358  10.100  11.945   4.497  0.1173  0.2067 -0.8585
   12TPM     C431359  10.134  12.040   4.406 -0.1346  0.5363 -0.6143
   12TPM     S131360   9.996  12.151   4.371 -0.4421  0.2427 -0.3500
   13BDTP    C131361  10.722  12.188   4.238  0.0718  0.2922  0.1469
   13BDTP    C231362  10.736  12.067   4.312  0.0620  0.1146 -0.1357
   13BDTP    C331363  10.628  11.999   4.366  0.0601  0.0159 -0.2640
   13BDTP    C431364  10.500  12.051   4.346  0.0677  0.0960 -0.1067
   13BDTP    C531365  10.485  12.172   4.271  0.0770  0.2737  0.1761
   13BDTP    C631366  10.593  12.240   4.217  0.0792  0.3723  0.3043
   13BDTP    C731367  10.373  11.998   4.392  0.0674  0.0202 -0.1944
   13BDTP    C831368  10.265  12.072   4.356  0.0758  0.1310  0.0061
   13BDTP    S131369  10.309  12.219   4.259  0.0854  0.3469  0.3341
   13BDTP    C931370  10.848  12.241   4.191  0.0720  0.3680  0.2345
   13BDTP   C1031371  10.956  12.167   4.227  0.0634  0.2572  0.0342
   13BDTP    S231372  10.912  12.020   4.324  0.0540  0.0413 -0.2939
   14FTM     S131373  10.769  11.940   4.612 -0.0307 -0.0741 -0.4107
   14FTM     C131374  10.715  11.795   4.704 -0.3544 -0.0869 -0.6183
   14FTM     C231375  10.620  11.728   4.633 -0.9830  0.5814 -0.4321
   14FTM     C331376  10.585  11.784   4.506 -1.2450  1.1310 -0.1240
   14FTM     C431377  10.655  11.898   4.478 -0.8026  0.8751 -0.0725
   14FTM     F131378  10.560  11.612   4.679 -1.3587  0.7353 -0.5296
   14FTM     C531379  10.748  11.774   4.844 -1.1116 -0.2206 -2.7148
   14FTM     C631380  10.861  11.675   4.895  1.6516 -0.8030  0.3882
   14FTM     C731381  10.983  11.740   4.950  0.2564 -0.9535 -0.8343
   14FTM     C831382  11.103  11.791   4.854  1.5577  1.0742 -0.0568
   14FTM     C931383  11.234  11.813   4.948  0.2748 -0.2818 -0.4329
   14FTM    C1031384  11.244  11.960   4.988 -1.1586  0.6223  0.5431
   14FTM    C1131385  10.844  11.535   4.853 -1.2001  1.1260  0.2398
   14FTM    C1231386  10.876  11.415   4.946  0.1787  0.5998  0.8045
   15FTM     S131387  10.568  12.532   4.151  0.4812 -0.1011 -0.4145
   15FTM     C131388  10.606  12.560   3.977 -0.5607 -0.1217 -0.6602
   15FTM     C231389  10.613  12.441   3.912 -0.9832 -0.1276 -0.7004
   15FTM     C331390  10.590  12.324   3.991 -0.5331 -0.1169 -0.5463
   15FTM     C431391  10.564  12.354   4.121  0.2596 -0.1022 -0.3827
   15FTM     F131392  10.641  12.431   3.776 -1.8024 -0.1432 -0.8790
   15FTM     C531393  10.608  12.709   3.932  1.5366 -0.2659 -0.9273
   15FTM     C631394  10.641  12.753   3.798  1.4098 -0.8403 -0.7021
   15FTM     C731395  10.776  12.730   3.733 -0.1741  1.2605  0.1642
   15FTM     C831396  10.907  12.791   3.771 -0.4421  0.1351 -0.8251
   15FTM     C931397  10.925  12.829   3.916  0.8229 -1.7900 -0.2836
   15FTM    C1031398  11.080  12.823   3.936 -0.1914 -0.6094 -0.0783
   15FTM    C1131399  10.534  12.857   3.750  1.4257  0.1194 -1.1881
   15FTM    C1231400  10.496  12.893   3.608  0.0233  0.0883  1.1942
   16TPM     C131401  11.103  12.178   4.192 -0.9377  0.1134 -1.0516
   16TPM     C231402  11.198  12.093   4.239 -1.4122 -0.1974 -0.6222
   16TPM     C331403  11.331  12.148   4.238 -1.2739 -0.4770  0.3563
   16TPM     C431404  11.336  12.276   4.191 -0.6944 -0.3794  0.6730
   16TPM     S131405  11.173  12.337   4.144 -0.2744  0.0768 -0.2471
   17BDD     C131406  11.628  12.475   4.000 -0.4572  0.0045  0.0103
   17BDD     C231407  11.678  12.443   4.123 -0.2947 -0.0464 -0.0687
   17BDD     C331408  11.586  12.367   4.205 -0.0870 -0.3150 -0.0777
   17BDD     C431409  11.466  12.343   4.143 -0.0942 -0.4649 -0.0057
   17BDD     S131410  11.461  12.413   3.978 -0.3613 -0.2802  0.0786
   17BDD     C531411  11.814  12.480   4.169 -0.3245  0.1499 -0.1386
   17BDD     C631412  11.619  12.322   4.341  0.1109 -0.4132 -0.1576
   17BDD     O131413  11.539  12.257   4.412  0.2900 -0.6448 -0.1653
   17BDD     O231414  11.894  12.545   4.098 -0.5035  0.3814 -0.1308
   17BDD     C731415  11.754  12.359   4.388  0.0812 -0.2169 -0.2276
   17BDD     C831416  11.847  12.435   4.306 -0.1265  0.0517 -0.2184
   17BDD     C931417  11.966  12.459   4.367 -0.1194  0.2016 -0.2906
   17BDD     S231418  11.971  12.389   4.533  0.1478  0.0169 -0.3748
   17BDD    C1031419  11.804  12.327   4.511  0.2436 -0.2678 -0.3064
   17BDD    C1131420  11.742  12.243   4.629  0.0112  0.8969  0.9162
   17BDD    C1231421  11.711  12.094   4.610  1.2009  0.4853  0.1690
   17BDD    C1331422  11.594  12.039   4.700 -1.1887  0.4560  0.0658
   17BDD    C1431423  11.539  11.898   4.678 -1.2375 -0.6904 -0.8524
   17BDD    C1531424  11.443  11.863   4.560 -0.1605 -1.3037 -1.6729
   17BDD    C1631425  11.318  11.938   4.592  1.6820 -0.0453 -0.3667
   17BDD    C1731426  11.824  12.010   4.626 -1.2435 -0.3872 -1.2942
   17BDD    C1831427  11.884  11.964   4.772 -0.0596  0.1152 -0.8458
   17BDD    C1931428  12.085  12.548   4.345 -0.3418 -0.4231 -0.2790
   17BDD    C2031429  12.214  12.473   4.304  0.2989 -0.3962  0.9944
   17BDD    C2131430  12.200  12.348   4.244  0.2589  1.6878  0.1259
   17BDD    C2231431  12.291  12.287   4.134 -0.1021  0.5258 -0.8768
   17BDD    C2331432  12.314  12.345   3.996  1.3728  1.7224  1.2729
   17BDD    C2431433  12.187  12.379   3.922 -0.4821  0.5191  1.4361
   17BDD    C2531434  12.343  12.530   4.373 -0.1410 -0.8392  0.4292
   17BDD    C2631435  12.407  12.637   4.279  0.5169  0.7402  0.0591
   18TPM     C131436  11.693  12.521   3.880  0.0770 -0.0272 -0.2047
   18TPM     C231437  11.752  12.643   3.861 -0.4306  0.2237 -0.2254
   18TPM     C331438  11.777  12.674   3.723 -0.5442  0.2984 -0.2295
   18TPM     C431439  11.737  12.577   3.636 -0.1234  0.1045 -0.2120
   18TPM     S131440  11.664  12.437   3.723  0.4537 -0.1897 -0.1888
   19BDTP    C131441  11.719  12.581   3.009 -0.3457 -0.1407  0.0873
   19BDTP    C231442  11.627  12.684   3.041 -0.1864 -0.0468  0.2503
   19BDTP    C331443  11.596  12.719   3.171 -0.0953 -0.1729  0.3063
   19BDTP    C431444  11.660  12.650   3.276 -0.1644 -0.4025  0.1964
   19BDTP    C531445  11.752  12.546   3.244 -0.3237 -0.4964  0.0333
   19BDTP    C631446  11.783  12.511   3.113 -0.4148 -0.3703 -0.0228
   19BDTP    C731447  11.644  12.668   3.418 -0.0935 -0.5663  0.2264
   19BDTP    C831448  11.719  12.585   3.494 -0.1906 -0.7761  0.0952
   19BDTP    S131449  11.821  12.472   3.395 -0.3856 -0.7955 -0.0845
   19BDTP    C931450  11.735  12.562   2.866 -0.4166  0.0232  0.0572
   19BDTP   C1031451  11.660  12.645   2.790 -0.3195  0.2328  0.1882
   19BDTP    S231452  11.558  12.759   2.889 -0.1245  0.2523  0.3681
   20FTM     S131453  11.317  12.773   3.116 -0.5561 -0.1602  0.5473
   20FTM     C131454  11.263  12.925   3.196  0.1962 -0.0079  0.7741
   20FTM     C231455  11.367  12.981   3.264  0.5121 -0.5487  0.7445
   20FTM     C331456  11.492  12.911   3.257  0.1965 -1.1011  0.5486
   20FTM     C431457  11.483  12.797   3.182 -0.3803 -0.9794  0.4241
   20FTM     F131458  11.356  13.099   3.335  1.1060 -0.5755  0.8933
   20FTM     C531459  11.111  12.938   3.214  0.5977  1.1441  0.5885
   20FTM     C631460  11.049  13.064   3.172 -0.9656 -1.4490  0.8366
   20FTM     C731461  11.098  13.151   3.064  0.6401 -1.0831  0.9686
   20FTM     C831462  11.096  13.162   2.905  0.6994  2.5513  0.8139
   20FTM     C931463  10.961  13.204   2.859  0.2586  0.1262  1.3434
   20FTM    C1031464  10.968  13.223   2.704  1.0140 -0.3328  0.8183
   20FTM    C1131465  10.890  13.076   3.176  0.0878  0.5595 -0.2861
   20FTM    C1231466  10.827  13.070   3.318  0.3171 -0.9446 -0.5935
   21FTM     S131467  12.002  12.400   2.961 -0.0973  0.4053  0.1743
   21FTM     C131468  12.022  12.222   2.979 -1.0430  0.2455 -0.2359
   21FTM     C231469  11.932  12.174   3.068 -1.4897  0.4677 -0.5600
   21FTM     C331470  11.844  12.270   3.127 -1.1325  0.7684 -0.5104
   21FTM     C431471  11.867  12.396   3.081 -0.3879  0.7768 -0.1361
   21FTM     F131472  11.924  12.040   3.103 -2.2486  0.4119 -0.9208
   21FTM     C531473  12.112  12.135   2.906  0.0907  1.0378  0.1034
   21FTM     C631474  12.256  12.127   2.964  0.0836  1.5179 -0.0186
   21FTM     C731475  12.347  12.004   2.906 -0.4810  0.7071 -0.6365
   21FTM     C831476  12.375  11.980   2.766  0.4366 -1.2917  0.1876
   21FTM     C931477  12.469  11.873   2.719  1.7539  0.0657 -1.8781
   21FTM    C1031478  12.431  11.726   2.688  0.1830 -0.3024  1.1480
   21FTM    C1131479  12.355  12.239   2.994  1.5390 -0.8729  0.6995
   21FTM    C1231480  12.302  12.355   3.086 -1.9221  0.1380  1.2712
   22TPM     C131481  11.638  12.659   2.648  0.6355  1.3911  0.2797
   22TPM     C231482  11.558  12.739   2.572  0.6888  1.4370  0.2726
   22TPM     C331483  11.585  12.729   2.431  0.0979  0.7576  0.1999
   22TPM     C431484  11.684  12.641   2.399 -0.4061  0.1936  0.1516
   22TPM     S131485  11.753  12.564   2.547 -0.1715  0.4790  0.1945
   23BDD     C131486  11.772  12.520   2.037 -0.5878  0.3670 -0.0865
   23BDD     C231487  11.865  12.615   2.069 -0.3907  0.1990 -0.1619
   23BDD     C331488  11.844  12.677   2.198  0.0624 -0.0522  0.0390
   23BDD     C431489  11.734  12.628   2.264  0.2043 -0.0722  0.2648
   23BDD     S131490  11.650  12.502   2.167 -0.2196  0.2221  0.2413
   23BDD     C531491  11.978  12.652   1.981 -0.6117  0.2634 -0.4214
   23BDD     C631492  11.932  12.781   2.253  0.3382 -0.2634 -0.0002
   23BDD     O131493  11.914  12.835   2.364  0.7290 -0.4800  0.1731
   23BDD     O231494  11.997  12.599   1.869 -1.0024  0.4800 -0.5946
   23BDD     C731495  12.045  12.819   2.165  0.1172 -0.1990 -0.2598
   23BDD     C831496  12.067  12.757   2.035 -0.3359  0.0522 -0.4606
   23BDD     C931497  12.177  12.805   1.970 -0.4777  0.0722 -0.6863
   23BDD     S231498  12.261  12.932   2.066 -0.0538 -0.2222 -0.6628
   23BDD    C1031499  12.139  12.913   2.196  0.3143 -0.3670 -0.3351
   23BDD    C1131500  12.134  13.042   2.276  0.3353 -1.4226  0.0797
   23BDD    C1231501  12.200  13.019   2.413 -0.2548  0.1935  0.0267
   23BDD    C1331502  12.328  12.942   2.443  0.4703  0.7030  0.1928
   23BDD    C1431503  12.324  12.822   2.532  1.3166  0.4587 -0.3161
   23BDD    C1531504  12.459  12.780   2.585 -1.0434 -0.4432 -0.5831
   23BDD    C1631505  12.500  12.643   2.631  0.6321  0.8180 -0.9064
   23BDD    C1731506  12.235  13.160   2.479  1.0654  0.6882  0.5054
   23BDD    C1831507  12.249  13.149   2.639  0.5354 -0.8856 -0.3820
   23BDD    C1931508  12.255  12.765   1.842  0.1202 -0.8297 -0.2278
   23BDD    C2031509  12.204  12.840   1.713 -0.9057 -0.8621 -1.1671
   23BDD    C2131510  12.226  12.765   1.581  0.8453  0.7340  1.0216
   23BDD    C2231511  12.095  12.729   1.509 -1.2589 -0.1092  0.6621
   23BDD    C2331512  12.125  12.645   1.377  0.3707  0.3191  0.9763
   23BDD    C2431513  12.188  12.497   1.351 -1.1293  0.1326 -0.6520
   23BDD    C2531514  12.228  12.985   1.704  0.3339 -0.6114  0.6221
   23BDD    C2631515  12.128  13.073   1.619 -0.6563  0.6044 -0.1463
   24TPM     C131516  11.737  12.449   1.915 -0.5621 -0.1435 -0.6878
   24TPM     C231517  11.653  12.506   1.824  0.0523 -0.3554 -1.4103
   24TPM     C331518  11.656  12.443   1.695  0.7453 -0.8361 -1.1711
   24TPM     C431519  11.742  12.338   1.687  0.6592 -0.9906 -0.2661
   24TPM     S131520  11.827  12.310   1.844 -0.3112 -0.5376  0.3589
   25BDTP    C131521  11.816  12.069   1.125  0.3506  0.3836 -0.1894
   25BDTP    C231522  11.936  12.030   1.191  0.0888  0.0874  0.1182
   25BDTP    C331523  11.964  12.065   1.322 -0.2293 -0.1140  0.2403
   25BDTP    C431524  11.868  12.142   1.392 -0.2928 -0.0192  0.0504
   25BDTP    C531525  11.748  12.180   1.326 -0.0310  0.2770 -0.2572
   25BDTP    C631526  11.721  12.146   1.194  0.2871  0.4784 -0.3793
   25BDTP    C731527  11.875  12.190   1.529 -0.6019 -0.1877  0.1259
   25BDTP    C831528  11.767  12.261   1.568 -0.5852 -0.0343 -0.1073
   25BDTP    S131529  11.642  12.279   1.437 -0.1754  0.3453 -0.4552
   25BDTP    C931530  11.810  12.021   0.988  0.6597  0.5521 -0.2648
   25BDTP   C1031531  11.918  11.949   0.949  0.6430  0.3986 -0.0317
   25BDTP    S231532  12.043  11.932   1.080  0.2332  0.0191  0.3162
   26FTM     S131533  12.094  11.820   1.403  0.6145 -0.1909  0.3955
   26FTM     C131534  12.273  11.829   1.419  0.6605 -0.0296 -0.1481
   26FTM     C231535  12.314  11.958   1.406  0.5844 -0.0787 -0.9836
   26FTM     C331536  12.212  12.055   1.383  0.4880 -0.2409 -1.2457
   26FTM     C431537  12.088  11.998   1.378  0.4904 -0.3184 -0.5894
   26FTM     F131538  12.448  11.995   1.415  0.5975  0.0202 -1.5607
   26FTM     C531539  12.354  11.703   1.430 -0.0073 -1.4372  0.5031
   26FTM     C631540  12.425  11.642   1.552 -1.7935  0.0332 -2.3086
   26FTM     C731541  12.571  11.667   1.583 -0.7109 -2.4086  1.1571
   26FTM     C831542  12.665  11.582   1.501 -0.9382  0.3809 -0.4575
   26FTM     C931543  12.686  11.436   1.504 -0.3112 -1.0843 -0.4586
   26FTM    C1031544  12.698  11.359   1.639 -0.8559 -0.4978 -0.8745
   26FTM    C1131545  12.353  11.621   1.698  0.2744 -0.6118 -0.1652
   26FTM    C1231546  12.366  11.744   1.779 -1.3556 -0.1665 -0.8395
   27FTM     S131547  11.433  12.129   1.166 -0.0468  0.4423  0.5891
   27FTM     C131548  11.356  12.254   1.061  0.1460  0.2768  0.2465
   27FTM     C231549  11.452  12.335   1.008  0.2832 -0.0903 -0.0776
   27FTM     C331550  11.587  12.306   1.045  0.2471 -0.2612 -0.0793
   27FTM     C431551  11.596  12.199   1.129  0.0771 -0.0170  0.2544
   27FTM     F131552  11.422  12.441   0.923  0.4494 -0.2934 -0.3921
   27FTM     C531553  11.210  12.270   1.045 -0.1096 -1.3215 -1.4498
   27FTM     C631554  11.091  12.215   1.119  0.3918 -1.3935 -1.3138
   27FTM     C731555  11.055  12.210   1.276  0.1177 -1.5593  0.1691
   27FTM     C831556  11.030  12.071   1.338  0.6497 -0.8915 -0.6956
   27FTM     C931557  10.946  11.963   1.280  0.2606  0.4816  0.5861
   27FTM    C1031558  11.045  11.850   1.247 -0.0519 -1.3391  0.2209
   27FTM    C1131559  10.971  12.264   1.044  1.0364  1.1041  0.4007
   27FTM    C1231560  10.885  12.379   1.052  0.3465 -0.4123 -1.9248
   28TPM     C131561  11.924  11.867   0.828 -0.9003  0.0520 -0.3069
   28TPM     C231562  11.910  11.732   0.815  0.0858 -0.0637 -0.3291
   28TPM     C331563  11.893  11.689   0.678  0.9682 -0.2370 -0.3927
   28TPM     C431564  11.895  11.791   0.588  0.6548 -0.2535 -0.4190
   28TPM     S131565  11.917  11.951   0.669 -0.7903 -0.0498 -0.3650
   29BDD     C131566  11.894  11.745   0.194 -0.0425 -0.4278  0.2770
   29BDD     C231567  11.771  11.795   0.225 -0.0269 -0.3185  0.1636
   29BDD     C331568  11.749  11.810   0.368 -0.0477 -0.0522  0.1344
   29BDD     C431569  11.856  11.770   0.443 -0.0788  0.0377  0.2259
   29BDD     S131570  11.991  11.712   0.341 -0.0842 -0.2048  0.3550
   29BDD     C531571  11.669  11.832   0.125  0.0076 -0.4549  0.0780
   29BDD     C631572  11.623  11.862   0.424 -0.0359  0.1034  0.0168
   29BDD     O131573  11.604  11.875   0.547 -0.0538  0.3330 -0.0084
   29BDD     O231574  11.687  11.819   0.002  0.0255 -0.6845  0.1032
   29BDD     C731575  11.521  11.899   0.324 -0.0013 -0.0330 -0.0689
   29BDD     C831576  11.542  11.884   0.181  0.0194 -0.2993 -0.0397
   29BDD     C931577  11.436  11.924   0.105  0.0505 -0.3892 -0.1312
   29BDD     S231578  11.300  11.982   0.208  0.0559 -0.1467 -0.2602
   29BDD    C1031579  11.397  11.949   0.355  0.0141  0.0763 -0.1822
   29BDD    C1131580  11.327  12.028   0.469  0.1990 -1.0238  0.8174
   29BDD    C1231581  11.202  11.956   0.548 -0.0632 -0.6065 -0.0031
   29BDD    C1331582  11.122  11.833   0.506  0.6775  1.3833  0.3748
   29BDD    C1431583  11.210  11.703   0.467  0.4956 -0.8419  1.0622
   29BDD    C1531584  11.322  11.662   0.552  0.4147  0.0891  0.4868
   29BDD    C1631585  11.344  11.519   0.500  0.7511  0.3680  0.2836
   29BDD    C1731586  11.145  12.084   0.610 -0.1861  0.1081 -0.4051
   29BDD    C1831587  11.010  12.080   0.686  0.3700  0.7583  0.5298
   29BDD    C1931588  11.389  11.939  -0.037 -0.2065  0.4738  0.2600
   29BDD    C2031589  11.291  11.822  -0.080  0.1584  1.1932  0.4561
   29BDD    C2131590  11.348  11.686  -0.126 -0.1636  0.3659  0.7930
   29BDD    C2231591  11.347  11.554  -0.041 -0.1844 -0.2196  1.0542
   29BDD    C2331592  11.446  11.576   0.077 -0.1879 -0.3822  1.2273
   29BDD    C2431593  11.498  11.473   0.178 -0.2567  0.0043  0.6405
   29BDD    C2531594  11.144  11.848  -0.072 -0.2088  0.1246 -1.6546
   29BDD    C2631595  11.039  11.819  -0.174 -0.4497 -0.8151 -0.1667
   30TPM     C131596  11.961  11.702   0.072 -0.0986 -0.2398 -0.0023
   30TPM     C231597  11.942  11.568   0.052 -1.3390 -0.1067  0.1523
   30TPM     C331598  11.937  11.531  -0.087 -1.9895 -0.1929  0.1934
   30TPM     C431599  11.952  11.636  -0.173 -1.2451 -0.3917  0.0696
   30TPM     S131600  11.975  11.792  -0.084  0.3475 -0.4862 -0.1092
   31BDTP    C131601  11.700  11.679  -0.737 -0.2193 -0.2659  0.1812
   31BDTP    C231602  11.710  11.815  -0.697 -0.0982 -0.2712  0.1695
   31BDTP    C331603  11.770  11.854  -0.578 -0.0106 -0.3093  0.1390
   31BDTP    C431604  11.821  11.754  -0.494 -0.0438 -0.3439  0.1187
   31BDTP    C531605  11.812  11.618  -0.534 -0.1649 -0.3387  0.1297
   31BDTP    C631606  11.752  11.579  -0.653 -0.2525 -0.3005  0.1604
   31BDTP    C731607  11.887  11.770  -0.366  0.0311 -0.3864  0.0855
   31BDTP    C831608  11.926  11.654  -0.308 -0.0271 -0.4130  0.0718
   31BDTP    S131609  11.886  11.508  -0.408 -0.1850 -0.3879  0.0987
   31BDTP    C931610  11.635  11.663  -0.866 -0.2942 -0.2234  0.2139
   31BDTP   C1031611  11.596  11.779  -0.923 -0.2360 -0.1969  0.2275
   31BDTP    S231612  11.636  11.925  -0.823 -0.0781 -0.2219  0.2007
   32FTM     S131613  11.634  12.097  -0.589 -0.1439  0.4147  0.5166
   32FTM     C131614  11.710  12.248  -0.527  0.7046  0.3797 -0.3942
   32FTM     C231615  11.834  12.220  -0.478  0.7486  0.0755 -0.6673
   32FTM     C331616  11.876  12.083  -0.485  0.1400 -0.1435 -0.1962
   32FTM     C431617  11.781  12.003  -0.542 -0.3873 -0.0024  0.4584
   32FTM     F131618  11.917  12.317  -0.423  1.3427 -0.0226 -1.3599
   32FTM     C531619  11.637  12.367  -0.566  0.0733 -0.6758 -0.0965
   32FTM     C631620  11.649  12.414  -0.717  0.5940 -0.2347 -0.9731
   32FTM     C731621  11.792  12.432  -0.756  0.6453 -1.4120  0.0462
   32FTM     C831622  11.815  12.552  -0.860 -0.2591 -0.8105  0.3461
   32FTM     C931623  11.943  12.573  -0.929 -0.5651 -0.5095  0.5916
   32FTM    C1031624  11.922  12.709  -0.988 -0.2223 -0.9978  0.6983
   32FTM    C1131625  11.572  12.339  -0.841  0.1083 -0.4837  0.1498
   32FTM    C1231626  11.418  12.314  -0.831 -0.4358  1.4207  0.3522
   33FTM     S131627  11.882  11.330  -0.718  0.0773 -0.1785 -0.8157
   33FTM     C131628  11.771  11.191  -0.746 -0.2889 -0.0013 -0.2681
   33FTM     C231629  11.642  11.233  -0.738 -0.1875  0.1850  0.4714
   33FTM     C331630  11.622  11.372  -0.709  0.1724  0.2012  0.6530
   33FTM     C431631  11.740  11.439  -0.696  0.3525  0.0213  0.0320
   33FTM     F131632  11.533  11.148  -0.755 -0.4146  0.3524  1.0283
   33FTM     C531633  11.834  11.056  -0.759  0.9516  0.9313 -0.3763
   33FTM     C631634  11.757  10.914  -0.764  0.2509 -0.1416 -1.2124
   33FTM     C731635  11.646  10.865  -0.871  0.0509  0.2616 -0.3204
   33FTM     C831636  11.719  10.822  -0.993  1.0590  0.7393  0.8482
   33FTM     C931637  11.622  10.720  -1.062 -0.5274 -0.6016 -0.2078
   33FTM    C1031638  11.622  10.666  -1.211 -0.7222 -0.2127 -0.9671
   33FTM    C1131639  11.816  10.789  -0.688 -0.9007 -0.1412 -0.3015
   33FTM    C1231640  11.728  10.702  -0.618  0.0510 -0.3210 -1.0419
   34TPM     C131641  11.527  11.813  -1.052  0.6460  0.0629  0.0017
   34TPM     C231642  11.560  11.743  -1.164  1.2752  0.1066  0.1526
   34TPM     C331643  11.558  11.823  -1.284  1.3107  0.0062  0.0858
   34TPM     C431644  11.524  11.953  -1.264  0.7087 -0.1140 -0.1158
   34TPM     S131645  11.491  11.986  -1.090  0.0450 -0.1097 -0.2384
   35BDD     C131646  11.321  12.160  -1.529 -0.2357  0.3173 -0.2729
   35BDD     C231647  11.452  12.171  -1.566 -0.2038  0.1538 -0.2081
   35BDD     C331648  11.543  12.098  -1.478 -0.3603 -0.1606 -0.3064
   35BDD     C431649  11.479  12.033  -1.377 -0.5092 -0.2323 -0.4444
   35BDD     S131650  11.302  12.058  -1.383 -0.4640  0.0888 -0.4616
   35BDD     C531651  11.500  12.249  -1.682 -0.0284  0.2806 -0.0539
   35BDD     C631652  11.689  12.096  -1.499 -0.3562 -0.3784 -0.2594
   35BDD     O131653  11.767  12.033  -1.424 -0.4911 -0.6495 -0.3440
   35BDD     O231654  11.422  12.312  -1.757  0.1063  0.5517  0.0308
   35BDD     C731655  11.736  12.173  -1.616 -0.1807 -0.2516 -0.1047
   35BDD     C831656  11.646  12.246  -1.703 -0.0243  0.0628 -0.0067
   35BDD     C931657  11.710  12.312  -1.805  0.1247  0.1345  0.1314
   35BDD     S231658  11.887  12.286  -1.799  0.0795 -0.1867  0.1483
   35BDD    C1031659  11.868  12.184  -1.653 -0.1488 -0.4151 -0.0403
   35BDD    C1131660  12.006  12.116  -1.620  0.7794  0.1930 -0.1192
   35BDD    C1231661  12.058  11.984  -1.682  0.9016 -0.2209 -0.3422
   35BDD    C1331662  12.206  11.947  -1.699 -0.0352 -0.0528 -0.4957
   35BDD    C1431663  12.267  11.942  -1.562  0.1757  1.5438 -0.4700
   35BDD    C1531664  12.426  11.929  -1.564  1.4543  0.8947  0.6841
   35BDD    C1631665  12.481  11.975  -1.423  0.4659 -0.2356  0.5955
   35BDD    C1731666  11.983  11.944  -1.806  0.5011  0.7231  2.2251
   35BDD    C1831667  12.030  12.012  -1.935 -0.2929 -0.0748  0.3948
   35BDD    C1931668  11.662  12.402  -1.932 -0.0835  0.4199 -0.6448
   35BDD    C2031669  11.728  12.379  -2.070  0.4132 -0.3530 -0.2801
   35BDD    C2131670  11.648  12.266  -2.143  0.5371 -0.7410  0.3518
   35BDD    C2231671  11.716  12.191  -2.269 -0.4127 -0.8683  0.2178
   35BDD    C2331672  11.766  12.275  -2.393 -1.0786  0.7481 -0.2315
   35BDD    C2431673  11.725  12.200  -2.527 -0.0515  0.8066 -1.1739
   35BDD    C2531674  11.837  12.485  -2.133  0.8251 -0.1698 -0.2935
   35BDD    C2631675  11.753  12.595  -2.191 -0.3566 -0.5865 -0.1824
   36TPM     C131676  11.195  12.213  -1.580  0.0029  0.4865 -0.2923
   36TPM     C231677  11.122  12.290  -1.495  0.5386  1.0669 -0.3476
   36TPM     C331678  11.001  12.342  -1.553  0.5436  1.2857 -0.1657
   36TPM     C431679  10.981  12.304  -1.682  0.0117  0.8721  0.0284
   36TPM     S131680  11.115  12.199  -1.741 -0.5416  0.1687 -0.0042
   37BDTP    C131681  10.458  12.502  -1.979  0.2770 -0.0161 -0.3123
   37BDTP    C231682  10.542  12.463  -2.087  0.3049 -0.1876 -0.2303
   37BDTP    C331683  10.671  12.417  -2.069  0.3190 -0.1091 -0.1271
   37BDTP    C431684  10.721  12.408  -1.938  0.3054  0.1506 -0.1032
   37BDTP    C531685  10.637  12.446  -1.829  0.2778  0.3222 -0.1853
   37BDTP    C631686  10.507  12.493  -1.847  0.2639  0.2437 -0.2883
   37BDTP    C731687  10.851  12.362  -1.894  0.3157  0.2761 -0.0026
   37BDTP    C831688  10.869  12.365  -1.760  0.2980  0.5304 -0.0043
   37BDTP    S131689  10.723  12.426  -1.670  0.2649  0.6466 -0.1342
   37BDTP    C931690  10.327  12.548  -2.022  0.2668 -0.1416 -0.4129
   37BDTP   C1031691  10.309  12.545  -2.156  0.2849 -0.3958 -0.4113
   37BDTP    S231692  10.455  12.484  -2.247  0.3179 -0.5120 -0.2811
   38FTM     S131693  10.754  12.463  -2.337 -0.4322 -0.4403 -0.1659
   38FTM     C131694  10.866  12.339  -2.406  1.4791  0.2207  1.5444
   38FTM     C231695  10.883  12.237  -2.317  1.6377  0.8558  2.2578
   38FTM     C331696  10.812  12.250  -2.193  0.3152  0.8669  1.5352
   38FTM     C431697  10.738  12.364  -2.187 -0.8965  0.2190  0.2258
   38FTM     F131698  10.963  12.127  -2.342  2.9905  1.4649  3.6073
   38FTM     C531699  10.913  12.355  -2.553  0.3011 -0.1933 -0.3226
   38FTM     C631700  11.066  12.339  -2.601  1.1871 -0.1496 -1.0225
   38FTM     C731701  11.094  12.317  -2.752  0.4212  0.4350 -0.3869
   38FTM     C831702  11.027  12.405  -2.860 -0.0702  0.3775  0.6943
   38FTM     C931703  11.068  12.349  -3.003  1.2228  0.4115 -0.2396
   38FTM    C1031704  11.205  12.375  -3.022  0.2924 -0.0430 -0.5779
   38FTM    C1131705  11.181  12.261  -2.521  1.1784 -0.0040 -0.8174
   38FTM    C1231706  11.262  12.371  -2.453  0.5307  0.1819 -0.0169
   39FTM     S131707  10.375  12.638  -1.621 -0.3810  0.2325  0.1557
   39FTM     C131708  10.252  12.537  -1.537 -0.0098 -0.1738  0.2193
   39FTM     C231709  10.246  12.414  -1.594  0.4861 -0.2537  0.3328
   39FTM     C331710  10.335  12.391  -1.704  0.6042 -0.0098  0.3757
   39FTM     C431711  10.412  12.500  -1.732  0.1858  0.2659  0.2926
   39FTM     F131712  10.160  12.314  -1.550  0.8621 -0.5525  0.4046
   39FTM     C531713  10.177  12.578  -1.419  0.2792  1.1051  0.4517
   39FTM     C631714  10.225  12.639  -1.290  0.1432 -0.2922  0.8132
   39FTM     C731715  10.100  12.699  -1.230  0.7765 -1.0105  0.8970
   39FTM     C831716  10.074  12.846  -1.255 -0.6411 -0.8325 -1.1671
   39FTM     C931717  10.180  12.934  -1.182 -0.8297 -0.4655 -0.1366
   39FTM    C1031718  10.198  12.905  -1.029  0.7507 -0.4096 -0.1879
   39FTM    C1131719  10.326  12.575  -1.195  0.3234 -0.9961 -0.6930
   39FTM    C1231720  10.267  12.458  -1.124  0.2341  0.0604 -0.2377
   40TPM     C131721  10.185  12.556  -2.226  0.2451 -0.5467 -0.0394
   40TPM     C231722  10.158  12.649  -2.321  0.7253 -0.4094 -0.0498
   40TPM     C331723  10.018  12.660  -2.353  0.8028  0.1364 -0.2279
   40TPM     C431724   9.939  12.575  -2.281  0.3820  0.4154 -0.3524
   40TPM     S131725  10.036  12.473  -2.168 -0.1493  0.0071 -0.2545
   41BDD     C131726   9.584  12.659  -2.142  0.1569  0.4680 -0.3324
   41BDD     C231727   9.565  12.648  -2.277  0.0463  0.1810 -0.2959
   41BDD     C331728   9.687  12.618  -2.349 -0.0772 -0.3257 -0.2983
   41BDD     C431729   9.797  12.606  -2.268 -0.0592 -0.4176 -0.3359
   41BDD     S131730   9.755  12.632  -2.096  0.1137  0.1238 -0.3717
   41BDD     C531731   9.435  12.666  -2.344  0.0498  0.3619 -0.2582
   41BDD     C631732   9.691  12.602  -2.496 -0.2086 -0.7003 -0.2625
   41BDD     O131733   9.796  12.576  -2.559 -0.3152 -1.1372 -0.2642
   41BDD     O231734   9.330  12.692  -2.281  0.1564  0.7988 -0.2565
   41BDD     C731735   9.560  12.619  -2.563 -0.2046 -0.5193 -0.2241
   41BDD     C831736   9.438  12.650  -2.491 -0.0811 -0.0126 -0.2222
   41BDD     C931737   9.329  12.662  -2.572 -0.0992  0.0793 -0.1843
   41BDD     S231738   9.371  12.636  -2.744 -0.2722 -0.4622 -0.1483
   41BDD    C1031739   9.542  12.609  -2.698 -0.3150 -0.8064 -0.1879
   41BDD    C1131740   9.621  12.575  -2.817  0.0892 -0.9250  0.8983
   41BDD    C1231741   9.596  12.469  -2.937  0.3284  0.1809  0.0159
   41BDD    C1331742   9.478  12.502  -3.026  1.0467  0.5039  0.1316
   41BDD    C1431743   9.498  12.624  -3.106 -1.0824  0.8935  0.5891
   41BDD    C1531744   9.540  12.584  -3.253  0.3109  0.3401 -0.3375
   41BDD    C1631745   9.676  12.524  -3.291  0.2356 -0.2413 -0.8211
   41BDD    C1731746   9.573  12.324  -2.892  1.8834 -0.3976  0.4250
   41BDD    C1831747   9.660  12.252  -2.794 -0.4701  0.9314  0.2117
   41BDD    C1931748   9.188  12.716  -2.553  0.6026  1.2012  0.2301
   41BDD    C2031749   9.156  12.835  -2.644  0.8046 -1.1214  0.3426
   41BDD    C2131750   9.225  12.960  -2.586  0.3698 -0.1784 -0.4489
   41BDD    C2231751   9.194  13.090  -2.676  1.2958  0.8762 -0.4017
   41BDD    C2331752   9.157  13.220  -2.598 -0.3966 -0.5181 -0.0439
   41BDD    C2431753   9.210  13.320  -2.700 -0.2581  0.3965  0.2395
   41BDD    C2531754   8.993  12.848  -2.650 -0.5063  0.0548 -0.4676
   41BDD    C2631755   8.920  12.866  -2.517  1.0766 -0.6098 -1.1973
   42TPM     C131756   9.499  12.671  -2.016 -0.0481 -0.0611  0.3988
   42TPM     C231757   9.418  12.776  -1.985  0.4356  0.0982  1.1919
   42TPM     C331758   9.317  12.745  -1.888  0.5484 -0.0536  1.2617
   42TPM     C431759   9.320  12.616  -1.844  0.1504 -0.3288  0.5222
   42TPM     S131760   9.453  12.523  -1.923 -0.4014 -0.4182 -0.3265
   43BDTP    C131761   8.923  12.281  -1.502 -1.0111  0.1973 -0.1738
   43BDTP    C231762   8.909  12.409  -1.441 -0.6878  0.1040  0.1025
   43BDTP    C331763   8.979  12.520  -1.484 -0.3405  0.0037  0.3994
   43BDTP    C431764   9.068  12.505  -1.592 -0.3097 -0.0052  0.4253
   43BDTP    C531765   9.082  12.377  -1.653 -0.6330  0.0881  0.1493
   43BDTP    C631766   9.011  12.266  -1.610 -0.9803  0.1884 -0.1473
   43BDTP    C731767   9.151  12.606  -1.654  0.0204 -0.1004  0.7068
   43BDTP    C831768   9.226  12.561  -1.757 -0.0389 -0.0833  0.6566
   43BDTP    S131769   9.202  12.384  -1.791 -0.5212  0.0557  0.2446
   43BDTP    C931770   8.840  12.179  -1.440 -1.3411  0.2925 -0.4556
   43BDTP   C1031771   8.765  12.225  -1.337 -1.2815  0.2754 -0.4048
   43BDTP    S231772   8.789  12.402  -1.303 -0.7999  0.1363  0.0069
   44FTM     S131773   8.936  12.789  -1.518  0.2086  0.2017 -0.0758
   44FTM     C131774   8.922  12.896  -1.374 -0.2250  0.2248 -0.1323
   44FTM     C231775   8.941  12.823  -1.260 -0.2422  0.3022 -0.0801
   44FTM     C331776   8.966  12.683  -1.278  0.0732  0.3472  0.0055
   44FTM     C431777   8.967  12.648  -1.410  0.3407  0.3028  0.0190
   44FTM     F131778   8.935  12.879  -1.133 -0.5445  0.3369 -0.1063
   44FTM     C531779   8.868  13.031  -1.396  0.9685 -0.6378  0.5228
   44FTM     C631780   8.918  13.140  -1.486 -0.5993 -1.1186  0.5845
   44FTM     C731781   8.807  13.251  -1.518 -0.0312  0.4991 -0.2197
   44FTM     C831782   8.698  13.293  -1.422  0.7481 -0.3895  0.6598
   44FTM     C931783   8.737  13.389  -1.296  0.5264  0.2799  0.5709
   44FTM    C1031784   8.640  13.361  -1.180  0.2361  0.7924 -0.7148
   44FTM    C1131785   9.059  13.209  -1.478 -1.7259 -0.4290 -0.0440
   44FTM    C1231786   9.103  13.249  -1.342  0.9518 -0.9922 -1.2813
   45FTM     S131787   9.157  12.032  -1.567  0.1269  0.1940 -0.1975
   45FTM     C131788   9.144  11.907  -1.696 -0.5738 -0.4077  0.4351
   45FTM     C231789   9.068  11.954  -1.799 -0.7255 -0.6983  0.4115
   45FTM     C331790   9.017  12.087  -1.783 -0.3166 -0.4761 -0.0882
   45FTM     C431791   9.054  12.143  -1.665  0.1644  0.0001 -0.4591
   45FTM     F131792   9.040  11.880  -1.912 -1.2438 -1.1828  0.8409
   45FTM     C531793   9.177  11.756  -1.679 -1.1808 -0.8905 -1.1029
   45FTM     C631794   9.103  11.637  -1.665  1.7167  1.2504 -0.4964
   45FTM     C731795   9.174  11.494  -1.677  0.7734  0.2395 -1.0422
   45FTM     C831796   9.207  11.479  -1.828 -1.8989  0.4164  0.4974
   45FTM     C931797   9.209  11.335  -1.876 -1.3652  0.3012  0.0582
   45FTM    C1031798   9.257  11.359  -2.028  1.7379  1.1375 -0.3762
   45FTM    C1131799   8.952  11.640  -1.623  0.4040  0.5038 -1.2283
   45FTM    C1231800   8.942  11.691  -1.484 -0.2892 -0.5674 -1.1719
   46TPM     C131801   8.704  12.159  -1.234  0.1181 -0.3272  0.1923
   46TPM     C231802   8.740  12.039  -1.180 -0.1144 -0.5591 -0.1631
   46TPM     C331803   8.647  11.990  -1.082 -0.1321 -0.5965 -0.1986
   46TPM     C431804   8.540  12.072  -1.061  0.0866 -0.3932  0.1288
   46TPM     S131805   8.549  12.220  -1.164  0.3338 -0.1366  0.5111
   47BDD     C131806   8.274  12.152  -0.793  0.1213  0.1610 -0.1076
   47BDD     C231807   8.280  12.016  -0.797  0.1128  0.1613 -0.1287
   47BDD     C331808   8.384  11.965  -0.884  0.2370  0.1689  0.0145
   47BDD     C431809   8.457  12.063  -0.946  0.3387  0.1744  0.1428
   47BDD     S131810   8.400  12.226  -0.898  0.2859  0.1703  0.0932
   47BDD     C531811   8.189  11.927  -0.721 -0.0100  0.1545 -0.2813
   47BDD     C631812   8.408  11.820  -0.904  0.2508  0.1705  0.0188
   47BDD     O131813   8.497  11.776  -0.979  0.3581  0.1771  0.1426
   47BDD     O231814   8.099  11.971  -0.646 -0.1171  0.1479 -0.4048
   47BDD     C731815   8.317  11.732  -0.827  0.1283  0.1637 -0.1338
   47BDD     C831816   8.213  11.783  -0.740  0.0036  0.1561 -0.2770
   47BDD     C931817   8.140  11.684  -0.679 -0.0978  0.1506 -0.4051
   47BDD     S231818   8.197  11.521  -0.726 -0.0447  0.1547 -0.3556
   47BDD    C1031819   8.322  11.595  -0.831  0.1197  0.1640 -0.1547
   47BDD    C1131820   8.385  11.502  -0.915 -0.8417  0.1644  0.8152
   47BDD    C1231821   8.483  11.415  -0.830 -0.6393 -0.3577  0.5169
   47BDD    C1331822   8.578  11.502  -0.727  0.2134  0.8072  0.9104
   47BDD    C1431823   8.691  11.563  -0.788 -1.1344  0.2307 -0.4323
   47BDD    C1531824   8.823  11.492  -0.731 -0.4242 -1.0826  0.9340
   47BDD    C1631825   8.865  11.492  -0.591  0.1227  0.3916  0.2716
   47BDD    C1731826   8.537  11.285  -0.884  0.4376  1.1659  0.9882
   47BDD    C1831827   8.460  11.217  -1.011  0.4513 -0.6648 -0.8993
   47BDD    C1931828   8.005  11.662  -0.620 -0.0029  0.4909 -0.8830
   47BDD    C2031829   7.897  11.771  -0.652  0.1505 -0.0240 -1.3711
   47BDD    C2131830   7.834  11.806  -0.786  0.3058 -0.8409  0.1823
   47BDD    C2231831   7.686  11.817  -0.808 -0.3738 -0.9366  0.4913
   47BDD    C2331832   7.685  11.800  -0.958  0.1677  0.5538 -0.0750
   47BDD    C2431833   7.645  11.658  -0.989  1.2968  0.6143 -0.7146
   47BDD    C2531834   7.826  11.843  -0.540  0.2096 -0.4969 -0.6822
   47BDD    C2631835   7.895  11.859  -0.405  1.4239 -0.0616 -0.6167
   48TPM     C131836   8.204  12.245  -0.726  0.3552 -0.3928 -0.3740
   48TPM     C231837   8.152  12.229  -0.601  0.2027 -0.6333 -0.4654
   48TPM     C331838   8.105  12.352  -0.542 -0.4966 -0.8535 -0.5558
   48TPM     C431839   8.120  12.461  -0.623 -0.8772 -0.7809 -0.5327
   48TPM     S131840   8.196  12.417  -0.780 -0.3782 -0.4260 -0.3947
   49BDTP    C131841   7.945  13.064  -0.601  0.0229 -0.3709 -0.0629
   49BDTP    C231842   7.993  13.039  -0.470  0.0403 -0.3934 -0.0737
   49BDTP    C331843   8.038  12.914  -0.429 -0.0663 -0.4294 -0.0656
   49BDTP    C431844   8.036  12.809  -0.523 -0.1967 -0.4441 -0.0465
   49BDTP    C531845   7.988  12.835  -0.655 -0.2140 -0.4217 -0.0355
   49BDTP    C631846   7.943  12.960  -0.695 -0.1071 -0.3856 -0.0436
   49BDTP    C731847   8.077  12.671  -0.504 -0.3223 -0.4807 -0.0347
   49BDTP    C831848   8.063  12.594  -0.614 -0.4323 -0.4868 -0.0167
   49BDTP    S131849   7.995  12.684  -0.757 -0.3914 -0.4470 -0.0107
   49BDTP    C931850   7.904  13.202  -0.620  0.1487 -0.3343 -0.0739
   49BDTP   C1031851   7.918  13.280  -0.510  0.2584 -0.3282 -0.0923
   49BDTP    S231852   7.986  13.190  -0.368  0.2176 -0.3680 -0.0981
   50FTM     S131853   8.268  12.841  -0.258 -0.0896  0.1622 -0.2327
   50FTM     C131854   8.233  12.817  -0.082  0.4461  0.3064 -0.1030
   50FTM     C231855   8.101  12.839  -0.058  0.4759  0.1191  0.2463
   50FTM     C331856   8.021  12.875  -0.172  0.0937 -0.1416  0.4301
   50FTM     C431857   8.094  12.880  -0.287 -0.2400 -0.1543  0.2146
   50FTM     F131858   8.044  12.829   0.068  0.8514  0.1727  0.4208
   50FTM     C531859   8.344  12.798   0.011  0.3253 -0.0526  0.0573
   50FTM     C631860   8.494  12.812  -0.000  1.3564  0.0772  1.6024
   50FTM     C731861   8.555  12.717   0.104 -0.4807 -1.6076 -0.5583
   50FTM     C831862   8.704  12.698   0.135 -0.1757  0.9253  0.2681
   50FTM     C931863   8.765  12.587   0.226  0.1786  0.2085  1.3082
   50FTM    C1031864   8.750  12.439   0.187  0.8480  0.3444  0.5779
   50FTM    C1131865   8.518  12.960   0.012 -0.0530 -0.8975 -0.7344
   50FTM    C1231866   8.662  13.028   0.047  1.7434  0.0092  1.2594
   51FTM     S131867   7.989  13.015  -0.960 -0.1730 -0.0408  0.0619
   51FTM     C131868   7.853  13.004  -1.077 -0.0177  0.2953 -0.1547
   51FTM     C231869   7.736  12.982  -1.011 -0.1553  0.4293 -0.3500
   51FTM     C331870   7.746  12.973  -0.868 -0.3842  0.2824 -0.3431
   51FTM     C431871   7.874  12.989  -0.824 -0.4232  0.0275 -0.1355
   51FTM     F131872   7.614  12.969  -1.075 -0.0820  0.6929 -0.5467
   51FTM     C531873   7.902  12.991  -1.224 -0.9960  0.4291 -0.9987
   51FTM     C631874   7.834  13.004  -1.365  0.4098 -0.6352 -0.3399
   51FTM     C731875   7.787  13.151  -1.426  0.0270  0.3263  0.5853
   51FTM     C831876   7.878  13.209  -1.548  1.0103 -0.0410 -0.3471
   51FTM     C931877   7.867  13.148  -1.675  0.4409  0.3773  0.5282
   51FTM    C1031878   7.867  13.231  -1.798 -0.4439  0.5438 -0.2085
   51FTM    C1131879   7.736  12.900  -1.407  0.3468  0.3077 -0.0140
   51FTM    C1231880   7.783  12.754  -1.377  0.1223 -0.2660 -0.9690
   52TPM     C131881   7.867  13.414  -0.482 -0.1708  0.2397  0.0518
   52TPM     C231882   7.876  13.473  -0.359 -0.1661  0.7368 -0.1795
   52TPM     C331883   7.856  13.615  -0.361  0.1453  0.7781 -0.7946
   52TPM     C431884   7.832  13.666  -0.486  0.3778  0.3126 -1.0326
   52TPM     S131885   7.833  13.536  -0.611  0.2205 -0.2182 -0.4939
   53BDD     C131886   7.664  14.028  -0.491  0.0437 -0.3111 -0.0238
   53BDD     C231887   7.751  14.024  -0.596  0.1612 -0.0887  0.0610
   53BDD     C331888   7.821  13.897  -0.608  0.5348  0.1063  0.1585
   53BDD     C431889   7.786  13.807  -0.511  0.6968  0.0295  0.1456
   53BDD     S131890   7.664  13.875  -0.398  0.3929 -0.2919  0.0117
   53BDD     C531891   7.773  14.135  -0.691 -0.0659 -0.0472  0.0565
   53BDD     C631892   7.919  13.870  -0.714  0.7172  0.3616  0.2604
   53BDD     O131893   7.980  13.760  -0.724  1.0394  0.5297  0.3443
   53BDD     O231894   7.712  14.244  -0.681 -0.3881 -0.2153 -0.0274
   53BDD     C731895   7.941  13.981  -0.809  0.4902  0.4032  0.2553
   53BDD     C831896   7.871  14.108  -0.797  0.1166  0.2082  0.1578
   53BDD     C931897   7.906  14.198  -0.894 -0.0454  0.2849  0.1707
   53BDD     S231898   8.028  14.130  -1.006  0.2583  0.6065  0.3051
   53BDD    C1031899   8.028  13.976  -0.914  0.6075  0.6257  0.3407
   53BDD    C1131900   8.068  13.843  -0.990 -0.1529 -0.7939  1.3027
   53BDD    C1231901   8.006  13.797  -1.124  0.7872  0.1476 -0.5227
   53BDD    C1331902   8.094  13.718  -1.218 -0.0442  0.3949 -1.2913
   53BDD    C1431903   8.056  13.616  -1.317  1.0811 -1.1044  0.3220
   53BDD    C1531904   7.969  13.677  -1.445 -1.2616  0.2953  0.9091
   53BDD    C1631905   7.944  13.565  -1.562  0.2175 -1.1746  0.0019
   53BDD    C1731906   7.869  13.720  -1.105 -0.4756  0.2103 -1.0081
   53BDD    C1831907   7.859  13.601  -0.996  0.2394 -0.7716  0.2051
   53BDD    C1931908   7.847  14.334  -0.917  0.2379  0.6462  0.7256
   53BDD    C2031909   7.946  14.445  -0.868 -0.0739 -0.3330 -0.0872
   53BDD    C2131910   7.882  14.579  -0.868  0.6814 -0.8506  0.5542
   53BDD    C2231911   7.950  14.710  -0.921  0.4855 -0.5022 -0.7614
   53BDD    C2331912   7.983  14.714  -1.067  1.3086 -0.0463  0.9271
   53BDD    C2431913   7.883  14.754  -1.170  0.2237  0.8809 -0.7761
   53BDD    C2531914   8.041  14.411  -0.744 -0.5592  1.1549  1.1031
   53BDD    C2631915   7.997  14.463  -0.610 -0.3572 -0.6624 -0.1506
   54TPM     C131916   7.551  14.121  -0.442 -0.8086  0.6814 -0.7632
   54TPM     C231917   7.585  14.239  -0.382 -0.9396  0.7628 -0.8502
   54TPM     C331918   7.472  14.312  -0.329 -0.9532  0.3560 -0.3049
   54TPM     C431919   7.353  14.249  -0.348 -0.8330 -0.0356  0.1975
   54TPM     S131920   7.373  14.092  -0.435 -0.6917  0.0800  0.0199
   55BDTP    C131921   6.828  14.565  -0.181 -0.3035 -0.1079 -0.3846
   55BDTP    C231922   6.779  14.434  -0.205 -0.2259 -0.1594 -0.2637
   55BDTP    C331923   6.862  14.329  -0.246 -0.1781 -0.1294 -0.2441
   55BDTP    C431924   6.999  14.356  -0.264 -0.2080 -0.0446 -0.3486
   55BDTP    C531925   7.047  14.488  -0.240 -0.2856  0.0069 -0.4694
   55BDTP    C631926   6.965  14.592  -0.199 -0.3335 -0.0231 -0.4890
   55BDTP    C731927   7.103  14.265  -0.306 -0.1693  0.0005 -0.3511
   55BDTP    C831928   7.226  14.320  -0.314 -0.2136  0.0824 -0.4668
   55BDTP    S131929   7.227  14.497  -0.270 -0.3105  0.1138 -0.5882
   55BDTP    C931930   6.724  14.657  -0.139 -0.3421 -0.1531 -0.3817
   55BDTP   C1031931   6.601  14.601  -0.131 -0.2979 -0.2349 -0.2661
   55BDTP    S231932   6.600  14.425  -0.175 -0.2011 -0.2664 -0.1448
   56FTM     S131933   6.855  14.061  -0.157  0.0708 -0.0164 -0.0357
   56FTM     C131934   6.745  13.943  -0.237 -1.2443  0.5144  0.9273
   56FTM     C231935   6.674  14.005  -0.336 -1.6366  0.7998  1.3778
   56FTM     C331936   6.701  14.145  -0.355 -0.9549  0.6274  1.0109
   56FTM     C431937   6.795  14.191  -0.268 -0.0099  0.1958  0.2545
   56FTM     F131938   6.581  13.939  -0.414 -2.6364  1.2343  2.1496
   56FTM     C531939   6.767  13.795  -0.218 -0.6879 -0.7144  0.2164
   56FTM     C631940   6.877  13.705  -0.272  0.0003  0.8452 -1.8066
   56FTM     C731941   7.019  13.769  -0.273  0.4206 -0.1700  0.1574
   56FTM     C831942   7.038  13.873  -0.396  0.9597  1.0407  0.0660
   56FTM     C931943   7.041  13.818  -0.545  0.5547 -1.7090 -0.1852
   56FTM    C1031944   7.042  13.910  -0.666 -0.9556 -0.6983 -0.3288
   56FTM    C1131945   6.884  13.570  -0.185 -1.0385  0.8002  0.1883
   56FTM    C1231946   6.911  13.448  -0.281  0.5638  0.8132 -1.2378
   57FTM     S131947   7.141  14.759  -0.038 -0.9154  0.0043  0.4885
   57FTM     C131948   7.140  14.935  -0.079  0.5981 -0.1621 -0.4169
   57FTM     C231949   7.053  14.958  -0.181  1.3152 -0.0141 -1.0107
   57FTM     C331950   6.983  14.844  -0.232  0.7452  0.2319 -0.8032
   57FTM     C431951   7.018  14.729  -0.168 -0.4473  0.2735 -0.0251
   57FTM     F131952   7.031  15.085  -0.233  2.5307 -0.0926 -1.7774
   57FTM     C531953   7.243  15.039  -0.028  0.6288 -1.0055 -0.1263
   57FTM     C631954   7.260  15.046   0.139  0.7196 -1.6794  0.4468
   57FTM     C731955   7.334  15.166   0.192  0.7626 -1.2524  1.7961
   57FTM     C831956   7.486  15.193   0.141  1.2951 -1.9370  0.4487
   57FTM     C931957   7.555  15.063   0.127 -0.0808 -1.3404 -1.5515
   57FTM    C1031958   7.692  15.116   0.092 -0.3337 -0.5575  0.1330
   57FTM    C1131959   7.150  15.004   0.228  0.6232 -0.0720 -0.4625
   57FTM    C1231960   7.158  14.993   0.372 -0.9441 -0.5632 -1.7740
   58TPM     C131961   6.472  14.663  -0.102 -0.9067 -0.4774  0.0933
   58TPM     C231962   6.428  14.636   0.025 -1.2034 -0.7882 -0.0751
   58TPM     C331963   6.324  14.724   0.071 -0.8998 -0.5302  0.1180
   58TPM     C431964   6.289  14.820  -0.020 -0.3714 -0.0226  0.4330
   58TPM     S131965   6.385  14.805  -0.172 -0.2152  0.1703  0.5113
   59BDD     C131966   6.025  15.094   0.096 -0.3868 -0.1280  0.7532
   59BDD     C231967   6.145  15.128   0.153 -0.3548  0.0082  0.6093
   59BDD     C331968   6.254  15.040   0.114 -0.2903  0.1647  0.4368
   59BDD     C431969   6.216  14.941   0.027 -0.2740  0.1455  0.4516
   59BDD     S131970   6.042  14.951  -0.011 -0.3382 -0.0698  0.6826
   59BDD     C531971   6.163  15.241   0.246 -0.3825 -0.0004  0.6253
   59BDD     C631972   6.392  15.058   0.164 -0.2472  0.3275  0.2635
   59BDD     O131973   6.486  14.983   0.131 -0.1916  0.4625  0.1148
   59BDD     O231974   6.069  15.316   0.280 -0.4381 -0.1353  0.7741
   59BDD     C731975   6.410  15.171   0.257 -0.2750  0.3189  0.2795
   59BDD     C831976   6.301  15.259   0.296 -0.3395  0.1625  0.4520
   59BDD     C931977   6.339  15.357   0.383 -0.3558  0.1818  0.4373
   59BDD     S231978   6.513  15.348   0.422 -0.2916  0.3970  0.2064
   59BDD    C1031979   6.530  15.205   0.315 -0.2431  0.4552  0.1357
   59BDD    C1131980   6.662  15.156   0.333 -0.1340  0.0435 -0.0491
   59BDD    C1231981   6.721  15.044   0.417  0.1676  0.5537 -1.3413
   59BDD    C1331982   6.799  14.920   0.353  0.1044 -0.0089  1.2830
   59BDD    C1431983   6.725  14.792   0.297  0.1760  0.3208  0.7112
   59BDD    C1531984   6.800  14.663   0.351  1.7980  0.7083  0.3852
   59BDD    C1631985   6.706  14.539   0.326 -0.6350 -1.7892 -0.8405
   59BDD    C1731986   6.665  15.042   0.573 -0.5813  1.7328 -0.0825
   59BDD    C1831987   6.686  15.165   0.669  1.2540 -0.2830  1.2015
   59BDD    C1931988   6.260  15.466   0.456  0.1863  0.9321  0.2014
   59BDD    C2031989   6.263  15.472   0.607  1.0251  0.9271  0.4778
   59BDD    C2131990   6.296  15.344   0.691  0.4271 -0.6344 -0.5564
   59BDD    C2231991   6.188  15.241   0.680 -0.9337  1.2359 -0.6767
   59BDD    C2331992   6.135  15.169   0.807  0.0698 -0.9389 -0.2929
   59BDD    C2431993   6.190  15.034   0.846 -0.0025  0.6631 -0.4084
   59BDD    C2531994   6.333  15.612   0.654  0.3199  1.9321 -1.1008
   59BDD    C2631995   6.321  15.657   0.800  0.3549 -0.0370  0.5441
   60TPM     C131996   5.893  15.148   0.091  0.1855 -0.0995  0.0378
   60TPM     C231997   5.881  15.283   0.076  0.4803 -0.0699  0.0491
   60TPM     C331998   5.750  15.325   0.034  0.6524  0.1978 -0.2302
   60TPM     C431999   5.662  15.222   0.017  0.4890  0.3721 -0.4548
   60TPM     S132000   5.739  15.063   0.053  0.1019  0.2107 -0.3298
    1BDTP    C132001   5.212   6.070   1.456  0.0988 -0.0809 -0.0546
    1BDTP    C232002   5.285   6.009   1.562  0.0882  0.1038  0.0601
    1BDTP    C332003   5.226   5.969   1.681  0.0613  0.2389  0.0927
    1BDTP    C432004   5.088   5.990   1.696  0.0445  0.1898  0.0085
    1BDTP    C532005   5.014   6.051   1.590  0.0551  0.0049 -0.1062
    1BDTP    C632006   5.073   6.091   1.471  0.0817 -0.1303 -0.1388
    1BDTP    C732007   5.004   5.956   1.810  0.0159  0.3057  0.0219
    1BDTP    C832008   4.874   5.989   1.795  0.0051  0.2179 -0.0759
    1BDTP    S132009   4.838   6.066   1.635  0.0291 -0.0242 -0.1987
    1BDTP    C932010   5.295   6.103   1.342  0.1270 -0.1971 -0.0680
    1BDTP   C1032011   5.425   6.071   1.357  0.1379 -0.1091  0.0297
    1BDTP    S232012   5.461   5.993   1.518  0.1140  0.1328  0.1525
    2FTM     S132013   5.429   5.770   1.740 -0.1385 -0.1028 -0.0649
    2FTM     C132014   5.503   5.787   1.904  0.0024 -0.1231 -0.1256
    2FTM     C232015   5.436   5.881   1.975  0.2643  0.0980 -0.1696
    2FTM     C332016   5.326   5.945   1.908  0.3691  0.2918 -0.1591
    2FTM     C432017   5.308   5.897   1.782  0.1810  0.2171 -0.1053
    2FTM     F132018   5.470   5.916   2.105  0.4249  0.1377 -0.2220
    2FTM     C532019   5.636   5.729   1.946  0.1414 -0.0273 -1.1625
    2FTM     C632020   5.616   5.582   1.991  0.4472  0.2952  0.7130
    2FTM     C732021   5.540   5.565   2.126 -0.0952  0.6861 -2.1475
    2FTM     C832022   5.581   5.634   2.268 -0.4717 -0.5758  1.0987
    2FTM     C932023   5.496   5.557   2.371  0.4675  0.4337 -0.8172
    2FTM    C1032024   5.495   5.588   2.525  0.5390 -0.0973 -0.8470
    2FTM    C1132025   5.737   5.485   1.989 -0.5084  0.7087  1.5159
    2FTM    C1232026   5.804   5.454   1.854  0.8129 -1.2162  1.2067
    3FTM     S132027   4.945   6.080   1.223  0.2124  0.3843  0.3947
    3FTM     C132028   4.866   6.231   1.165  0.2598  0.2759  0.0442
    3FTM     C232029   4.883   6.331   1.256 -0.2538  0.3093  0.1106
    3FTM     C332030   4.957   6.296   1.374 -0.7045  0.4187  0.4303
    3FTM     C432031   4.997   6.166   1.373 -0.5304  0.4708  0.6147
    3FTM     F132032   4.833   6.459   1.239 -0.3462  0.2431 -0.1143
    3FTM     C532033   4.790   6.235   1.041 -0.2017 -0.5700 -1.0161
    3FTM     C632034   4.721   6.116   0.971  0.3607  0.2499 -0.5851
    3FTM     C732035   4.801   5.990   0.939 -0.2910  0.9835  0.2993
    3FTM     C832036   4.899   5.970   0.820 -0.8562 -0.5856  0.7890
    3FTM     C932037   4.826   5.987   0.672 -0.6416 -0.0072 -1.0913
    3FTM    C1032038   4.693   5.940   0.620 -0.7885 -0.4470  0.6365
    3FTM    C1132039   4.592   6.105   1.052  0.6067 -0.2187 -0.9496
    3FTM    C1232040   4.467   6.098   0.956 -0.7812  0.5882  0.1799
    4TPM     C132041   5.545   6.114   1.279  0.5409  0.7146  0.1096
    4TPM     C232042   5.657   6.167   1.337  0.9055  0.8277 -0.6553
    4TPM     C332043   5.741   6.241   1.247  0.5718  0.3283 -1.3923
    4TPM     C432044   5.694   6.244   1.119 -0.0473 -0.1657 -1.1894
    4TPM     S132045   5.538   6.154   1.103 -0.2586 -0.0375 -0.0428
    5BDD     C132046   5.936   6.413   0.870  0.2193 -0.1361 -0.0251
    5BDD     C232047   5.816   6.475   0.854  0.2460 -0.0794 -0.0058
    5BDD     C332048   5.710   6.418   0.936  0.2115 -0.0867 -0.0557
    5BDD     C432049   5.752   6.313   1.013  0.1585 -0.1492 -0.1124
    5BDD     S132050   5.926   6.278   0.988  0.1488 -0.2030 -0.1072
    5BDD     C532051   5.793   6.590   0.764  0.3046 -0.0161  0.0593
    5BDD     C632052   5.572   6.470   0.935  0.2320 -0.0316 -0.0455
    5BDD     O132053   5.481   6.420   1.005  0.2022 -0.0380 -0.0885
    5BDD     O232054   5.884   6.639   0.693  0.3344 -0.0097  0.1023
    5BDD     C732055   5.549   6.584   0.844  0.2904  0.0315  0.0196
    5BDD     C832056   5.655   6.642   0.763  0.3251  0.0389  0.0696
    5BDD     C932057   5.613   6.747   0.686  0.3779  0.1013  0.1263
    5BDD     S232058   5.439   6.782   0.711  0.3878  0.1550  0.1210
    5BDD    C1032059   5.429   6.647   0.829  0.3173  0.0882  0.0390
    5BDD    C1132060   5.291   6.602   0.883  0.4097  0.9795  0.6177
    5BDD    C1232061   5.202   6.691   0.951 -0.6401 -0.1657  0.5528
    5BDD    C1332062   5.042   6.665   0.932  0.1544 -0.2384 -0.2469
    5BDD    C1432063   4.957   6.752   0.862  2.2715 -0.0610  0.0009
    5BDD    C1532064   4.993   6.758   0.711 -0.9086 -0.2712  0.3590
    5BDD    C1632065   4.978   6.863   0.611 -0.0633 -1.0766  0.1868
    5BDD    C1732066   5.268   6.808   1.021 -0.4128 -0.3072 -0.6902
    5BDD    C1832067   5.252   6.810   1.180  1.1354 -0.5458  1.1674
    5BDD    C1932068   5.682   6.828   0.582  1.1342  0.3905  0.1131
    5BDD    C2032069   5.622   6.966   0.537  0.4273 -0.1361 -0.1582
    5BDD    C2132070   5.599   7.066   0.656 -0.3934  0.0014 -0.4934
    5BDD    C2232071   5.477   7.151   0.638  0.1814 -0.2517  0.2926
    5BDD    C2332072   5.445   7.258   0.733  0.3655 -0.1248  0.2071
    5BDD    C2432073   5.452   7.211   0.875  1.5356 -0.5245 -2.0421
    5BDD    C2532074   5.670   7.049   0.408 -0.3116  0.0404 -0.8302
    5BDD    C2632075   5.619   6.995   0.275  0.5144 -0.2017  0.7656
    6TPM     C132076   6.079   6.427   0.842 -0.5580 -0.4085  0.3582
    6TPM     C232077   6.127   6.547   0.799 -1.0371 -0.4455 -0.3171
    6TPM     C332078   6.271   6.557   0.805 -1.0494  0.0424 -0.7047
    6TPM     C432079   6.332   6.445   0.853 -0.5798  0.4513 -0.3249
    6TPM     S132080   6.212   6.317   0.894 -0.0816  0.2503  0.5586
    7BDTP    C132081   6.923   6.263   0.961  0.1886  0.1521 -0.3009
    7BDTP    C232082   6.924   6.392   1.020  0.2326  0.0943 -0.1745
    7BDTP    C332083   6.811   6.473   1.024  0.2009  0.0396  0.1019
    7BDTP    C432084   6.692   6.424   0.966  0.1220  0.0417  0.2616
    7BDTP    C532085   6.692   6.295   0.907  0.0777  0.0997  0.1352
    7BDTP    C632086   6.805   6.214   0.903  0.1096  0.1543 -0.1412
    7BDTP    C732087   6.564   6.490   0.958  0.0764 -0.0088  0.5514
    7BDTP    C832088   6.468   6.417   0.896  0.0012  0.0080  0.6475
    7BDTP    S132089   6.527   6.255   0.840 -0.0225  0.0901  0.3844
    7BDTP    C932090   7.052   6.197   0.969  0.2340  0.2027 -0.5907
    7BDTP   C1032091   7.148   6.270   1.031  0.3092  0.1860 -0.6868
    7BDTP    S232092   7.089   6.432   1.087  0.3330  0.1038 -0.4237
    8FTM     S132093   6.736   6.634   1.244 -0.4342 -0.0880  0.0002
    8FTM     C132094   6.807   6.800   1.242  0.0607 -0.2721  0.8623
    8FTM     C232095   6.869   6.822   1.122  0.2962  0.0972  1.0477
    8FTM     C332096   6.864   6.714   1.028  0.1106  0.5351  0.5430
    8FTM     C432097   6.798   6.606   1.077 -0.2798  0.5001 -0.0483
    8FTM     F132098   6.932   6.941   1.091  0.6937  0.0604  1.6855
    8FTM     C532099   6.801   6.873   1.377 -0.8499 -0.4165  0.1691
    8FTM     C632100   6.925   6.865   1.465  0.5794 -0.0497 -0.5365
    8FTM     C732101   7.057   6.934   1.405  0.7510 -0.1382 -1.1739
    8FTM     C832102   7.068   7.078   1.464  1.5308  0.2752  0.1083
    8FTM     C932103   7.013   7.185   1.382  0.1359 -0.9953 -0.5154
    8FTM    C1032104   7.080   7.249   1.246  1.1020  0.2766 -0.3933
    8FTM    C1132105   6.932   6.734   1.544  0.4974 -1.0146  0.1540
    8FTM    C1232106   7.034   6.699   1.652  0.8691 -0.0919  0.1801
    9FTM     S132107   6.747   6.060   0.667  0.6462  0.1089  0.0218
    9FTM     C132108   6.728   5.884   0.699  0.9047  0.0560 -0.1157
    9FTM     C232109   6.756   5.857   0.830  0.8792  0.0058 -0.1204
    9FTM     C332110   6.793   5.969   0.911  0.6623  0.0056 -0.0198
    9FTM     C432111   6.793   6.086   0.840  0.5171  0.0572  0.0647
    9FTM     F132112   6.751   5.729   0.883  1.0507 -0.0430 -0.2160
    9FTM     C532113   6.647   5.796   0.598 -1.0646  0.2671  0.3067
    9FTM     C632114   6.482   5.788   0.571  0.6999  0.8091  0.1135
    9FTM     C732115   6.419   5.923   0.503 -0.1897 -0.6227  0.5230
    9FTM     C832116   6.496   5.989   0.377  0.9677 -0.0384 -1.2648
    9FTM     C932117   6.542   5.909   0.254 -0.2322 -0.3749  0.6103
    9FTM    C1032118   6.439   5.814   0.215 -0.0144 -0.3737 -0.2050
    9FTM    C1132119   6.391   5.745   0.695 -0.5911  1.0527  0.7829
    9FTM    C1232120   6.361   5.824   0.826 -0.3009 -0.3651  0.2095
   10TPM     C132121   7.285   6.236   1.039 -0.8796  0.1636 -0.5069
   10TPM     C232122   7.398   6.307   1.064 -1.2052  0.6675 -0.4418
   10TPM     C332123   7.512   6.225   1.096 -0.9021  1.1764 -0.1935
   10TPM     C432124   7.486   6.091   1.095 -0.3453  1.0607 -0.0695
   10TPM     S132125   7.314   6.058   1.053 -0.1592  0.2938 -0.2579
   11BDD     C132126   7.824   5.880   1.086  0.4589  0.0771 -0.0199
   11BDD     C232127   7.747   5.818   1.179  0.4534  0.1566  0.0292
   11BDD     C332128   7.616   5.877   1.195  0.5476  0.3314  0.1586
   11BDD     C432129   7.595   5.985   1.113  0.6238  0.3823  0.2062
   11BDD     S132130   7.738   6.019   1.011  0.5827  0.2151  0.0924
   11BDD     C532131   7.791   5.700   1.257  0.3611  0.0751 -0.0409
   11BDD     C632132   7.515   5.826   1.290  0.5587  0.4413  0.2303
   11BDD     O132133   7.402   5.877   1.304  0.6400  0.5919  0.3418
   11BDD     O232134   7.904   5.648   1.244  0.2798 -0.0755 -0.1525
   11BDD     C732135   7.559   5.708   1.368  0.4665  0.3598  0.1600
   11BDD     C832136   7.690   5.648   1.353  0.3723  0.1850  0.0307
   11BDD     C932137   7.711   5.541   1.435  0.2962  0.1340 -0.0170
   11BDD     S232138   7.567   5.507   1.537  0.3372  0.3012  0.0968
   11BDD    C1032139   7.481   5.645   1.462  0.4610  0.4393  0.2092
   11BDD    C1132140   7.334   5.665   1.510 -0.9397  1.3610 -1.1598
   11BDD    C1232141   7.332   5.726   1.653 -0.4064 -0.2232  0.2426
   11BDD    C1332142   7.207   5.825   1.666 -1.3842  0.5065 -0.2123
   11BDD    C1432143   7.087   5.746   1.692  0.3263 -0.8538 -0.9824
   11BDD    C1532144   6.977   5.848   1.742 -0.3398  0.7696  0.0506
   11BDD    C1632145   6.896   5.778   1.864 -0.1599 -0.5205 -0.1785
   11BDD    C1732146   7.400   5.683   1.781  0.2738  0.4736 -0.1071
   11BDD    C1832147   7.546   5.681   1.775 -0.5879 -0.2465 -1.6662
   11BDD    C1932148   7.827   5.461   1.489 -1.2318  1.1460  1.1030
   11BDD    C2032149   7.824   5.340   1.595  0.9675 -0.8426  0.0322
   11BDD    C2132150   7.773   5.204   1.563 -0.0538  0.5167  0.4829
   11BDD    C2232151   7.807   5.159   1.411 -0.0875  0.3036 -0.5548
   11BDD    C2332152   7.930   5.078   1.405 -0.0206  0.0750 -0.1828
   11BDD    C2432153   7.963   5.073   1.258  0.4002 -0.8936  0.0313
   11BDD    C2532154   7.923   5.376   1.704  1.3190  0.1660  0.6482
   11BDD    C2632155   8.073   5.398   1.669  0.7205  0.1519 -0.7571
   12TPM     C132156   7.971   5.881   1.044 -0.4815 -0.2725 -0.1843
   12TPM     C232157   8.030   6.002   1.025 -0.8712 -0.2420 -1.3616
   12TPM     C332158   8.174   5.997   1.021 -0.8647  0.1276 -1.8491
   12TPM     C432159   8.225   5.872   1.038 -0.4700  0.3788 -1.0435
   12TPM     S132160   8.094   5.749   1.059 -0.0725  0.1666  0.4045
   13BDTP    C132161   8.850   5.834   1.081  0.0255  0.3092  0.0937
   13BDTP    C232162   8.822   5.696   1.056  0.0606  0.3126  0.0336
   13BDTP    C332163   8.694   5.648   1.036  0.0718  0.2869  0.0237
   13BDTP    C432164   8.587   5.740   1.039  0.0472  0.2564  0.0755
   13BDTP    C532165   8.615   5.878   1.064  0.0119  0.2533  0.1356
   13BDTP    C632166   8.744   5.926   1.084  0.0009  0.2788  0.1454
   13BDTP    C732167   8.446   5.714   1.021  0.0526  0.2265  0.0768
   13BDTP    C832168   8.367   5.824   1.030  0.0236  0.2012  0.1341
   13BDTP    S132169   8.461   5.976   1.063 -0.0148  0.2117  0.1946
   13BDTP    C932170   8.991   5.860   1.099  0.0203  0.3393  0.0924
   13BDTP   C1032171   9.070   5.750   1.090  0.0491  0.3647  0.0350
   13BDTP    S232172   8.976   5.598   1.057  0.0876  0.3541 -0.0255
   14FTM     S132173   8.765   5.444   0.854  0.9244  0.1959 -0.0443
   14FTM     C132174   8.696   5.280   0.886 -0.1100  0.4609 -0.8305
   14FTM     C232175   8.621   5.283   0.999 -1.9033  0.8699 -1.9441
   14FTM     C332176   8.613   5.409   1.067 -2.5663  0.9992 -2.2467
   14FTM     C432177   8.684   5.506   1.003 -1.2376  0.6785 -1.3349
   14FTM     F132178   8.555   5.172   1.049 -3.0508  1.1518 -2.7556
   14FTM     C532179   8.742   5.162   0.802 -0.9258  0.1536  0.4948
   14FTM     C632180   8.795   5.182   0.660  0.0796 -0.5634 -0.5341
   14FTM     C732181   8.702   5.240   0.562 -0.3965 -0.4565 -0.3910
   14FTM     C832182   8.648   5.113   0.473  0.0673 -0.4937 -1.2210
   14FTM     C932183   8.577   5.117   0.334 -1.3177  0.7753 -0.5424
   14FTM    C1032184   8.653   5.184   0.225  0.2310  0.0437 -0.6945
   14FTM    C1132185   8.941   5.229   0.653 -0.8467  0.0134 -0.2183
   14FTM    C1232186   9.024   5.170   0.534 -0.3602 -0.6090 -0.7870
   15FTM     S132187   8.829   6.152   0.966 -0.0376 -0.4001  0.2905
   15FTM     C132188   8.796   6.312   1.042  0.5987 -0.1902  0.1358
   15FTM     C232189   8.738   6.295   1.164  0.5469  0.1584  0.1638
   15FTM     C332190   8.716   6.159   1.205  0.0222  0.2810  0.3039
   15FTM     C432191   8.759   6.070   1.111 -0.3400  0.0173  0.3859
   15FTM     F132192   8.701   6.400   1.246  0.9723  0.3875  0.0642
   15FTM     C532193   8.822   6.431   0.950 -1.6985 -0.3819  0.5229
   15FTM     C632194   8.969   6.455   0.916 -0.0640 -0.1150 -0.1684
   15FTM     C732195   9.021   6.585   0.966  0.7163  0.1717 -0.2951
   15FTM     C832196   8.976   6.708   0.900  0.6896 -0.2719 -0.2735
   15FTM     C932197   9.042   6.833   0.971 -0.2668 -0.3707 -1.0870
   15FTM    C1032198   9.156   6.874   0.883 -0.2513  0.0659  1.2485
   15FTM    C1132199   8.991   6.426   0.758  1.3221 -0.2886 -1.3385
   15FTM    C1232200   9.138   6.444   0.708  0.1301  0.0276  0.2952
   16TPM     C132201   9.215   5.743   1.113  0.2863 -0.6044  0.8033
   16TPM     C232202   9.286   5.646   1.178  0.5143 -0.1369  1.2658
   16TPM     C332203   9.428   5.667   1.176  0.4859  0.0337  0.9048
   16TPM     C432204   9.466   5.780   1.109  0.2362 -0.3035  0.1670
   16TPM     S132205   9.323   5.869   1.044  0.0161 -0.8676 -0.1314
   17BDD     C132206   9.838   5.834   1.222 -0.2150 -0.1123  0.3585
   17BDD     C232207   9.783   5.959   1.228 -0.1547 -0.0752  0.1741
   17BDD     C332208   9.645   5.964   1.184 -0.0226  0.0083 -0.2420
   17BDD     C432209   9.596   5.842   1.145  0.0166  0.0339 -0.3688
   17BDD     S132210   9.720   5.714   1.160 -0.1092 -0.0452  0.0240
   17BDD     C532211   9.856   6.079   1.276 -0.2172 -0.1155  0.3736
   17BDD     C632212   9.566   6.089   1.183  0.0603  0.0598 -0.4986
   17BDD     O132213   9.446   6.093   1.145  0.1743  0.1320 -0.8574
   17BDD     O232214   9.975   6.075   1.314 -0.3314 -0.1875  0.7324
   17BDD     C732215   9.638   6.209   1.231 -0.0021  0.0197 -0.2991
   17BDD     C832216   9.777   6.204   1.275 -0.1345 -0.0639  0.1169
   17BDD     C932217   9.825   6.325   1.315 -0.1733 -0.0894  0.2437
   17BDD     S232218   9.701   6.454   1.300 -0.0476 -0.0105 -0.1490
   17BDD    C1032219   9.583   6.334   1.238  0.0579  0.0567 -0.4835
   17BDD    C1132220   9.460   6.407   1.181  0.9576 -0.1844 -1.3704
   17BDD    C1232221   9.368   6.484   1.287 -0.0932  0.0885 -1.2812
   17BDD    C1332222   9.291   6.613   1.242 -0.6594  1.1225 -0.0826
   17BDD    C1432223   9.296   6.745   1.324  0.0570  1.4572  0.1046
   17BDD    C1532224   9.180   6.830   1.324 -0.0362 -1.0840 -0.3246
   17BDD    C1632225   9.040   6.780   1.365 -0.5627  0.8932 -0.6864
   17BDD    C1732226   9.327   6.430   1.422 -0.4173 -0.6341  1.4481
   17BDD    C1832227   9.239   6.310   1.445 -0.4433 -0.1467  0.6387
   17BDD    C1932228   9.952   6.370   1.382 -0.4767  0.2719  0.5530
   17BDD    C2032229  10.081   6.407   1.302  0.8607  0.4315  0.3849
   17BDD    C2132230  10.187   6.306   1.267 -0.0779 -0.1525 -0.0949
   17BDD    C2232231  10.225   6.202   1.376  0.3368 -0.6265  0.6397
   17BDD    C2332232  10.360   6.223   1.437  0.1447 -0.0306 -0.7318
   17BDD    C2432233  10.385   6.357   1.498  1.5628  2.2584 -1.3346
   17BDD    C2532234  10.074   6.533   1.209  0.5366 -0.0737  1.3663
   17BDD    C2632235  10.100   6.666   1.261  0.7217 -0.5711 -0.8413
   18TPM     C132236   9.977   5.780   1.259  0.2588  0.1297 -1.3174
   18TPM     C232237  10.074   5.845   1.189  0.1099  0.0445 -1.6040
   18TPM     C332238  10.194   5.768   1.168  0.2577  0.1966 -1.3282
   18TPM     C432239  10.188   5.643   1.223  0.5194  0.3981 -0.8312
   18TPM     S132240  10.030   5.613   1.305  0.5996  0.4112 -0.6719
   19BDTP    C132241  10.744   5.337   1.180  0.0689 -0.3355  0.1178
   19BDTP    C232242  10.754   5.406   1.305  0.0885 -0.1625  0.0220
   19BDTP    C332243  10.651   5.484   1.356  0.1578  0.0385 -0.1454
   19BDTP    C432244  10.533   5.496   1.280  0.2105  0.0709 -0.2221
   19BDTP    C532245  10.523   5.427   1.155  0.1905 -0.1022 -0.1263
   19BDTP    C632246  10.626   5.349   1.105  0.1210 -0.3031  0.0410
   19BDTP    C732247  10.413   5.571   1.312  0.2856  0.2647 -0.3935
   19BDTP    C832248  10.316   5.563   1.218  0.3226  0.2460 -0.4306
   19BDTP    S132249  10.361   5.458   1.077  0.2673 -0.0198 -0.2536
   19BDTP    C932250  10.864   5.262   1.149 -0.0067 -0.5293  0.2892
   19BDTP   C1032251  10.961   5.270   1.242 -0.0436 -0.5107  0.3262
   19BDTP    S232252  10.915   5.375   1.384  0.0117 -0.2446  0.1492
   20FTM     S132253  10.829   5.655   1.505  0.2555  0.3080  0.7272
   20FTM     C132254  10.765   5.728   1.657 -0.2224  0.0207  0.6689
   20FTM     C232255  10.638   5.684   1.679 -0.2201 -0.1876  0.2993
   20FTM     C332256  10.584   5.594   1.582  0.1445 -0.1373  0.0450
   20FTM     C432257  10.673   5.567   1.482  0.4312  0.1174  0.2258
   20FTM     F132258  10.564   5.724   1.789 -0.5484 -0.4358  0.1692
   20FTM     C532259  10.864   5.781   1.762  1.1267 -1.3274 -1.1375
   20FTM     C632260  10.916   5.927   1.752 -1.2873  0.7030 -0.5066
   20FTM     C732261  11.031   5.969   1.854  0.4973 -0.5805  0.0984
   20FTM     C832262  11.182   5.955   1.827  0.0211  0.6309  1.3814
   20FTM     C932263  11.216   6.008   1.680  0.9587 -1.9055  1.4741
   20FTM    C1032264  11.363   6.007   1.646 -0.9635 -0.6311  0.3414
   20FTM    C1132265  10.792   6.013   1.771 -0.4213 -0.8052 -0.0823
   20FTM    C1232266  10.720   6.075   1.661  1.1355 -0.9233 -0.2040
   21FTM     S132267  10.714   5.443   0.836  0.1368  0.2111 -0.5023
   21FTM     C132268  10.651   5.345   0.699  0.1697 -0.1178 -0.2843
   21FTM     C232269  10.576   5.241   0.747  0.6955 -0.3866 -0.0327
   21FTM     C332270  10.565   5.232   0.889  1.0948 -0.3537  0.0051
   21FTM     C432271  10.632   5.332   0.953  0.8673 -0.0501 -0.2252
   21FTM     F132272  10.515   5.149   0.664  0.8459 -0.6783  0.1785
   21FTM     C532273  10.686   5.362   0.559 -0.2427 -0.9194 -0.0737
   21FTM     C632274  10.640   5.489   0.478 -0.4278  0.7223 -0.2342
   21FTM     C732275  10.655   5.625   0.544  1.2852 -0.3460 -0.6353
   21FTM     C832276  10.775   5.689   0.603 -0.0966 -1.2058 -0.4469
   21FTM     C932277  10.713   5.835   0.621  0.0612  0.5306 -1.6685
   21FTM    C1032278  10.729   5.939   0.519  0.3501  0.0399  0.0072
   21FTM    C1132279  10.690   5.487   0.337  1.3246 -1.0202  0.7264
   21FTM    C1232280  10.645   5.621   0.246  0.5437  0.5714  0.6621
   22TPM     C132281  11.090   5.201   1.230 -0.4078 -0.2119  0.4652
   22TPM     C232282  11.139   5.138   1.120 -0.9286 -0.5522  0.4188
   22TPM     C332283  11.256   5.058   1.147 -0.7820 -0.4462  0.1115
   22TPM     C432284  11.295   5.060   1.278 -0.1495 -0.0250 -0.0763
   22TPM     S132285  11.187   5.165   1.377  0.3139  0.2726  0.1218
   23BDD     C132286  11.597   4.803   1.261 -0.0285  0.4768 -0.0199
   23BDD     C232287  11.553   4.798   1.391 -0.0712  0.3796 -0.0373
   23BDD     C332288  11.445   4.891   1.419 -0.2740  0.1559 -0.0742
   23BDD     C432289  11.408   4.965   1.310 -0.3832  0.0860 -0.0844
   23BDD     S132290  11.505   4.923   1.165 -0.2394  0.2954 -0.0485
   23BDD     C532291  11.610   4.709   1.494  0.0730  0.4885 -0.0207
   23BDD     C632292  11.383   4.903   1.552 -0.3524  0.0197 -0.0980
   23BDD     O132293  11.290   4.983   1.576 -0.5271 -0.1732 -0.1298
   23BDD     O232294  11.703   4.629   1.470  0.2479  0.6815  0.0111
   23BDD     C732295  11.439   4.813   1.655 -0.2081  0.1286 -0.0814
   23BDD     C832296  11.548   4.721   1.628 -0.0052  0.3523 -0.0444
   23BDD     C932297  11.585   4.647   1.736  0.1038  0.4224 -0.0342
   23BDD     S232298  11.487   4.689   1.881 -0.0399  0.2129 -0.0702
   23BDD    C1032299  11.396   4.809   1.785 -0.2506  0.0314 -0.0987
   23BDD    C1132300  11.314   4.898   1.862  2.2502 -0.3094  1.7580
   23BDD    C1232301  11.157   4.850   1.876 -0.8409 -1.6991 -0.4884
   23BDD    C1332302  11.140   4.731   1.961 -0.7368  0.8043  0.0508
   23BDD    C1432303  11.156   4.710   2.107 -0.8933  0.4553 -0.2274
   23BDD    C1532304  11.068   4.779   2.213  0.4239 -0.3821  0.4811
   23BDD    C1632305  10.990   4.664   2.287 -0.6147 -0.9228  1.2433
   23BDD    C1732306  11.046   4.963   1.890  0.4756  1.0020 -0.6377
   23BDD    C1832307  11.025   5.045   2.016 -0.0541 -0.4151  0.4673
   23BDD    C1932308  11.651   4.519   1.747  0.9943  0.3046  0.3868
   23BDD    C2032309  11.782   4.543   1.821 -0.4586 -0.1727 -1.2293
   23BDD    C2132310  11.891   4.634   1.765  0.1597  0.4044  0.3197
   23BDD    C2232311  12.034   4.668   1.824  1.9691 -0.3473  0.5386
   23BDD    C2332312  12.041   4.663   1.980 -1.1656  0.4878  0.4778
   23BDD    C2432313  11.966   4.743   2.076 -0.1629  0.7613  0.7135
   23BDD    C2532314  11.838   4.423   1.912  1.7545 -0.3068  0.0424
   23BDD    C2632315  11.849   4.295   1.839 -0.8631 -0.0141 -0.6344
   24TPM     C132316  11.680   4.718   1.187  1.0787 -0.0121  1.5717
   24TPM     C232317  11.645   4.589   1.159  1.6091 -0.2764  2.0838
   24TPM     C332318  11.720   4.530   1.052  0.7766  0.1732  1.2200
   24TPM     C432319  11.813   4.614   0.998 -0.3886  0.7798  0.0494
   24TPM     S132320  11.812   4.775   1.078 -0.5259  0.8313 -0.0538
   25BDTP    C132321  12.044   4.560   0.423  0.4091  0.0260 -0.0029
   25BDTP    C232322  12.104   4.450   0.490  0.1400 -0.1507 -0.0501
   25BDTP    C332323  12.086   4.426   0.626 -0.0198 -0.2382 -0.0857
   25BDTP    C432324  12.006   4.516   0.699  0.0906 -0.1473 -0.0744
   25BDTP    C532325  11.946   4.626   0.631  0.3598  0.0291 -0.0271
   25BDTP    C632326  11.964   4.650   0.495  0.5196  0.1166  0.0085
   25BDTP    C732327  11.973   4.512   0.840 -0.0360 -0.2106 -0.1052
   25BDTP    C832328  11.892   4.613   0.881  0.1231 -0.0916 -0.0838
   25BDTP    S132329  11.847   4.727   0.746  0.4556  0.1172 -0.0214
   25BDTP    C932330  12.077   4.564   0.282  0.5357  0.0890  0.0280
   25BDTP   C1032331  12.158   4.463   0.240  0.3766 -0.0299  0.0066
   25BDTP    S232332  12.203   4.349   0.375  0.0441 -0.2387 -0.0558
   26FTM     S132333  12.274   4.220   0.671 -0.1952  0.1971  0.0530
   26FTM     C132334  12.228   4.089   0.786 -0.5466  0.2488 -0.0272
   26FTM     C232335  12.102   4.111   0.833 -0.7973  0.1227 -0.6286
   26FTM     C332336  12.035   4.227   0.783 -0.7330 -0.0181 -1.0534
   26FTM     C432337  12.113   4.298   0.695 -0.4230  0.0006 -0.7680
   26FTM     F132338  12.039   4.026   0.923 -1.0999  0.1274 -0.8302
   26FTM     C532339  12.323   3.972   0.771 -0.3793 -0.6286  0.5107
   26FTM     C632340  12.351   3.915   0.633  0.4638  0.4468 -0.7987
   26FTM     C732341  12.234   3.890   0.533 -0.0367 -0.6965 -1.0352
   26FTM     C832342  12.113   3.798   0.580 -0.4872  0.5950 -0.2105
   26FTM     C932343  11.976   3.841   0.529  0.1664  0.0254  1.1125
   26FTM    C1032344  11.861   3.757   0.573  0.3475 -0.0911  0.6707
   26FTM    C1132345  12.484   3.896   0.572 -0.8176  0.0219 -0.1871
   26FTM    C1232346  12.551   3.765   0.577 -0.1034  0.6378 -0.7029
   27FTM     S132347  11.975   4.909   0.375  0.1933  0.0456 -0.0498
   27FTM     C132348  11.825   4.960   0.290  0.2127  0.5577  0.2173
   27FTM     C232349  11.728   4.865   0.305  0.0677  0.6672 -0.0059
   27FTM     C332350  11.765   4.750   0.382 -0.0641  0.3670 -0.3889
   27FTM     C432351  11.893   4.756   0.427 -0.0186  0.0161 -0.4614
   27FTM     F132352  11.601   4.877   0.251  0.0458  1.0458  0.1234
   27FTM     C532353  11.825   5.069   0.180 -0.0022 -0.6291 -1.0617
   27FTM     C632354  11.864   5.025   0.044 -0.1263 -0.3208  0.4746
   27FTM     C732355  11.828   5.143  -0.051  0.9975 -0.7395 -1.6544
   27FTM     C832356  11.676   5.176  -0.072  0.2115  0.5021 -1.1619
   27FTM     C932357  11.647   5.297  -0.162  0.5360  0.2905  0.6340
   27FTM    C1032358  11.613   5.427  -0.100 -0.1897  0.4022  0.0383
   27FTM    C1132359  12.005   4.964   0.010 -1.5894 -1.0407 -0.0045
   27FTM    C1232360  12.044   4.935  -0.141 -0.8346  0.9412  1.5011
   28TPM     C132361  12.191   4.411   0.103  0.0850 -0.2929  0.4444
   28TPM     C232362  12.191   4.475  -0.017 -0.1430  0.3231  0.7655
   28TPM     C332363  12.214   4.388  -0.130 -0.4038  0.8816  0.2675
   28TPM     C432364  12.232   4.258  -0.095 -0.3748  0.6913 -0.4334
   28TPM     S132365  12.222   4.235   0.084 -0.0129 -0.2148 -0.5194
   29BDD     C132366  12.190   3.905  -0.267 -0.2967 -0.1392  0.3863
   29BDD     C232367  12.304   3.961  -0.318 -0.3144 -0.1991  0.2816
   29BDD     C332368  12.327   4.097  -0.273 -0.2548 -0.1756  0.1807
   29BDD     C432369  12.230   4.143  -0.189 -0.1925 -0.0985  0.2101
   29BDD     S132370  12.103   4.020  -0.159 -0.2041 -0.0494  0.3657
   29BDD     C532371  12.396   3.891  -0.410 -0.3868 -0.2799  0.2704
   29BDD     C632372  12.444   4.176  -0.316 -0.2618 -0.2309  0.0591
   29BDD     O132373  12.463   4.294  -0.278 -0.2104 -0.2108 -0.0279
   29BDD     O232374  12.376   3.773  -0.449 -0.4382 -0.3000  0.3574
   29BDD     C732375  12.536   4.106  -0.408 -0.3342 -0.3117  0.0482
   29BDD     C832376  12.513   3.970  -0.453 -0.3938 -0.3351  0.1488
   29BDD     C932377  12.610   3.924  -0.538 -0.4561 -0.4124  0.1194
   29BDD     S232378  12.736   4.048  -0.568 -0.4445 -0.4611 -0.0362
   29BDD    C1032379  12.650   4.162  -0.460 -0.3519 -0.3716 -0.0567
   29BDD    C1132380  12.708   4.302  -0.467 -0.6244 -0.1125 -0.5455
   29BDD    C1232381  12.830   4.376  -0.409 -1.7988 -0.7799  0.0187
   29BDD    C1332382  12.966   4.343  -0.475  0.8223 -1.6003  0.4428
   29BDD    C1432383  12.986   4.344  -0.622  0.0125 -0.1442  0.3290
   29BDD    C1532384  13.034   4.494  -0.667  0.5232  0.3375  0.6333
   29BDD    C1632385  12.945   4.583  -0.746  0.3947  0.4036  0.6346
   29BDD    C1732386  12.829   4.346  -0.255  0.4767  0.2796 -0.3878
   29BDD    C1832387  12.783   4.426  -0.141 -0.0576 -0.6557  0.9485
   29BDD    C1932388  12.643   3.807  -0.621  0.4273 -0.3983 -0.1000
   29BDD    C2032389  12.790   3.736  -0.622  1.9351 -0.1244 -0.0792
   29BDD    C2132390  12.900   3.773  -0.711 -0.1584 -0.6344 -0.0451
   29BDD    C2232391  12.893   3.715  -0.855 -0.4960  0.0654  0.5065
   29BDD    C2332392  12.983   3.772  -0.963 -0.4934 -0.1082  1.2542
   29BDD    C2432393  13.020   3.633  -1.025 -0.0153  0.3904  0.0641
   29BDD    C2532394  12.801   3.679  -0.477  0.6813 -0.3965 -0.9750
   29BDD    C2632395  12.751   3.542  -0.469  0.2422  0.0927 -0.2170
   30TPM     C132396  12.120   3.772  -0.276 -0.5583  0.7731 -0.5686
   30TPM     C232397  12.096   3.729  -0.403 -1.2424  1.2506 -0.6189
   30TPM     C332398  11.985   3.638  -0.414 -1.2553  1.2318 -0.3455
   30TPM     C432399  11.923   3.613  -0.295 -0.5811  0.7400 -0.0872
   30TPM     S132400  12.001   3.702  -0.159  0.1279  0.2585 -0.1696
   31BDTP    C132401  11.397   3.266  -0.284  0.0753 -0.5288  0.1996
   31BDTP    C232402  11.348   3.399  -0.294  0.0565 -0.5432  0.1037
   31BDTP    C332403  11.431   3.510  -0.300  0.0450 -0.5457 -0.1211
   31BDTP    C432404  11.570   3.488  -0.296  0.0521 -0.5334 -0.2580
   31BDTP    C532405  11.619   3.355  -0.285  0.0708 -0.5187 -0.1619
   31BDTP    C632406  11.536   3.244  -0.279  0.0824 -0.5162  0.0629
   31BDTP    C732407  11.676   3.587  -0.300  0.0427 -0.5332 -0.4951
   31BDTP    C832408  11.801   3.535  -0.293  0.0533 -0.5193 -0.5808
   31BDTP    S132409  11.802   3.354  -0.280  0.0767 -0.5045 -0.3726
   31BDTP    C932410  11.291   3.167  -0.279  0.0849 -0.5288  0.4370
   31BDTP   C1032411  11.166   3.219  -0.286  0.0741 -0.5427  0.5221
   31BDTP    S232412  11.165   3.400  -0.299  0.0508 -0.5574  0.3144
   32FTM     S132413  11.264   3.680  -0.153 -0.5659  0.0682  0.4732
   32FTM     C132414  11.243   3.849  -0.213  0.2440  0.0670  0.1585
   32FTM     C232415  11.311   3.865  -0.330  0.5388 -0.3996  0.2584
   32FTM     C332416  11.382   3.751  -0.379  0.1619 -0.7756  0.5777
   32FTM     C432417  11.368   3.643  -0.297 -0.4411 -0.5908  0.7272
   32FTM     F132418  11.313   3.985  -0.399  1.1673 -0.5139  0.0663
   32FTM     C532419  11.184   3.935  -0.105  0.6292  0.4663  1.1903
   32FTM     C632420  11.034   3.953  -0.107  0.8262  0.7300 -0.2828
   32FTM     C732421  10.974   3.971   0.029 -0.3971 -0.3599  0.2283
   32FTM     C832422  10.982   3.853   0.136  0.4710 -0.5788 -0.8057
   32FTM     C932423  10.955   3.889   0.279  0.5485 -0.3385 -0.6797
   32FTM    C1032424  10.978   3.783   0.382 -0.5696  0.0665 -0.5869
   32FTM    C1132425  10.944   4.017  -0.203  1.1058 -0.3368  0.8194
   32FTM    C1232426  10.985   4.153  -0.252  0.5678  0.4691  0.3294
   33FTM     S132427  11.677   3.032  -0.132 -0.0389  0.9393 -0.0886
   33FTM     C132428  11.706   2.880  -0.225  0.2034  0.2869  1.0210
   33FTM     C232429  11.665   2.896  -0.353  0.8600 -0.4711  0.7010
   33FTM     C332430  11.609   3.023  -0.387  1.2064 -0.5881 -0.3996
   33FTM     C432431  11.608   3.109  -0.280  0.8017  0.1030 -0.9401
   33FTM     F132432  11.675   2.795  -0.448  1.1864 -1.1041  1.3859
   33FTM     C532433  11.743   2.752  -0.153 -0.8287 -0.0276 -0.1728
   33FTM     C632434  11.657   2.617  -0.166 -0.9765 -0.7463  2.7887
   33FTM     C732435  11.718   2.505  -0.091  1.7302  0.8111 -0.9743
   33FTM     C832436  11.806   2.411  -0.169  0.2462 -0.1542  0.6105
   33FTM     C932437  11.917   2.430  -0.267 -0.0816 -0.2079 -0.3972
   33FTM    C1032438  12.043   2.479  -0.197  1.5114 -1.3002 -0.9827
   33FTM    C1132439  11.508   2.629  -0.164  0.7787 -0.4974 -0.5076
   33FTM    C1232440  11.431   2.530  -0.245  0.5842 -0.7488  0.7080
   34TPM     C132441  11.037   3.151  -0.275 -0.3675 -0.5117 -0.8126
   34TPM     C232442  10.988   3.056  -0.359 -0.0751 -1.6255  0.2279
   34TPM     C332443  10.887   2.972  -0.299  0.2484 -1.3481  1.1933
   34TPM     C432444  10.860   3.004  -0.169  0.2029 -0.0227  0.8881
   34TPM     S132445  10.959   3.143  -0.112 -0.2559  0.9856 -0.6536
   35BDD     C132446  10.669   2.695  -0.034  0.3154  0.4295  0.0934
   35BDD     C232447  10.617   2.803   0.032  0.1194  0.3191  0.1199
   35BDD     C332448  10.674   2.929  -0.009 -0.2196  0.4507  0.0405
   35BDD     C432449  10.770   2.916  -0.106 -0.2770  0.6597 -0.0456
   35BDD     S132450  10.794   2.745  -0.152  0.0894  0.7060 -0.0331
   35BDD     C532451  10.511   2.793   0.136  0.2365  0.0883  0.2189
   35BDD     C632452  10.633   3.059   0.049 -0.4742  0.3644  0.0525
   35BDD     O132453  10.683   3.168   0.014 -0.7665  0.4779 -0.0160
   35BDD     O232454  10.461   2.684   0.171  0.5286 -0.0252  0.2873
   35BDD     C732455  10.528   3.049   0.153 -0.3574  0.1339  0.1521
   35BDD     C832456  10.470   2.923   0.194 -0.0184  0.0022  0.2313
   35BDD     C932457  10.374   2.936   0.291  0.0386 -0.2068  0.3169
   35BDD     S232458  10.350   3.107   0.337 -0.3277 -0.2531  0.3046
   35BDD    C1032459  10.476   3.157   0.219 -0.5538  0.0234  0.1781
   35BDD    C1132460  10.500   3.308   0.217 -0.6238  0.4422 -1.1902
   35BDD    C1232461  10.608   3.357   0.308 -0.1468 -0.1702 -1.0186
   35BDD    C1332462  10.746   3.267   0.306  0.1458  0.3948 -0.6860
   35BDD    C1432463  10.856   3.295   0.398  0.7100 -0.8256 -0.1877
   35BDD    C1532464  10.850   3.251   0.549 -1.3287 -0.1498  1.0385
   35BDD    C1632465  10.988   3.278   0.630  1.0446  0.2640 -0.2319
   35BDD    C1732466  10.624   3.508   0.309 -0.6814 -0.9093 -0.1159
   35BDD    C1832467  10.495   3.568   0.381 -0.0526 -0.2333 -0.3739
   35BDD    C1932468  10.308   2.829   0.373  0.0437  0.6801  0.6350
   35BDD    C2032469  10.147   2.791   0.366 -0.8723 -1.0464  0.5911
   35BDD    C2132470  10.053   2.909   0.395 -0.5121 -0.1671 -1.1931
   35BDD    C2232471  10.071   2.941   0.540 -1.5515 -0.2009 -0.6031
   35BDD    C2332472  10.009   3.076   0.597 -0.6309 -0.0292 -0.3261
   35BDD    C2432473  10.036   3.069   0.738 -0.5642  0.9452 -0.0816
   35BDD    C2532474  10.088   2.704   0.261 -1.6420 -1.0099  0.9509
   35BDD    C2632475  10.123   2.563   0.285 -0.1379 -0.7656  0.8736
   36TPM     C132476  10.649   2.545  -0.032 -0.2580  0.4210  0.7207
   36TPM     C232477  10.706   2.468  -0.129 -0.0837  0.5938  0.6838
   36TPM     C332478  10.693   2.326  -0.106 -0.4168  0.5492  0.2441
   36TPM     C432479  10.626   2.295   0.009 -0.8448  0.3424 -0.0547
   36TPM     S132480  10.574   2.444   0.098 -0.8612  0.1869  0.1984
   37BDTP    C132481  10.523   1.702   0.207  0.1249 -0.0910 -0.0146
   37BDTP    C232482  10.586   1.764   0.319  0.0887 -0.0434 -0.0202
   37BDTP    C332483  10.627   1.896   0.318 -0.0694  0.0058 -0.0008
   37BDTP    C432484  10.605   1.972   0.202 -0.1974  0.0082  0.0254
   37BDTP    C532485  10.541   1.910   0.090 -0.1609 -0.0395  0.0310
   37BDTP    C632486  10.500   1.778   0.091 -0.0031 -0.0886  0.0116
   37BDTP    C732487  10.638   2.111   0.177 -0.3701  0.0545  0.0488
   37BDTP    C832488  10.603   2.156   0.054 -0.4640  0.0440  0.0714
   37BDTP    S132489  10.523   2.028  -0.048 -0.3471 -0.0260  0.0663
   37BDTP    C932490  10.489   1.563   0.232  0.2978 -0.1373 -0.0379
   37BDTP   C1032491  10.524   1.518   0.355  0.3922 -0.1269 -0.0606
   37BDTP    S232492  10.604   1.646   0.457  0.2748 -0.0569 -0.0554
   38FTM     S132493  10.607   2.125   0.482  0.0585  0.2468  0.5904
   38FTM     C132494  10.698   2.126   0.638  0.2337 -0.3308  0.4977
   38FTM     C232495  10.774   2.014   0.648  0.0925 -0.4675  0.0876
   38FTM     C332496  10.766   1.922   0.538 -0.1550 -0.1396 -0.1733
   38FTM     C432497  10.682   1.966   0.440 -0.2046  0.2615  0.0442
   38FTM     F132498  10.854   1.987   0.757  0.1786 -0.8980 -0.0760
   38FTM     C532499  10.672   2.238   0.730 -1.5478 -1.1641  0.0268
   38FTM     C632500  10.531   2.272   0.759 -0.2995  0.0989 -1.3059
   38FTM     C732501  10.484   2.167   0.872 -1.5020 -2.0629  0.5845
   38FTM     C832502  10.341   2.201   0.897 -0.6288  0.5316 -0.0471
   38FTM     C932503  10.295   2.133   1.028  0.9105  1.1017 -1.2569
   38FTM    C1032504  10.143   2.168   1.036  0.9955  0.7335  0.0010
   38FTM    C1132505  10.554   2.413   0.813 -0.5330  0.8021  1.2816
   38FTM    C1232506  10.480   2.527   0.747 -0.0202  0.8447 -0.3030
   39FTM     S132507  10.245   1.767  -0.054 -0.3516  0.3130 -0.2309
   39FTM     C132508  10.249   1.674  -0.208 -0.1607  0.2471 -0.1865
   39FTM     C232509  10.372   1.619  -0.225 -0.0405  0.5048 -0.1681
   39FTM     C332510  10.468   1.645  -0.122 -0.0885  0.7629 -0.1869
   39FTM     C432511  10.417   1.723  -0.023 -0.2504  0.7009 -0.2211
   39FTM     F132512  10.405   1.541  -0.336  0.1197  0.5222 -0.1333
   39FTM     C532513  10.133   1.643  -0.294  0.0430  0.2998  0.3079
   39FTM     C632514  10.039   1.764  -0.312  0.9593 -0.1185  0.3274
   39FTM     C732515  10.091   1.862  -0.413  0.7889  0.2146  0.8654
   39FTM     C832516  10.072   2.006  -0.367  0.2737  0.5891 -1.2202
   39FTM     C932517  10.152   2.090  -0.469  0.5647  0.6876 -0.2487
   39FTM    C1032518  10.057   2.206  -0.536 -0.8500  0.8468 -0.3516
   39FTM    C1132519   9.900   1.715  -0.347  0.3969 -0.1306 -0.2235
   39FTM    C1232520   9.841   1.575  -0.304  1.0596 -0.3797 -0.2743
   40TPM     C132521  10.482   1.399   0.432  0.5536 -0.5771 -0.2899
   40TPM     C232522  10.368   1.328   0.405  0.2010 -0.0143 -0.3175
   40TPM     C332523  10.351   1.212   0.487 -0.3817  0.0423 -0.3492
   40TPM     C432524  10.452   1.193   0.578 -0.4739 -0.4772 -0.3457
   40TPM     S132525  10.576   1.323   0.566  0.1735 -1.0831 -0.3020
   41BDD     C132526  10.448   0.970   0.901  0.5097  0.0936 -0.2737
   41BDD     C232527  10.458   0.884   0.796  0.3154  0.0888 -0.2899
   41BDD     C332528  10.460   0.950   0.667 -0.1190  0.0709 -0.3092
   41BDD     C432529  10.451   1.086   0.675 -0.2501  0.0625 -0.3074
   41BDD     S132530  10.440   1.141   0.846  0.1616  0.0763 -0.2815
   41BDD     C532531  10.467   0.737   0.810  0.5224  0.1003 -0.2882
   41BDD     C632532  10.471   0.876   0.539 -0.3886  0.0629 -0.3286
   41BDD     O132533  10.473   0.933   0.428 -0.7634  0.0475 -0.3453
   41BDD     O232534  10.465   0.680   0.921  0.8972  0.1157 -0.2715
   41BDD     C732535  10.480   0.729   0.553 -0.1819  0.0744 -0.3269
   41BDD     C832536  10.477   0.663   0.683  0.2525  0.0923 -0.3076
   41BDD     C932537  10.486   0.526   0.674  0.3836  0.1007 -0.3093
   41BDD     S232538  10.498   0.472   0.504 -0.0280  0.0869 -0.3352
   41BDD    C1032539  10.490   0.642   0.448 -0.3760  0.0695 -0.3431
   41BDD    C1132540  10.489   0.661   0.294 -0.0422  0.6207 -2.3304
   41BDD    C1232541  10.620   0.628   0.220  0.3171 -0.7140 -0.1182
   41BDD    C1332542  10.757   0.689   0.246  0.3164  0.3519  0.8353
   41BDD    C1432543  10.791   0.839   0.234 -0.7809 -0.1291 -0.3932
   41BDD    C1532544  10.923   0.855   0.171  0.4734 -0.6521  0.1576
   41BDD    C1632545  10.966   1.002   0.182  0.6092 -0.0572 -0.3715
   41BDD    C1732546  10.620   0.488   0.154 -0.3962 -0.1263 -0.3438
   41BDD    C1832547  10.658   0.358   0.240  1.3582 -0.4849  0.5939
   41BDD    C1932548  10.495   0.425   0.775 -1.2503  0.6509 -0.1302
   41BDD    C2032549  10.401   0.292   0.751 -0.3000 -1.2413 -0.2555
   41BDD    C2132550  10.258   0.328   0.766 -0.0503  0.0638 -1.3148
   41BDD    C2232551  10.235   0.312   0.920  0.1701 -0.8821 -0.0595
   41BDD    C2332552  10.179   0.440   0.962 -0.5148 -0.2536 -0.5830
   41BDD    C2432553  10.226   0.475   1.101  0.9346 -0.9744 -0.8960
   41BDD    C2532554  10.463   0.158   0.753  0.7366  0.5930  0.9970
   41BDD    C2632555  10.577   0.144   0.858  0.4496 -0.4989 -0.6712
   42TPM     C132556  10.442   0.955   1.050 -0.3718 -0.2289  0.3014
   42TPM     C232557  10.470   1.055   1.138 -0.9975  0.0106  0.2393
   42TPM     C332558  10.415   1.035   1.269 -1.0426 -0.1534  0.1958
   42TPM     C432559  10.344   0.919   1.282 -0.4512 -0.5179  0.2248
   42TPM     S132560  10.342   0.826   1.128  0.2138 -0.6836  0.3099
   43BDTP    C132561   9.908   0.858   1.745 -0.2165  0.0036  0.2301
   43BDTP    C232562   9.828   0.850   1.628 -0.2768 -0.2615  0.2881
   43BDTP    C332563   9.882   0.858   1.500 -0.3767 -0.2441  0.2470
   43BDTP    C432564  10.021   0.874   1.487 -0.4194  0.0483  0.1440
   43BDTP    C532565  10.101   0.883   1.605 -0.3591  0.3134  0.0860
   43BDTP    C632566  10.047   0.875   1.733 -0.2590  0.2960  0.1271
   43BDTP    C732567  10.099   0.885   1.366 -0.5209  0.1236  0.0849
   43BDTP    C832568  10.232   0.900   1.386 -0.5400  0.4284 -0.0133
   43BDTP    S132569  10.277   0.904   1.562 -0.4315  0.6631 -0.0448
   43BDTP    C932570   9.830   0.848   1.867 -0.1147 -0.0717  0.2892
   43BDTP   C1032571   9.697   0.832   1.847 -0.0958 -0.3765  0.3874
   43BDTP    S232572   9.652   0.829   1.671 -0.2041 -0.6112  0.4189
   44FTM     S132573   9.826   0.737   1.250  0.0445  0.0569 -0.1491
   44FTM     C132574   9.692   0.795   1.145 -0.1829  0.0720  0.1462
   44FTM     C232575   9.632   0.903   1.202  0.1979  0.3101  0.1018
   44FTM     C332576   9.685   0.946   1.328  0.6788  0.4909 -0.1583
   44FTM     C432577   9.789   0.869   1.369  0.6648  0.3879 -0.3183
   44FTM     F132578   9.525   0.970   1.143  0.1342  0.3784  0.2940
   44FTM     C532579   9.646   0.725   1.014 -0.2074  0.9488 -0.2118
   44FTM     C632580   9.780   0.671   0.941 -0.0399  0.1693 -0.5322
   44FTM     C732581   9.906   0.761   0.916  0.3274  1.3172  1.4276
   44FTM     C832582   9.878   0.902   0.864 -0.0738 -0.1249 -0.3399
   44FTM     C932583  10.019   0.970   0.834  2.0249  0.5308  0.4645
   44FTM    C1032584  10.037   1.057   0.947  0.3625 -1.0013  1.1101
   44FTM    C1132585   9.756   0.572   0.820 -0.1649 -0.2513  1.6398
   44FTM    C1232586   9.851   0.440   0.825  1.4725 -0.5570  1.1079
   45FTM     S132587  10.115   0.963   1.988  0.5136 -0.1167 -0.0123
   45FTM     C132588  10.270   0.902   2.057 -0.0897 -1.0360  0.5950
   45FTM     C232589  10.326   0.811   1.972 -0.4568 -1.6254  0.9775
   45FTM     C332590  10.252   0.783   1.852 -0.2949 -1.4036  0.8252
   45FTM     C432591  10.137   0.855   1.845  0.2124 -0.6186  0.3094
   45FTM     F132592  10.446   0.747   1.999 -0.9608 -2.4009  1.4881
   45FTM     C532593  10.343   0.968   2.169  0.8180 -0.6487  1.1569
   45FTM     C632594  10.288   1.014   2.305 -0.3505  0.1632  0.0686
   45FTM     C732595  10.378   1.083   2.401 -1.9618 -0.8152  0.1668
   45FTM     C832596  10.462   1.214   2.349  0.4320 -0.3024 -0.8722
   45FTM     C932597  10.366   1.314   2.283  0.3510 -0.0190 -1.6422
   45FTM    C1032598  10.444   1.422   2.200 -1.3061  0.6215  1.2916
   45FTM    C1132599  10.213   0.882   2.365 -0.2380 -1.3678 -1.5734
   45FTM    C1232600  10.086   0.937   2.439 -0.8850  0.0154 -0.3932
   46TPM     C132601   9.589   0.820   1.944  0.1757  0.3299 -0.1080
   46TPM     C232602   9.551   0.917   2.032  0.3800  0.3354 -0.0241
   46TPM     C332603   9.421   0.893   2.090  0.3533  0.5316 -0.0037
   46TPM     C432604   9.361   0.779   2.046  0.1288  0.6758 -0.0720
   46TPM     S132605   9.464   0.692   1.927 -0.0680  0.5741 -0.1681
   47BDD     C132606   8.990   0.748   2.166  0.0058  0.0920  0.5927
   47BDD     C232607   9.040   0.621   2.174 -0.0105  0.0750  0.4356
   47BDD     C332608   9.179   0.611   2.133 -0.0510  0.0845  0.2989
   47BDD     C432609   9.233   0.731   2.093 -0.0645  0.1086  0.3537
   47BDD     S132610   9.113   0.864   2.106 -0.0277  0.1210  0.5804
   47BDD     C532611   8.963   0.504   2.221  0.0098  0.0495  0.4053
   47BDD     C632612   9.254   0.484   2.133 -0.0751  0.0694  0.1187
   47BDD     O132613   9.373   0.475   2.097 -0.1099  0.0776  0.0008
   47BDD     O232614   8.843   0.513   2.257  0.0446  0.0413  0.5232
   47BDD     C732615   9.176   0.367   2.179 -0.0544  0.0438  0.0885
   47BDD     C832616   9.037   0.376   2.221 -0.0141  0.0343  0.2252
   47BDD     C932617   8.984   0.257   2.261 -0.0007  0.0103  0.1703
   47BDD     S232618   9.103   0.124   2.248 -0.0378 -0.0022 -0.0563
   47BDD    C1032619   9.226   0.240   2.188 -0.0713  0.0269 -0.0687
   47BDD    C1132620   9.361   0.172   2.151 -0.6566 -1.3646  1.6818
   47BDD    C1232621   9.415   0.059   2.224  0.8202  0.2691  0.7768
   47BDD    C1332622   9.545   0.089   2.289 -0.1879  0.4786 -0.2860
   47BDD    C1432623   9.541   0.142   2.435  0.7774  0.7941  0.5405
   47BDD    C1532624   9.432   0.222   2.507  1.1260  0.7182  0.4641
   47BDD    C1632625   9.448   0.248   2.664 -0.7441  0.4297  1.1672
   47BDD    C1732626   9.421  -0.068   2.133 -0.4911 -0.2971  0.2834
   47BDD    C1832627   9.303  -0.119   2.055  0.3395 -1.3082  0.0892
   47BDD    C1932628   8.840   0.207   2.309 -0.3719 -0.5839 -0.9470
   47BDD    C2032629   8.842   0.144   2.454  0.1374 -0.4393 -0.6002
   47BDD    C2132630   8.894   0.267   2.534 -0.4690  0.6545 -0.4375
   47BDD    C2232631   8.928   0.236   2.675  0.2713 -0.1668 -0.2246
   47BDD    C2332632   9.069   0.206   2.733 -0.7170  0.8297 -0.6136
   47BDD    C2432633   9.057   0.196   2.890  0.6079  0.9745 -0.2520
   47BDD    C2532634   8.722   0.068   2.471  0.3520 -0.1246 -0.8693
   47BDD    C2632635   8.671   0.014   2.610 -0.6218 -0.6483 -0.6973
   48TPM     C132636   8.866   0.819   2.187 -0.1570 -0.9058  0.9746
   48TPM     C232637   8.803   0.803   2.307 -0.6435 -0.8171  0.7351
   48TPM     C332638   8.700   0.901   2.332 -0.4458 -0.5298  0.4367
   48TPM     C432639   8.684   0.991   2.231  0.1905 -0.3994  0.4486
   48TPM     S132640   8.800   0.959   2.096  0.5934 -0.6311  0.8408
   49BDTP    C132641   8.142   1.283   2.259  0.2742  0.0494 -0.1175
   49BDTP    C232642   8.116   1.160   2.193  0.2613 -0.0432  0.0610
   49BDTP    C332643   8.216   1.071   2.157  0.2654 -0.0322  0.0446
   49BDTP    C432644   8.349   1.106   2.186  0.2825  0.0751 -0.1572
   49BDTP    C532645   8.376   1.230   2.252  0.2954  0.1677 -0.3356
   49BDTP    C632646   8.275   1.318   2.289  0.2915  0.1567 -0.3193
   49BDTP    C732647   8.470   1.031   2.158  0.2895  0.1070 -0.2132
   49BDTP    C832648   8.584   1.091   2.199  0.3068  0.2176 -0.4224
   49BDTP    S132649   8.555   1.252   2.279  0.3169  0.2970 -0.5779
   49BDTP    C932650   8.022   1.359   2.287  0.2675  0.0175 -0.0615
   49BDTP   C1032651   7.908   1.299   2.246  0.2500 -0.0932  0.1477
   49BDTP    S232652   7.937   1.138   2.167  0.2400 -0.1725  0.3033
   50FTM     S132653   8.161   0.790   2.139 -0.1897  0.1065  0.0126
   50FTM     C132654   8.073   0.741   1.989  0.6772  0.1239 -0.5175
   50FTM     C232655   8.063   0.847   1.905  1.2112  0.1218 -0.5865
   50FTM     C332656   8.123   0.970   1.950  0.9840  0.1070 -0.2397
   50FTM     C432657   8.179   0.957   2.073  0.2522  0.0974  0.1062
   50FTM     F132658   8.001   0.839   1.781  1.9373  0.1333 -0.9677
   50FTM     C532659   8.049   0.600   1.944  0.2060  0.3756  0.5492
   50FTM     C632660   7.915   0.539   1.959  0.6409 -0.7710 -1.5267
   50FTM     C732661   7.785   0.601   1.891 -0.5055 -0.2017 -0.1209
   50FTM     C832662   7.711   0.707   1.973 -0.2928 -1.0480 -0.3422
   50FTM     C932663   7.558   0.727   1.945  0.1565 -1.3476 -0.4598
   50FTM    C1032664   7.504   0.842   2.031  0.6166  1.9390 -0.2313
   50FTM    C1132665   7.905   0.392   1.940 -0.2860  0.2874  0.3756
   50FTM    C1232666   7.972   0.294   2.045  0.3621 -0.2982  1.2845
   51FTM     S132667   8.270   1.590   2.264  0.0608  0.1004  0.2626
   51FTM     C132668   8.317   1.693   2.404  0.3092 -0.1396  0.3575
   51FTM     C232669   8.345   1.615   2.512 -0.2859 -0.2954  0.4089
   51FTM     C332670   8.333   1.473   2.492 -0.9549 -0.2389  0.3784
   51FTM     C432671   8.294   1.442   2.365 -0.8693 -0.0332  0.3011
   51FTM     F132672   8.384   1.666   2.634 -0.2599 -0.4983  0.4865
   51FTM     C532673   8.353   1.835   2.410  0.3671  1.0381  0.1915
   51FTM     C632674   8.482   1.883   2.334  1.0803 -1.4825  0.1534
   51FTM     C732675   8.473   2.039   2.309 -0.5004  0.0369  0.2069
   51FTM     C832676   8.494   2.112   2.443 -0.6644 -0.7092 -0.1533
   51FTM     C932677   8.444   2.253   2.416  0.2598  1.3415  0.4331
   51FTM    C1032678   8.513   2.358   2.520 -0.4156 -0.3543 -0.1343
   51FTM    C1132679   8.612   1.837   2.381 -0.3396 -0.0571  1.1026
   51FTM    C1232680   8.715   1.770   2.282  0.4881  1.0969  0.0100
   52TPM     C132681   7.782   1.349   2.226  0.7231 -0.6108  0.1905
   52TPM     C232682   7.741   1.479   2.228  0.8699 -0.5367 -0.8037
   52TPM     C332683   7.598   1.495   2.221  0.9100 -0.3915 -1.4885
   52TPM     C432684   7.530   1.377   2.215  0.7938 -0.3548 -1.0165
   52TPM     S132685   7.642   1.235   2.217  0.6233 -0.5018  0.3402
   53BDD     C132686   7.138   1.354   2.252  0.2500 -0.4085 -0.2081
   53BDD     C232687   7.164   1.344   2.118  0.2571 -0.4444 -0.2040
   53BDD     C332688   7.305   1.347   2.085  0.2655 -0.6002 -0.1847
   53BDD     C432689   7.385   1.360   2.195  0.2646 -0.6809 -0.1746
   53BDD     S132690   7.290   1.369   2.347  0.2533 -0.5672 -0.1882
   53BDD     C532691   7.059   1.331   2.014  0.2564 -0.3369 -0.2176
   53BDD     C632692   7.355   1.338   1.947  0.2741 -0.6635 -0.1773
   53BDD     O132693   7.477   1.341   1.919  0.2812 -0.7978 -0.1607
   53BDD     O232694   6.937   1.328   2.042  0.2491 -0.2025 -0.2342
   53BDD     C732695   7.251   1.324   1.844  0.2735 -0.5559 -0.1909
   53BDD     C832696   7.109   1.321   1.876  0.2650 -0.4001 -0.2101
   53BDD     C932697   7.029   1.308   1.766  0.2661 -0.3195 -0.2204
   53BDD     S232698   7.125   1.299   1.615  0.2773 -0.4331 -0.2066
   53BDD    C1032699   7.276   1.314   1.710  0.2807 -0.5918 -0.1867
   53BDD    C1132700   7.400   1.328   1.627 -0.3077  0.1223  0.9175
   53BDD    C1232701   7.465   1.453   1.581  0.5253 -0.8617  0.6961
   53BDD    C1332702   7.599   1.431   1.525 -1.1781  1.3722  0.3073
   53BDD    C1432703   7.705   1.417   1.639 -1.9324  0.5334 -0.6755
   53BDD    C1532704   7.822   1.468   1.553  0.0134 -0.9125  1.4677
   53BDD    C1632705   7.869   1.602   1.608  0.1285  0.2493 -1.4806
   53BDD    C1732706   7.381   1.579   1.531 -0.1979 -0.9084  0.7575
   53BDD    C1832707   7.307   1.590   1.393  0.7035 -1.1841  1.0232
   53BDD    C1932708   6.872   1.288   1.742 -0.4342 -1.0393 -0.1261
   53BDD    C2032709   6.823   1.172   1.659 -0.1609 -0.1760 -1.1635
   53BDD    C2132710   6.880   1.054   1.730  1.0713  0.3235  1.1159
   53BDD    C2232711   6.814   0.909   1.723  1.0440 -0.3432  0.6818
   53BDD    C2332712   6.751   0.841   1.599 -0.9069  0.5012 -0.2915
   53BDD    C2432713   6.777   0.909   1.476 -0.6994  0.9741  2.2229
   53BDD    C2532714   6.689   1.206   1.610 -0.4802 -0.7210 -1.2041
   53BDD    C2632715   6.639   1.322   1.537 -0.6332 -0.7117 -1.1473
   54TPM     C132716   7.022   1.366   2.340  0.2081  0.7861 -0.5110
   54TPM     C232717   7.035   1.430   2.460  0.1984  1.1798 -0.7181
   54TPM     C332718   6.912   1.443   2.533  0.2809  0.9779 -0.5449
   54TPM     C432719   6.805   1.388   2.470  0.3537  0.4303 -0.2056
   54TPM     S132720   6.851   1.316   2.311  0.3231  0.1248 -0.0776
   55BDTP    C132721   6.216   1.388   2.697  0.2078 -0.2278 -0.0175
   55BDTP    C232722   6.202   1.328   2.569  0.0190 -0.0736 -0.0703
   55BDTP    C332723   6.310   1.307   2.484 -0.1105  0.0621 -0.2710
   55BDTP    C432724   6.438   1.346   2.528 -0.0513  0.0453 -0.4272
   55BDTP    C532725   6.452   1.407   2.656  0.1377 -0.1090 -0.3743
   55BDTP    C632726   6.344   1.428   2.741  0.2669 -0.2447 -0.1737
   55BDTP    C732727   6.564   1.335   2.458 -0.1599  0.1683 -0.6457
   55BDTP    C832728   6.671   1.382   2.526 -0.0631  0.1146 -0.7579
   55BDTP    S132729   6.626   1.449   2.690  0.1796 -0.0993 -0.6028
   55BDTP    C932730   6.090   1.400   2.767  0.3166 -0.3509  0.2010
   55BDTP   C1032731   5.983   1.352   2.699  0.2195 -0.2972  0.3133
   55BDTP    S232732   6.028   1.286   2.536 -0.0229 -0.0832  0.1581
   56FTM     S132733   6.372   1.085   2.303 -0.7464 -0.2371  0.4451
   56FTM     C132734   6.274   1.097   2.152 -0.4361  0.3188  0.2787
   56FTM     C232735   6.197   1.209   2.156  0.2869  0.8295  0.0841
   56FTM     C332736   6.211   1.291   2.272  0.6355  0.8198  0.0532
   56FTM     C432737   6.300   1.240   2.361  0.1639  0.2843  0.2300
   56FTM     F132738   6.111   1.245   2.053  0.6764  1.3361 -0.0775
   56FTM     C532739   6.302   0.993   2.052  1.3207 -0.2299  0.3742
   56FTM     C632740   6.187   0.932   1.963  0.3044  0.1161 -1.2174
   56FTM     C732741   6.066   0.869   2.052 -1.2348  0.7332 -0.1030
   56FTM     C832742   5.958   0.960   2.085  0.1234 -0.2659  0.8340
   56FTM     C932743   5.845   0.891   2.109 -1.1982  0.4157  0.3230
   56FTM    C1032744   5.716   0.972   2.090 -0.5207  0.5422 -0.2510
   56FTM    C1132745   6.208   0.857   1.836  0.4530 -0.1272  0.0428
   56FTM    C1232746   6.190   0.939   1.714 -0.0727 -0.8969  1.4700
   57FTM     S132747   6.281   1.615   2.944  0.0572 -0.1186  0.1004
   57FTM     C132748   6.347   1.590   3.110  0.1156 -0.1303  0.0754
   57FTM     C232749   6.425   1.478   3.112  0.3649  0.0398 -0.0318
   57FTM     C332750   6.438   1.407   2.988  0.5214  0.1858 -0.0994
   57FTM     C432751   6.368   1.467   2.887  0.3880  0.1258 -0.0422
   57FTM     F132752   6.489   1.433   3.227  0.4656  0.0732 -0.0750
   57FTM     C532753   6.293   1.667   3.213 -0.0980 -0.5257 -0.3069
   57FTM     C632754   6.269   1.630   3.352  0.7740 -0.9328  0.8790
   57FTM     C732755   6.373   1.627   3.463 -0.2278  0.8170  0.2606
   57FTM     C832756   6.485   1.518   3.481 -0.0378 -0.1919 -0.8550
   57FTM     C932757   6.419   1.416   3.578  0.8474  0.3109 -0.5501
   57FTM    C1032758   6.465   1.271   3.577 -2.1690 -0.2069 -0.3292
   57FTM    C1132759   6.118   1.592   3.393 -0.5202  0.1138  0.8224
   57FTM    C1232760   6.062   1.450   3.377 -0.8864 -1.5443 -0.8966
   58TPM     C132761   5.850   1.338   2.750  0.1868 -0.2371  0.4694
   58TPM     C232762   5.772   1.229   2.724  0.8738 -0.9277  1.1786
   58TPM     C332763   5.641   1.235   2.784  0.7589 -1.2712  0.9715
   58TPM     C432764   5.620   1.349   2.856 -0.0155 -0.8426  0.1045
   58TPM     S132765   5.764   1.458   2.854 -0.6647  0.0350 -0.5226
   59BDD     C132766   5.261   1.323   3.018 -0.0975 -0.0063 -0.2210
   59BDD     C232767   5.293   1.455   3.034 -0.0293 -0.0225 -0.2241
   59BDD     C332768   5.426   1.488   2.986 -0.1000 -0.0452 -0.4356
   59BDD     C432769   5.493   1.381   2.933 -0.2209 -0.0460 -0.5907
   59BDD     S132770   5.395   1.232   2.941 -0.2549 -0.0183 -0.4826
   59BDD     C532771   5.203   1.556   3.094  0.1032 -0.0177 -0.0329
   59BDD     C632772   5.482   1.625   2.993 -0.0448 -0.0653 -0.4761
   59BDD     O132773   5.596   1.654   2.951 -0.1057 -0.0849 -0.6585
   59BDD     O232774   5.089   1.527   3.136  0.1642  0.0019  0.1494
   59BDD     C732775   5.392   1.725   3.053  0.0877 -0.0605 -0.2848
   59BDD     C832776   5.259   1.692   3.102  0.1584 -0.0378 -0.0734
   59BDD     C932777   5.192   1.799   3.154  0.2793 -0.0370  0.0816
   59BDD     S232778   5.290   1.949   3.146  0.3132 -0.0646 -0.0265
   59BDD    C1032779   5.424   1.857   3.070  0.1558 -0.0767 -0.2880
   59BDD    C1132780   5.540   1.951   3.029 -0.3169  0.2283 -0.0547
   59BDD    C1232781   5.526   2.082   2.942 -0.2557  0.8958 -0.1681
   59BDD    C1332782   5.582   2.072   2.787  0.0127  0.9779  0.6760
   59BDD    C1432783   5.564   1.932   2.713 -0.3735 -2.0290 -1.2634
   59BDD    C1532784   5.572   1.946   2.567  0.3210  0.9330  0.0368
   59BDD    C1632785   5.519   1.806   2.510 -0.9193 -1.0914 -0.5858
   59BDD    C1732786   5.405   2.178   2.959 -0.8604 -0.1282 -1.2577
   59BDD    C1832787   5.384   2.306   2.882  1.1226 -0.0999  0.2556
   59BDD    C1932788   5.089   1.794   3.271  1.1218  0.8030 -0.6095
   59BDD    C2032789   4.934   1.832   3.234 -0.1431  0.6300  0.3176
   59BDD    C2132790   4.890   1.965   3.198  0.9063 -1.0032  0.4717
   59BDD    C2232791   4.947   2.055   3.085 -0.3255  1.9923 -0.5852
   59BDD    C2332792   4.931   2.209   3.068  0.3248  0.3579  0.7211
   59BDD    C2432793   4.985   2.266   2.935 -0.3113  0.0208 -0.1927
   59BDD    C2532794   4.836   1.756   3.321  0.2802  0.0153 -0.3986
   59BDD    C2632795   4.754   1.658   3.229 -0.8593 -0.4982 -0.6094
   60TPM     C132796   5.137   1.249   3.042 -0.2536 -0.9208 -0.9915
   60TPM     C232797   5.105   1.214   3.170 -0.3644 -0.0498 -0.7668
   60TPM     C332798   4.989   1.128   3.179 -1.0122  0.8555 -0.1837
   60TPM     C432799   4.933   1.098   3.059 -1.3950  0.6748  0.0361
   60TPM     S132800   5.023   1.176   2.923 -0.9638 -0.6633 -0.4802
    1BDTP    C132801   7.287   1.606  10.094 -0.1007  0.5196  0.1423
    1BDTP    C232802   7.242   1.554   9.970 -0.0199  0.4666  0.1349
    1BDTP    C332803   7.204   1.635   9.864  0.0502  0.4217  0.0753
    1BDTP    C432804   7.210   1.774   9.881  0.0403  0.4293  0.0198
    1BDTP    C532805   7.255   1.826  10.006 -0.0408  0.4822  0.0272
    1BDTP    C632806   7.293   1.745  10.112 -0.1109  0.5272  0.0870
    1BDTP    C732807   7.176   1.878   9.786  0.1035  0.3889 -0.0473
    1BDTP    C832808   7.193   2.004   9.833  0.0745  0.4088 -0.0901
    1BDTP    S132809   7.254   2.009  10.004 -0.0373  0.4814 -0.0515
    1BDTP    C932810   7.321   1.502  10.190 -0.1643  0.5600  0.2096
    1BDTP   C1032811   7.304   1.376  10.143 -0.1351  0.5401  0.2522
    1BDTP    S232812   7.242   1.371   9.972 -0.0234  0.4675  0.2140
    2FTM     S132813   7.085   1.404   9.730  0.3657 -0.5705 -0.1976
    2FTM     C132814   7.054   1.417   9.553  0.0284 -0.4459 -0.1317
    2FTM     C232815   7.099   1.537   9.506 -0.3834 -0.2640 -0.0691
    2FTM     C332816   7.159   1.624   9.604 -0.4597 -0.2117 -0.0691
    2FTM     C432817   7.160   1.568   9.728 -0.0946 -0.3583 -0.1333
    2FTM     F132818   7.089   1.575   9.374 -0.7154 -0.1341 -0.0083
    2FTM     C532819   7.006   1.303   9.486  0.1831  0.8973  0.5885
    2FTM     C632820   6.869   1.313   9.421 -0.3044 -0.0913 -0.2401
    2FTM     C732821   6.755   1.371   9.501  2.1838 -0.7718 -0.1691
    2FTM     C832822   6.746   1.340   9.653 -1.1137  0.1628 -0.2559
    2FTM     C932823   6.667   1.208   9.681 -0.0433  0.3806 -0.1949
    2FTM    C1032824   6.525   1.209   9.610  0.5821  0.2481  0.1109
    2FTM    C1132825   6.871   1.169   9.371  1.1763 -0.9495  0.9026
    2FTM    C1232826   6.756   1.139   9.265  1.0191  0.2526  0.4248
    3FTM     S132827   7.277   1.770  10.392  0.6244  0.2748 -0.0747
    3FTM     C132828   7.396   1.877  10.474  0.7849  0.3204 -0.3619
    3FTM     C232829   7.487   1.923  10.384  0.9236 -0.1489 -0.4683
    3FTM     C332830   7.470   1.879  10.249  0.9141 -0.5625 -0.3359
    3FTM     C432831   7.362   1.797  10.235  0.7631 -0.4048 -0.1213
    3FTM     F132832   7.591   2.008  10.419  1.0675 -0.2317 -0.6919
    3FTM     C532833   7.395   1.832  10.626  0.0121 -1.2204  0.8816
    3FTM     C632834   7.289   1.794  10.723  1.8332  1.8031 -0.6426
    3FTM     C732835   7.236   1.647  10.696 -0.6224 -0.7319  0.5484
    3FTM     C832836   7.324   1.527  10.671  1.0494 -0.8635 -0.2496
    3FTM     C932837   7.436   1.477  10.756 -0.2048 -0.7656  1.4394
    3FTM    C1032838   7.400   1.426  10.898  0.0459  0.6258  0.4034
    3FTM    C1132839   7.185   1.912  10.730 -0.6725  0.1886  1.1607
    3FTM    C1232840   7.078   1.919  10.838 -0.9942  0.4590  0.2922
    4TPM     C132841   7.345   1.255  10.223  0.0562  0.1975  0.0088
    4TPM     C232842   7.393   1.139  10.170  0.4652  0.3617  0.0129
    4TPM     C332843   7.430   1.041  10.269  0.5888  0.4060  0.0112
    4TPM     C432844   7.410   1.082  10.397  0.2744  0.2756  0.0060
    4TPM     S132845   7.342   1.249  10.403 -0.2063  0.0853  0.0024
    5BDD     C132846   7.537   0.941  10.746 -0.2312  0.1060  0.1887
    5BDD     C232847   7.468   0.840  10.685 -0.1340  0.0798  0.1214
    5BDD     C332848   7.413   0.877  10.556 -0.0072  0.0531  0.0584
    5BDD     C432849   7.440   1.006  10.521 -0.0096  0.0592  0.0786
    5BDD     S132850   7.537   1.090  10.646 -0.1707  0.0989  0.1781
    5BDD     C532851   7.451   0.705  10.743 -0.1539  0.0785  0.1123
    5BDD     C632852   7.335   0.783  10.473  0.1119  0.0224 -0.0198
    5BDD     O132853   7.287   0.816  10.362  0.2213 -0.0006 -0.0741
    5BDD     O232854   7.499   0.673  10.854 -0.2632  0.1016  0.1667
    5BDD     C732855   7.317   0.649  10.531  0.0917  0.0211 -0.0284
    5BDD     C832856   7.373   0.611  10.660 -0.0352  0.0478  0.0346
    5BDD     C932857   7.345   0.482  10.695 -0.0327  0.0417  0.0143
    5BDD     S232858   7.248   0.398  10.570  0.1284  0.0020 -0.0849
    5BDD    C1032859   7.248   0.547  10.470  0.1889 -0.0050 -0.0958
    5BDD    C1132860   7.175   0.538  10.336  0.5496  0.2317  0.4932
    5BDD    C1232861   7.236   0.458  10.224 -0.3052  0.7633  1.5993
    5BDD    C1332862   7.150   0.333  10.139  0.4790 -1.9024 -0.2726
    5BDD    C1432863   7.241   0.207  10.156 -1.6004  0.2078  1.6693
    5BDD    C1532864   7.252   0.113  10.026 -0.5458 -0.6855  0.2926
    5BDD    C1632865   7.125   0.044   9.960 -1.1448  0.9713  0.4878
    5BDD    C1732866   7.328   0.553  10.138  0.7668 -0.0539  0.7191
    5BDD    C1832867   7.442   0.487  10.070  0.9757  0.6310  1.0917
    5BDD    C1932868   7.397   0.378  10.790 -1.5685 -0.2078  0.0154
    5BDD    C2032869   7.299   0.319  10.901 -0.7990 -2.3630  0.0375
    5BDD    C2132870   7.261   0.422  11.019  0.2435 -1.1855  0.3617
    5BDD    C2232871   7.365   0.510  11.109 -0.5705  0.2987  0.2936
    5BDD    C2332872   7.473   0.425  11.180  0.2096 -0.4906  0.2227
    5BDD    C2432873   7.533   0.488  11.311 -0.1826  0.9515  1.3674
    5BDD    C2532874   7.180   0.245  10.837  0.8099 -0.1323  0.1613
    5BDD    C2632875   7.077   0.169  10.913 -0.0607 -1.2618  1.7348
    6TPM     C132876   7.632   0.963  10.867  0.8312  0.4115  0.1197
    6TPM     C232877   7.692   1.083  10.890  0.6679  0.5161  0.0076
    6TPM     C332878   7.756   1.093  11.019  0.4930  0.7923  0.0751
    6TPM     C432879   7.743   0.980  11.094  0.5227  0.8983  0.2386
    6TPM     S132880   7.650   0.852  11.008  0.7761  0.6556  0.3210
    7BDTP    C132881   8.130   0.979  11.582  0.2422  0.5459 -0.4272
    7BDTP    C232882   8.013   1.041  11.634  0.1316  0.2361 -0.3050
    7BDTP    C332883   7.896   1.056  11.560  0.0952  0.1505 -0.2660
    7BDTP    C432884   7.895   1.008  11.428  0.1717  0.3809 -0.3514
    7BDTP    C532885   8.012   0.946  11.375  0.2823  0.6907 -0.4735
    7BDTP    C632886   8.129   0.931  11.450  0.3183  0.7763 -0.5125
    7BDTP    C732887   7.787   1.012  11.332  0.1533  0.3477 -0.3324
    7BDTP    C832888   7.816   0.958  11.212  0.2439  0.6141 -0.4327
    7BDTP    S132889   7.986   0.893  11.203  0.3649  0.9446 -0.5660
    7BDTP    C932890   8.239   0.975  11.677  0.2604  0.5792 -0.4463
    7BDTP   C1032891   8.209   1.029  11.798  0.1700  0.3127 -0.3457
    7BDTP    S232892   8.039   1.094  11.807  0.0488 -0.0178 -0.2126
    8FTM     S132893   7.743   1.300  11.603 -0.1152  0.3747 -0.2886
    8FTM     C132894   7.575   1.273  11.661  0.0007  0.1996 -0.0298
    8FTM     C232895   7.554   1.140  11.681  0.3195  0.2209  0.4684
    8FTM     C332896   7.665   1.053  11.654  0.4891  0.3712  0.6743
    8FTM     C432897   7.774   1.122  11.611  0.2937  0.4680  0.3223
    8FTM     F132898   7.433   1.089  11.726  0.4770  0.1057  0.7676
    8FTM     C532899   7.478   1.391  11.643  0.9014  0.2786  0.1365
    8FTM     C632900   7.482   1.501  11.546  0.9527 -0.0171  0.5550
    8FTM     C732901   7.480   1.466  11.398  0.5500  0.0333 -0.0672
    8FTM     C832902   7.607   1.513  11.318  0.8930 -0.0249 -0.9470
    8FTM     C932903   7.603   1.574  11.180 -0.2729  0.3549  1.6595
    8FTM    C1032904   7.524   1.703  11.192 -1.1154 -0.4522 -0.0541
    8FTM    C1132905   7.402   1.624  11.561  0.2893  0.7727 -0.8936
    8FTM    C1232906   7.393   1.706  11.691  0.6646  0.3650  0.5591
    9FTM     S132907   8.315   0.939  11.240  0.5534  0.5681  0.2378
    9FTM     C132908   8.418   0.797  11.200  0.0868  0.3853 -0.3374
    9FTM     C232909   8.392   0.695  11.287  0.0601  0.2647 -0.4845
    9FTM     C332910   8.294   0.722  11.387  0.3922  0.3062 -0.1664
    9FTM     C432911   8.242   0.847  11.377  0.6833  0.4637  0.2375
    9FTM     F132912   8.457   0.573  11.280 -0.2673  0.1097 -0.9160
    9FTM     C532913   8.473   0.784  11.066 -0.2801 -0.5240  0.1408
    9FTM     C632914   8.629   0.781  11.071  1.0114  0.9780 -0.5546
    9FTM     C732915   8.720   0.859  11.165  0.6486 -1.1608  0.8888
    9FTM     C832916   8.757   0.999  11.105 -0.3729  0.0061 -0.7586
    9FTM     C932917   8.673   1.118  11.118  0.5703 -0.6678  0.2702
    9FTM    C1032918   8.693   1.259  11.071  0.4342  0.2405  1.6995
    9FTM    C1132919   8.661   0.637  11.042  1.1239 -0.4728  0.7149
    9FTM    C1232920   8.702   0.537  11.143 -0.0430  0.4173 -0.3150
   10TPM     C132921   8.308   1.049  11.908  0.3511  0.3737  0.4952
   10TPM     C232922   8.443   1.057  11.891  0.3974  0.6849  0.9823
   10TPM     C332923   8.514   1.088  12.012 -0.1082  0.8441  1.2451
   10TPM     C432924   8.434   1.104  12.121 -0.5403  0.6542  0.9583
   10TPM     S132925   8.260   1.081  12.079 -0.3402  0.2566  0.3293
   11BDD     C132926   8.553   1.269  12.467 -0.4028 -0.1334 -0.0476
   11BDD     C232927   8.596   1.139  12.469 -0.3219 -0.1061 -0.0024
   11BDD     C332928   8.558   1.064  12.351 -0.2041 -0.1481 -0.0132
   11BDD     C432929   8.488   1.137  12.260 -0.1971 -0.2069 -0.0663
   11BDD     S132930   8.463   1.306  12.316 -0.3376 -0.2136 -0.1065
   11BDD     C532931   8.672   1.079  12.581 -0.3498 -0.0403  0.0521
   11BDD     C632932   8.594   0.922  12.333 -0.1025 -0.1285  0.0297
   11BDD     O132933   8.562   0.857  12.231 -0.0007 -0.1647  0.0204
   11BDD     O232934   8.705   1.144  12.683 -0.4516 -0.0040  0.0614
   11BDD     C732935   8.671   0.862  12.444 -0.1304 -0.0627  0.0843
   11BDD     C832936   8.708   0.937  12.562 -0.2484 -0.0207  0.0950
   11BDD     C932937   8.778   0.864  12.654 -0.2558  0.0381  0.1481
   11BDD     S232938   8.803   0.695  12.597 -0.1153  0.0448  0.1884
   11BDD    C1032939   8.713   0.732  12.447 -0.0496 -0.0354  0.1294
   11BDD    C1132940   8.711   0.599  12.364  0.1341 -0.9674 -0.3292
   11BDD    C1232941   8.835   0.565  12.275  0.5850 -0.8302 -0.3863
   11BDD    C1332942   8.893   0.680  12.168 -0.3279  0.3162 -1.5097
   11BDD    C1432943   8.943   0.826  12.217  0.3737  0.6034  0.1590
   11BDD    C1532944   9.081   0.845  12.287  1.6352  0.5213  0.8161
   11BDD    C1632945   9.181   0.918  12.202  1.1936  0.3490 -1.5289
   11BDD    C1732946   8.824   0.428  12.200 -1.6319  0.3492 -1.5093
   11BDD    C1832947   8.798   0.300  12.297  1.0740  0.1985  1.9819
   11BDD    C1932948   8.840   0.904  12.777  1.3983 -0.0349 -0.3907
   11BDD    C2032949   8.832   0.783  12.884  0.0639 -0.0928 -0.9929
   11BDD    C2132950   8.697   0.732  12.929  0.2563  0.2520  0.4755
   11BDD    C2232951   8.593   0.811  12.994  0.1271 -0.8898 -0.5143
   11BDD    C2332952   8.450   0.764  12.962 -0.3051 -1.0016  0.1856
   11BDD    C2432953   8.417   0.781  12.816 -1.0302  0.2346 -0.1755
   11BDD    C2532954   8.912   0.809  13.013 -0.0353  0.7864 -0.8798
   11BDD    C2632955   9.060   0.852  12.993 -0.1471 -0.0838  0.4012
   12TPM     C132956   8.587   1.385  12.550 -1.0655 -0.4836  1.5329
   12TPM     C232957   8.715   1.423  12.577 -0.9401 -0.9823  1.6651
   12TPM     C332958   8.726   1.556  12.632 -0.4101 -0.6375  0.7647
   12TPM     C432959   8.606   1.619  12.646 -0.1309  0.1241 -0.0542
   12TPM     S132960   8.469   1.515  12.592 -0.5194  0.4675  0.2508
   13BDTP    C132961   8.510   2.144  12.982  0.1895 -0.0226  0.3820
   13BDTP    C232962   8.649   2.152  12.951  0.2196 -0.2504  0.4550
   13BDTP    C332963   8.714   2.056  12.874  0.1180 -0.3926  0.5454
   13BDTP    C432964   8.639   1.947  12.826 -0.0198 -0.3065  0.5651
   13BDTP    C532965   8.500   1.939  12.858 -0.0498 -0.0787  0.4922
   13BDTP    C632966   8.435   2.035  12.934  0.0515  0.0634  0.4017
   13BDTP    C732967   8.684   1.836  12.745 -0.1424 -0.4216  0.6534
   13BDTP    C832968   8.587   1.746  12.715 -0.2615 -0.2929  0.6503
   13BDTP    S132969   8.425   1.790  12.784 -0.2356 -0.0079  0.5352
   13BDTP    C932970   8.464   2.255  13.063  0.3119  0.0924  0.2937
   13BDTP   C1032971   8.561   2.345  13.094  0.4311 -0.0363  0.2968
   13BDTP    S232972   8.723   2.301  13.024  0.4050 -0.3214  0.4119
   14FTM     S132973   8.962   2.069  13.005 -0.6808 -0.2491  0.1988
   14FTM     C132974   9.105   2.011  12.911  0.0346  0.4316  0.8442
   14FTM     C232975   9.067   1.980  12.784  0.8681  0.7592  0.5044
   14FTM     C332976   8.929   1.999  12.752  0.9990  0.5071 -0.2601
   14FTM     C432977   8.858   2.045  12.859  0.2403 -0.0312 -0.5140
   14FTM     F132978   9.156   1.933  12.689  1.5633  1.3069  0.8655
   14FTM     C532979   9.231   1.999  12.978  0.6841 -0.4845  0.3880
   14FTM     C632980   9.316   1.887  12.980  0.0137  0.4522  0.2469
   14FTM     C732981   9.244   1.762  13.033  0.2740  1.1040 -0.2364
   14FTM     C832982   9.161   1.782  13.169 -0.5188  0.8478 -0.3395
   14FTM     C932983   9.107   1.677  13.264 -0.6199  1.5385  0.1420
   14FTM    C1032984   9.238   1.615  13.320 -0.6632 -0.3429  0.1709
   14FTM    C1132985   9.436   1.927  13.068 -0.5457  0.3304 -0.5012
   14FTM    C1232986   9.523   2.043  13.022  0.2457 -1.5127  0.3505
   15FTM     S132987   8.164   2.097  12.906  0.0219  0.4528 -0.0336
   15FTM     C132988   8.047   2.010  13.012 -0.1798  0.1615 -0.4879
   15FTM     C232989   8.114   1.930  13.099 -0.3679 -0.5623 -0.9905
   15FTM     C332990   8.257   1.932  13.089 -0.3674 -0.9257 -1.0515
   15FTM     C432991   8.301   2.016  12.991 -0.1717 -0.4651 -0.5802
   15FTM     F132992   8.051   1.851  13.193 -0.5524 -0.9387 -1.4251
   15FTM     C532993   7.894   2.017  13.030  0.0921  0.3889 -0.4473
   15FTM     C632994   7.832   1.971  12.885  0.8723  0.8679 -0.2132
   15FTM     C732995   7.866   2.048  12.758 -0.5015 -0.7843  0.7088
   15FTM     C832996   7.837   2.205  12.734  2.3173  0.0676  0.6178
   15FTM     C932997   7.731   2.222  12.619  0.1630 -0.2037  1.1327
   15FTM    C1032998   7.770   2.194  12.469 -0.1117  0.6730 -0.4016
   15FTM    C1132999   7.679   1.946  12.871  0.4476  0.2044 -1.4836
   15FTM    C1233000   7.628   1.848  12.981  0.5253 -1.3611 -0.3651
   16TPM     C133001   8.543   2.446  13.190  0.0800 -0.2099 -0.6203
   16TPM     C233002   8.628   2.546  13.225 -0.1643  0.0554 -0.7764
   16TPM     C333003   8.589   2.617  13.344 -0.1032 -0.1468 -0.6350
   16TPM     C433004   8.473   2.570  13.400  0.1882 -0.5663 -0.3710
   16TPM     S133005   8.405   2.433  13.306  0.4094 -0.7398 -0.2799
   17BDD     C133006   8.438   2.675  13.777 -0.0042 -0.1730  0.3522
   17BDD     C233007   8.312   2.640  13.736 -0.0279 -0.0929  0.3571
   17BDD     C333008   8.306   2.603  13.595 -0.0567 -0.0900  0.3576
   17BDD     C433009   8.427   2.610  13.532 -0.0546 -0.1681  0.3531
   17BDD     S133010   8.557   2.663  13.643 -0.0165 -0.2505  0.3480
   17BDD     C533011   8.193   2.640  13.823 -0.0253 -0.0160  0.3614
   17BDD     C633012   8.180   2.562  13.529 -0.0856 -0.0101  0.3626
   17BDD     O133013   8.175   2.531  13.408 -0.1104 -0.0076  0.3631
   17BDD     O233014   8.199   2.672  13.944 -0.0005 -0.0185  0.3610
   17BDD     C733015   8.061   2.562  13.617 -0.0825  0.0669  0.3670
   17BDD     C833016   8.067   2.599  13.757 -0.0539  0.0640  0.3665
   17BDD     C933017   7.946   2.592  13.821 -0.0559  0.1420  0.3710
   17BDD     S233018   7.816   2.539  13.709 -0.0942  0.2244  0.3762
   17BDD    C1033019   7.935   2.528  13.576 -0.1062  0.1470  0.3719
   17BDD    C1133020   7.898   2.483  13.436  0.2233 -1.1018 -0.5043
   17BDD    C1233021   7.815   2.357  13.428 -0.1170 -0.2820 -0.7064
   17BDD    C1333022   7.845   2.218  13.502 -0.7954  0.3325 -0.4274
   17BDD    C1433023   7.770   2.095  13.464 -0.1883 -0.1264  0.2921
   17BDD    C1533024   7.824   1.968  13.535  1.4983  0.3576  0.9341
   17BDD    C1633025   7.830   1.953  13.688  0.3273 -1.5601 -0.0121
   17BDD    C1733026   7.661   2.385  13.398  0.3254  0.7843 -0.1120
   17BDD    C1833027   7.550   2.412  13.498 -0.7830  0.5144  0.1721
   17BDD    C1933028   7.897   2.595  13.970  0.5572 -1.6589  1.2292
   17BDD    C2033029   7.973   2.547  14.079 -1.0060 -0.5794 -1.2742
   17BDD    C2133030   8.039   2.414  14.064  0.9663  1.4724  1.2325
   17BDD    C2233031   8.150   2.369  14.149 -0.6509  0.4178 -0.1659
   17BDD    C2333032   8.257   2.467  14.187  0.8617 -0.0247  0.8387
   17BDD    C2433033   8.352   2.433  14.297 -0.5908 -0.5903 -0.0137
   17BDD    C2533034   7.903   2.564  14.221  0.9992  0.1136  0.7771
   17BDD    C2633035   7.834   2.441  14.280  1.8538 -1.8486  0.2298
   18TPM     C133036   8.505   2.728  13.904 -0.1851 -0.3818  0.3650
   18TPM     C233037   8.439   2.753  14.021  0.0696 -0.2818  0.4893
   18TPM     C333038   8.525   2.792  14.129  0.2868  0.0585  0.2015
   18TPM     C433039   8.657   2.795  14.096  0.1975  0.2180 -0.1423
   18TPM     S133040   8.683   2.750  13.923 -0.1708 -0.0513 -0.1290
   19BDTP    C133041   9.126   2.905  14.493  0.0551 -0.2318  0.2390
   19BDTP    C233042   9.162   2.784  14.428  0.2081 -0.1160  0.1066
   19BDTP    C333043   9.084   2.725  14.329  0.3386 -0.0470 -0.0378
   19BDTP    C433044   8.965   2.790  14.293  0.3176 -0.0946 -0.0528
   19BDTP    C533045   8.928   2.911  14.358  0.1645 -0.2105  0.0796
   19BDTP    C633046   9.006   2.969  14.457  0.0340 -0.2795  0.2240
   19BDTP    C733047   8.868   2.748  14.193  0.4352 -0.0400 -0.1904
   19BDTP    C833048   8.762   2.831  14.180  0.3786 -0.1085 -0.1681
   19BDTP    S133049   8.770   2.974  14.293  0.1678 -0.2518  0.0305
   19BDTP    C933050   9.222   2.947  14.593 -0.0627 -0.2865  0.3766
   19BDTP   C1033051   9.328   2.863  14.606 -0.0057 -0.2180  0.3542
   19BDTP    S233052   9.321   2.721  14.493  0.2043 -0.0747  0.1558
   20FTM     S133053   9.176   2.580  14.107 -0.0845 -0.2281  0.2154
   20FTM     C133054   9.173   2.400  14.119  0.7003 -0.2394  0.3200
   20FTM     C233055   9.130   2.362  14.242  0.9480 -0.3586  0.3713
   20FTM     C333056   9.097   2.468  14.333  0.5517 -0.4463  0.3332
   20FTM     C433057   9.116   2.591  14.277 -0.0174 -0.3926  0.2501
   20FTM     F133058   9.118   2.229  14.280  1.5478 -0.3952  0.4556
   20FTM     C533059   9.180   2.317  13.988 -1.2112 -0.4854 -0.7414
   20FTM     C633060   9.316   2.291  13.906  0.5685 -0.7858  0.7979
   20FTM     C733061   9.308   2.199  13.785  0.5392  0.5176  0.8078
   20FTM     C833062   9.167   2.223  13.704  1.3611 -0.0614  0.5126
   20FTM     C933063   9.126   2.106  13.613 -0.4604  0.9896  0.6116
   20FTM    C1033064   9.103   1.967  13.669  0.0293  0.9928  0.1187
   20FTM    C1133065   9.435   2.305  13.993 -0.3224 -0.8779 -0.2694
   20FTM    C1233066   9.570   2.321  13.936 -0.2481  0.5685 -0.4521
   21FTM     S133067   8.775   3.099  14.568 -0.2095  0.2143 -0.1692
   21FTM     C133068   8.799   3.247  14.669 -0.2090  0.1820 -0.1221
   21FTM     C233069   8.931   3.279  14.674 -0.2160  0.2191 -0.1679
   21FTM     C333070   9.020   3.192  14.602 -0.2227  0.2735 -0.2407
   21FTM     C433071   8.953   3.091  14.539 -0.2196  0.2783 -0.2510
   21FTM     F133072   8.979   3.388  14.745 -0.2177  0.2060 -0.1466
   21FTM     C533073   8.702   3.320  14.759 -0.6769  0.1163  0.3962
   21FTM     C633074   8.554   3.283  14.759  0.8862 -0.9001 -0.8901
   21FTM     C733075   8.504   3.146  14.822  0.0100  0.0517  0.5722
   21FTM     C833076   8.562   3.094  14.950 -0.5083  1.1364 -0.0314
   21FTM     C933077   8.702   3.042  14.967 -1.3375  0.6221 -0.1295
   21FTM    C1033078   8.737   2.894  14.922  0.0751 -0.5538 -0.1659
   21FTM    C1133079   8.452   3.387  14.811  0.0773 -0.2475  0.8651
   21FTM    C1233080   8.496   3.538  14.812  0.3650  1.5050  0.1610
   22TPM     C133081   9.451   2.880  14.667 -0.8676  0.6258 -0.6813
   22TPM     C233082   9.501   2.790  14.755 -1.6296  0.5098 -0.3490
   22TPM     C333083   9.604   2.843  14.841 -1.6816  0.1416 -0.0496
   22TPM     C433084   9.633   2.975  14.817 -0.9588 -0.0229 -0.1535
   22TPM     S133085   9.530   3.042  14.684 -0.1507  0.2765 -0.6413
   23BDD     C133086   9.980   3.151  14.828  0.2045 -0.0052 -0.4594
   23BDD     C233087   9.945   3.125  14.958  0.2356 -0.1885 -0.4866
   23BDD     C333088   9.818   3.055  14.971  0.3188 -0.3537 -0.5618
   23BDD     C433089   9.758   3.028  14.851  0.3495 -0.2940 -0.5907
   23BDD     S133090   9.856   3.089  14.714  0.2770 -0.0268 -0.5259
   23BDD     C533091  10.026   3.164  15.075  0.1900 -0.2186 -0.4445
   23BDD     C633092   9.761   3.017  15.102  0.3643 -0.5649 -0.6022
   23BDD     O133093   9.652   2.957  15.113  0.4358 -0.7073 -0.6670
   23BDD     O233094  10.136   3.224  15.064  0.1185 -0.0761 -0.3797
   23BDD     C733095   9.843   3.056  15.219  0.3185 -0.5949 -0.5601
   23BDD     C833096   9.969   3.126  15.206  0.2353 -0.4297 -0.4849
   23BDD     C933097  10.029   3.153  15.326  0.2041 -0.4895 -0.4559
   23BDD     S233098   9.931   3.092  15.463  0.2769 -0.7567 -0.5206
   23BDD    C1033099   9.808   3.031  15.349  0.3493 -0.7783 -0.5873
   23BDD    C1133100   9.699   2.950  15.416  1.3312  0.2834  0.2675
   23BDD    C1233101   9.680   2.792  15.392  0.8675  0.3773  0.0824
   23BDD    C1333102   9.812   2.716  15.366 -0.6736 -0.1142 -0.6583
   23BDD    C1433103   9.921   2.738  15.483  0.5767 -0.7866 -0.4010
   23BDD    C1533104   9.896   2.692  15.616  0.0408 -0.1402  0.0057
   23BDD    C1633105   9.947   2.546  15.639 -0.3896 -0.0859  1.2850
   23BDD    C1733106   9.569   2.732  15.487  1.3506 -0.2013 -1.8406
   23BDD    C1833107   9.492   2.611  15.439 -0.5529  0.3702 -0.1274
   23BDD    C1933108  10.146   3.232  15.373 -0.1680  0.6377  0.1265
   23BDD    C2033109  10.221   3.158  15.486 -0.0807 -0.0064 -0.3060
   23BDD    C2133110  10.263   3.260  15.594 -1.8021 -1.3440  0.3708
   23BDD    C2233111  10.367   3.229  15.723  0.2170 -0.2731  0.9750
   23BDD    C2333112  10.502   3.247  15.667 -0.3669  0.3819  0.1353
   23BDD    C2433113  10.558   3.382  15.711  0.2782 -0.2706 -0.0905
   23BDD    C2533114  10.304   3.032  15.472  0.2411  1.2820  0.0769
   23BDD    C2633115  10.369   2.998  15.334  0.8023 -1.1977 -0.3580
   24TPM     C133116  10.107   3.202  14.772 -0.1077 -0.0513 -0.6515
   24TPM     C233117  10.147   3.330  14.801 -0.4838  0.2037 -1.2177
   24TPM     C333118  10.238   3.385  14.704 -0.5989  0.0198 -1.4334
   24TPM     C433119  10.267   3.300  14.601 -0.3111 -0.3754 -1.0316
   24TPM     S133120  10.181   3.142  14.619  0.1320 -0.5473 -0.3445
   25BDTP    C133121  10.743   3.346  14.187  0.0813  0.1982 -0.5135
   25BDTP    C233122  10.703   3.210  14.175  0.2012  0.1379 -0.2463
   25BDTP    C333123  10.595   3.157  14.245  0.4742  0.0831  0.1435
   25BDTP    C433124  10.523   3.243  14.330  0.6375  0.0879  0.2769
   25BDTP    C533125  10.563   3.379  14.342  0.5176  0.1483  0.0097
   25BDTP    C633126  10.671   3.432  14.273  0.2444  0.2030 -0.3801
   25BDTP    C733127  10.408   3.211  14.412  0.9250  0.0379  0.6670
   25BDTP    C833128  10.360   3.316  14.484  1.0254  0.0575  0.7052
   25BDTP    S133129  10.455   3.469  14.458  0.7699  0.1420  0.2525
   25BDTP    C933130  10.858   3.378  14.105 -0.2065  0.2483 -0.9036
   25BDTP   C1033131  10.906   3.273  14.033 -0.3066  0.2286 -0.9418
   25BDTP    S233132  10.811   3.120  14.059 -0.0513  0.1441 -0.4891
   26FTM     S133133  10.592   2.883  14.372 -0.0290  0.0047 -0.5115
   26FTM     C133134  10.532   2.758  14.257 -0.4801  0.0952 -0.3790
   26FTM     C233135  10.499   2.816  14.139 -0.9661  0.1917 -0.2006
   26FTM     C333136  10.517   2.958  14.131 -1.0159  0.2011 -0.1571
   26FTM     C433137  10.567   3.010  14.246 -0.5531  0.1086 -0.3072
   26FTM     F133138  10.449   2.744  14.031 -1.3945  0.2775 -0.0660
   26FTM     C533139  10.571   2.600  14.273  0.2475 -0.7663 -0.4613
   26FTM     C633140  10.631   2.502  14.385  0.6475 -0.4982  0.2025
   26FTM     C733141  10.557   2.472  14.521  0.2408 -0.8479  0.0141
   26FTM     C833142  10.400   2.426  14.541 -0.1726 -0.1051  0.9636
   26FTM     C933143  10.346   2.314  14.461 -0.4564  1.3662  1.0057
   26FTM    C1033144  10.234   2.231  14.516  0.4360 -0.5594  0.7066
   26FTM    C1133145  10.690   2.378  14.347  0.2899  0.1511  1.2207
   26FTM    C1233146  10.802   2.375  14.235  0.5383  0.2387  0.1631
   27FTM     S133147  10.569   3.697  14.226  0.6967  0.3352 -0.1701
   27FTM     C133148  10.683   3.835  14.244  0.8428  0.2107 -0.1358
   27FTM     C233149  10.804   3.790  14.286  0.7069  0.1056  0.1480
   27FTM     C333150  10.815   3.649  14.306  0.4864  0.1151  0.3511
   27FTM     C433151  10.699   3.583  14.279  0.4520  0.2314  0.2185
   27FTM     F133152  10.912   3.874  14.309  0.7744 -0.0055  0.2408
   27FTM     C533153  10.627   3.980  14.257  0.3735  0.3631 -0.2433
   27FTM     C633154  10.473   3.992  14.299  0.4544  0.5941  0.0395
   27FTM     C733155  10.408   3.889  14.401 -0.2357 -0.9637  0.7294
   27FTM     C833156  10.496   3.860  14.521  0.8504  0.7371  0.1518
   27FTM     C933157  10.474   3.942  14.650 -0.9220  0.0783 -1.1689
   27FTM    C1033158  10.578   4.054  14.664 -0.8453  0.0111  0.0639
   27FTM    C1133159  10.388   4.057  14.201 -0.0665 -1.0141 -0.7339
   27FTM    C1233160  10.346   4.208  14.242  0.3435  0.5426  0.0131
   28TPM     C133161  11.035   3.281  13.963  0.1539  0.0939 -0.0911
   28TPM     C233162  11.078   3.183  13.878 -0.1376  0.1389 -0.2962
   28TPM     C333163  11.209   3.208  13.823 -0.1063 -0.0825 -0.3229
   28TPM     C433164  11.265   3.325  13.864  0.2089 -0.2963 -0.1380
   28TPM     S133165  11.157   3.414  13.978  0.4927 -0.2340  0.0856
   29BDD     C133166  11.626   3.411  13.736  0.0003 -0.0062 -0.0372
   29BDD     C233167  11.543   3.506  13.684  0.0445  0.0414 -0.0203
   29BDD     C333168  11.405   3.490  13.724  0.0548  0.1616  0.0648
   29BDD     C433169  11.384   3.382  13.806  0.0183  0.2040  0.1116
   29BDD     S133170  11.537   3.294  13.838 -0.0315  0.0961  0.0523
   29BDD     C533171  11.589   3.616  13.596  0.0789 -0.0219 -0.0816
   29BDD     C633172  11.298   3.582  13.680  0.1004  0.2301  0.0967
   29BDD     O133173  11.178   3.568  13.715  0.1092  0.3338  0.1701
   29BDD     O233174  11.708   3.630  13.561  0.0701 -0.1256 -0.1550
   29BDD     C733175  11.343   3.692  13.592  0.1349  0.1670  0.0353
   29BDD     C833176  11.482   3.708  13.552  0.1245  0.0467 -0.0498
   29BDD     C933177  11.502   3.816  13.470  0.1611  0.0044 -0.0966
   29BDD     S233178  11.350   3.904  13.438  0.2113  0.1121 -0.0372
   29BDD    C1033179  11.260   3.788  13.540  0.1791  0.2145  0.0522
   29BDD    C1133180  11.117   3.786  13.528  2.0400 -1.2527  0.5770
   29BDD    C1233181  11.005   3.887  13.586  0.1701  0.7714  0.4961
   29BDD    C1333182  10.972   3.876  13.739  1.2046  0.1277  0.3747
   29BDD    C1433183  11.098   3.886  13.826 -1.0024 -1.0363 -0.6695
   29BDD    C1533184  11.019   3.922  13.961 -0.7774  0.5093 -0.6034
   29BDD    C1633185  11.078   4.035  14.042 -0.7895  0.4627  0.0288
   29BDD    C1733186  10.900   3.953  13.502 -0.0538 -0.0930 -0.1477
   29BDD    C1833187  10.928   4.094  13.474 -0.7033 -0.9733 -0.2771
   29BDD    C1933188  11.611   3.889  13.408  0.5675  0.4889  0.3028
   29BDD    C2033189  11.683   3.980  13.509  0.1917 -1.4345  0.4967
   29BDD    C2133190  11.598   4.106  13.529 -0.3098  0.6271  0.2572
   29BDD    C2233191  11.530   4.133  13.656  0.5404 -0.7442 -0.2301
   29BDD    C2333192  11.543   4.281  13.704 -0.5726  0.0873  0.1079
   29BDD    C2433193  11.459   4.374  13.606 -0.6690  0.8271 -1.1435
   29BDD    C2533194  11.776   3.903  13.616 -0.4964  0.2730 -0.9269
   29BDD    C2633195  11.896   3.938  13.688  1.0804  0.2113 -0.8529
   30TPM     C133196  11.768   3.380  13.744  0.9991  0.0992 -0.5557
   30TPM     C233197  11.830   3.474  13.822  1.1047 -0.3178 -0.1308
   30TPM     C333198  11.923   3.417  13.917  0.4512 -0.9112  0.1759
   30TPM     C433199  11.931   3.281  13.911 -0.1526 -0.9466 -0.0153
   30TPM     S133200  11.822   3.213  13.785  0.0589 -0.2277 -0.6020
   31BDTP    C133201  12.416   2.938  14.077 -0.0081  0.1795 -0.3226
   31BDTP    C233202  12.342   2.850  13.993  0.1372  0.0572 -0.3241
   31BDTP    C333203  12.219   2.885  13.938  0.1335 -0.1014 -0.4176
   31BDTP    C433204  12.166   3.012  13.968 -0.0206 -0.1417 -0.5143
   31BDTP    C533205  12.240   3.099  14.053 -0.1659 -0.0194 -0.5130
   31BDTP    C633206  12.363   3.065  14.108 -0.1622  0.1392 -0.4194
   31BDTP    C733207  12.041   3.070  13.924 -0.0552 -0.2976 -0.6210
   31BDTP    C833208  12.018   3.195  13.970 -0.2173 -0.2983 -0.6987
   31BDTP    S133209  12.151   3.257  14.077 -0.3490 -0.1016 -0.6477
   31BDTP    C933210  12.541   2.880  14.122  0.0265  0.3353 -0.2161
   31BDTP   C1033211  12.564   2.755  14.075  0.1886  0.3360 -0.1384
   31BDTP    S233212  12.431   2.693  13.968  0.3204  0.1394 -0.1894
   32FTM     S133213  12.234   2.786  13.667 -0.3325  0.2654 -0.3696
   32FTM     C133214  12.102   2.673  13.618  0.4110 -0.5951 -0.4497
   32FTM     C233215  12.015   2.656  13.721  0.5272 -1.2649 -0.4583
   32FTM     C333216  12.045   2.727  13.842  0.0566 -1.1525 -0.4042
   32FTM     C433217  12.159   2.801  13.831 -0.4361 -0.3711 -0.3527
   32FTM     F133218  11.903   2.574  13.712  1.0667 -2.0195 -0.5155
   32FTM     C533219  12.141   2.614  13.478 -1.1084  0.0941 -0.6683
   32FTM     C633220  12.068   2.534  13.369  0.0212  0.7764  0.2328
   32FTM     C733221  12.061   2.381  13.380 -0.7248 -1.1212 -0.8255
   32FTM     C833222  12.180   2.301  13.367  0.1949  0.3281 -0.2370
   32FTM     C933223  12.164   2.166  13.448  0.0175  1.4348 -0.4061
   32FTM    C1033224  12.282   2.078  13.491  0.0986 -0.7460  1.6274
   32FTM    C1133225  11.926   2.566  13.294 -0.6541  0.8072 -0.0509
   32FTM    C1233226  11.914   2.708  13.260 -0.3017  0.8183  0.6949
   33FTM     S133227  12.348   3.156  14.377  0.3176 -0.0950  0.0274
   33FTM     C133228  12.484   3.260  14.434  0.5312 -0.1451 -0.3760
   33FTM     C233229  12.567   3.289  14.331 -0.0131  0.2040 -0.7293
   33FTM     C333230  12.532   3.233  14.204 -0.6150  0.5241 -0.7087
   33FTM     C433231  12.417   3.160  14.210 -0.5287  0.4166 -0.3268
   33FTM     F133232  12.681   3.367  14.346  0.0013  0.2546 -1.0927
   33FTM     C533233  12.479   3.270  14.573 -0.1442 -0.0521 -0.2904
   33FTM     C633234  12.578   3.181  14.642  0.9849  1.1241 -0.9859
   33FTM     C733235  12.728   3.221  14.611 -0.3705  0.4697  0.9321
   33FTM     C833236  12.821   3.099  14.604  0.8689 -0.0770  0.8281
   33FTM     C933237  12.950   3.116  14.517 -1.0751 -0.5376 -0.8099
   33FTM    C1033238  13.034   2.990  14.484 -0.4967 -0.4445  1.4221
   33FTM    C1133239  12.517   3.188  14.797 -0.5904 -0.2679 -0.0265
   33FTM    C1233240  12.554   3.311  14.885 -0.3903  1.4704  0.6429
   34TPM     C133241  12.698   2.708  14.062  0.2491  0.8317 -0.5359
   34TPM     C233242  12.811   2.735  14.132 -0.0249  0.5028  0.0482
   34TPM     C333243  12.926   2.659  14.090 -0.0735  0.0047  0.7898
   34TPM     C433244  12.900   2.572  13.988  0.1635 -0.0463  0.7712
   34TPM     S133245  12.727   2.582  13.936  0.4688  0.5354 -0.1921
   35BDD     C133246  13.103   2.385  13.709  0.1294 -0.1427 -0.0112
   35BDD     C233247  13.184   2.382  13.819  0.0357 -0.1777  0.0581
   35BDD     C333248  13.129   2.453  13.933 -0.0660 -0.2218  0.0370
   35BDD     C433249  13.007   2.509  13.909 -0.0484 -0.2197 -0.0483
   35BDD     S133250  12.951   2.476  13.741  0.0968 -0.1623 -0.1079
   35BDD     C533251  13.316   2.315  13.823  0.0362 -0.1720  0.1465
   35BDD     C633252  13.201   2.464  14.062 -0.1771 -0.2644  0.1022
   35BDD     O133253  13.154   2.525  14.161 -0.2649 -0.3025  0.0839
   35BDD     O233254  13.363   2.253  13.724  0.1239 -0.1339  0.1647
   35BDD     C733255  13.332   2.396  14.066 -0.1766 -0.2587  0.1905
   35BDD     C833256  13.387   2.325  13.952 -0.0748 -0.2146  0.2116
   35BDD     C933257  13.510   2.270  13.976 -0.0924 -0.2167  0.2969
   35BDD     S233258  13.565   2.303  14.143 -0.2376 -0.2741  0.3564
   35BDD    C1033259  13.414   2.394  14.175 -0.2703 -0.2939  0.2599
   35BDD    C1133260  13.391   2.408  14.321 -0.3249  1.1191 -0.3369
   35BDD    C1233261  13.497   2.437  14.428 -0.6417  1.3539 -0.0094
   35BDD    C1333262  13.420   2.447  14.560  0.2456 -0.7272  0.3879
   35BDD    C1433263  13.351   2.334  14.635  0.3226  0.3549 -0.1493
   35BDD    C1533264  13.419   2.293  14.750  2.2777  0.7499 -0.6997
   35BDD    C1633265  13.348   2.166  14.790 -0.3763  0.6208 -0.5148
   35BDD    C1733266  13.583   2.562  14.378  1.5009  0.3459 -0.8739
   35BDD    C1833267  13.688   2.595  14.477  0.1745  0.1791  0.6814
   35BDD    C1933268  13.591   2.166  13.912 -0.5857 -0.2418  0.8550
   35BDD    C2033269  13.589   2.014  13.980  0.8076  0.3315  0.4819
   35BDD    C2133270  13.706   1.935  13.922 -0.8446  0.3380 -0.2832
   35BDD    C2233271  13.764   1.796  13.954  0.8610 -1.8999 -1.1462
   35BDD    C2333272  13.855   1.719  13.850 -1.1501  0.3543  0.3154
   35BDD    C2433273  13.816   1.705  13.696 -0.7429  1.0679  0.4147
   35BDD    C2533274  13.454   1.952  13.928  1.1369 -0.3254 -0.2476
   35BDD    C2633275  13.412   1.840  14.024  0.0522  0.7025 -0.1329
   36TPM     C133276  13.106   2.328  13.573  0.9635 -0.4781 -0.2023
   36TPM     C233277  13.148   2.418  13.479  0.7043 -0.5191 -0.3600
   36TPM     C333278  13.098   2.391  13.347  0.1703 -0.4600 -0.1755
   36TPM     C433279  13.018   2.281  13.340  0.0222 -0.3740  0.1231
   36TPM     S133280  12.999   2.202  13.501  0.5500 -0.3608  0.1947
   37BDTP    C133281  12.722   2.079  12.819 -0.0409  0.2806  0.3403
   37BDTP    C233282  12.706   1.969  12.908  0.0762  0.2272  0.2952
   37BDTP    C333283  12.754   1.969  13.038  0.2189  0.1618  0.2424
   37BDTP    C433284  12.822   2.083  13.083  0.2479  0.1482  0.2336
   37BDTP    C533285  12.838   2.194  12.995  0.1309  0.2014  0.2786
   37BDTP    C633286  12.789   2.194  12.865 -0.0118  0.2670  0.3314
   37BDTP    C733287  12.881   2.107  13.213  0.3868  0.0844  0.1826
   37BDTP    C833288  12.940   2.228  13.227  0.3799  0.0873  0.1872
   37BDTP    S133289  12.929   2.330  13.077  0.1963  0.1711  0.2567
   37BDTP    C933290  12.663   2.056  12.689 -0.1798  0.3443  0.3912
   37BDTP   C1033291  12.604   1.934  12.676 -0.1728  0.3414  0.3866
   37BDTP    S233292  12.615   1.833  12.826  0.0108  0.2575  0.3171
   38FTM     S133293  12.876   1.792  13.233 -0.2092  0.4671  0.6748
   38FTM     C133294  12.773   1.662  13.304 -0.1600  0.4601  0.7336
   38FTM     C233295  12.648   1.666  13.249 -0.1043  0.2654  0.5895
   38FTM     C333296  12.626   1.768  13.151 -0.0966  0.1134  0.4286
   38FTM     C433297  12.737   1.845  13.130 -0.1481  0.1944  0.4502
   38FTM     F133298  12.547   1.578  13.285 -0.0570  0.2132  0.5949
   38FTM     C533299  12.802   1.579  13.422 -0.4622 -0.6277  1.0761
   38FTM     C633300  12.911   1.618  13.522  0.5568 -0.1759  0.9664
   38FTM     C733301  13.059   1.634  13.477 -0.1036 -0.1169 -0.9380
   38FTM     C833302  13.112   1.513  13.409 -0.0935  1.2003  0.9457
   38FTM     C933303  13.256   1.471  13.465  0.0576 -1.3479  1.0185
   38FTM    C1033304  13.281   1.421  13.598 -1.3338  0.8325 -0.4491
   38FTM    C1133305  12.856   1.698  13.637 -0.8274  0.4374  0.4095
   38FTM    C1233306  12.956   1.757  13.721  0.1267  0.8074 -0.7941
   39FTM     S133307  12.918   2.334  12.649 -0.0783 -0.0637 -0.0412
   39FTM     C133308  12.841   2.492  12.611  0.3042  0.5281  1.4895
   39FTM     C233309  12.733   2.511  12.691  0.7082  0.3160  2.1025
   39FTM     C333310  12.704   2.407  12.784  0.7441 -0.3048  1.4354
   39FTM     C433311  12.793   2.304  12.776  0.3548 -0.5768  0.2736
   39FTM     F133312  12.653   2.625  12.684  1.0696  0.6711  3.3041
   39FTM     C533313  12.898   2.575  12.495  0.1405 -0.5110 -0.3030
   39FTM     C633314  12.947   2.711  12.527 -0.6319 -0.1955 -2.0612
   39FTM     C733315  13.061   2.743  12.633  0.4959  0.9040 -1.0438
   39FTM     C833316  13.131   2.635  12.727  0.4918  0.0122  0.2426
   39FTM     C933317  13.191   2.697  12.852 -0.3057 -1.3483  0.2729
   39FTM    C1033318  13.100   2.690  12.968  0.5466  0.9476  0.6638
   39FTM    C1133319  12.889   2.820  12.434 -0.0908  0.6030 -0.0765
   39FTM    C1233320  12.957   2.966  12.419  0.1590  0.0075 -0.4370
   40TPM     C133321  12.500   1.929  12.575  0.9508 -0.6409 -0.4619
   40TPM     C233322  12.380   1.871  12.601  1.4515 -1.7465 -0.4839
   40TPM     C333323  12.286   1.882  12.492  1.1729 -2.0547 -0.2774
   40TPM     C433324  12.335   1.947  12.383  0.4599 -1.1840 -0.0979
   40TPM     S133325  12.505   2.002  12.410  0.0820  0.1027 -0.1764
   41BDD     C133326  12.095   2.109  12.118 -0.0431 -0.0633  0.2412
   41BDD     C233327  12.184   2.031  12.048 -0.0661 -0.0339  0.1790
   41BDD     C333328  12.271   1.952  12.133 -0.0060 -0.0345  0.1174
   41BDD     C433329  12.247   1.971  12.267  0.0619 -0.0644  0.1336
   41BDD     S133330  12.115   2.088  12.295  0.0554 -0.0939  0.2270
   41BDD     C533331  12.191   2.027  11.901 -0.1442 -0.0041  0.1739
   41BDD     C633332  12.374   1.861  12.079 -0.0182 -0.0052  0.0447
   41BDD     O133333  12.449   1.793  12.153  0.0336 -0.0057 -0.0084
   41BDD     O233334  12.117   2.095  11.827 -0.1960 -0.0036  0.2269
   41BDD     C733335  12.382   1.857  11.932 -0.0963  0.0246  0.0396
   41BDD     C833336  12.295   1.936  11.847 -0.1564  0.0252  0.1012
   41BDD     C933337  12.318   1.918  11.713 -0.2243  0.0550  0.0850
   41BDD     S233338  12.450   1.800  11.685 -0.2178  0.0846 -0.0084
   41BDD    C1033339  12.470   1.779  11.862 -0.1193  0.0541 -0.0226
   41BDD    C1133340  12.543   1.654  11.920  0.5048 -0.8849  1.5014
   41BDD    C1233341  12.584   1.563  11.811 -0.9349  1.4593  0.2564
   41BDD    C1333342  12.738   1.603  11.768  2.1139  0.1804 -0.4944
   41BDD    C1433343  12.771   1.554  11.636 -0.0708 -1.4711  0.7505
   41BDD    C1533344  12.922   1.572  11.585  0.8820  0.0653 -0.1555
   41BDD    C1633345  12.946   1.483  11.453  0.4802  0.3794 -0.6842
   41BDD    C1733346  12.571   1.411  11.828  0.2689 -0.2441  0.3641
   41BDD    C1833347  12.662   1.355  11.946 -0.2253  0.3166  1.0257
   41BDD    C1933348  12.274   2.017  11.602 -0.5173  0.1755  1.0649
   41BDD    C2033349  12.195   1.961  11.484  0.4734 -0.8228  0.0716
   41BDD    C2133350  12.167   2.055  11.373  0.3034 -0.0759  0.2308
   41BDD    C2233351  12.187   2.016  11.230 -0.5940  0.2779 -0.0010
   41BDD    C2333352  12.121   2.092  11.111  0.5589 -0.8664 -0.5435
   41BDD    C2433353  11.981   2.069  11.068 -0.4392 -0.7146 -0.2175
   41BDD    C2533354  12.096   1.843  11.511 -0.0263  0.3393 -1.2437
   41BDD    C2633355  12.144   1.698  11.482  0.9992  0.2203  0.2046
   42TPM     C133356  11.992   2.200  12.078  0.2970  0.0648 -0.5169
   42TPM     C233357  11.886   2.217  12.161 -0.0213 -0.7674 -0.7358
   42TPM     C333358  11.793   2.318  12.117 -0.3594 -0.9970 -0.5667
   42TPM     C433359  11.830   2.378  12.000 -0.2988 -0.3402 -0.2187
   42TPM     S133360  11.985   2.311  11.937  0.1937  0.6270 -0.0766
   43BDTP    C133361  11.612   2.915  11.760 -0.0768  0.0585  0.4877
   43BDTP    C233362  11.746   2.913  11.714 -0.2224 -0.3504  0.0647
   43BDTP    C333363  11.832   2.806  11.738 -0.4150 -0.5292 -0.0413
   43BDTP    C433364  11.782   2.696  11.810 -0.4667 -0.2943  0.2847
   43BDTP    C533365  11.647   2.698  11.856 -0.3212  0.1145  0.7078
   43BDTP    C633366  11.562   2.805  11.832 -0.1286  0.2933  0.8138
   43BDTP    C733367  11.852   2.574  11.846 -0.6566 -0.4136  0.2517
   43BDTP    C833368  11.777   2.486  11.917 -0.6606 -0.1178  0.6248
   43BDTP    S133369  11.607   2.545  11.946 -0.4244  0.3533  1.0704
   43BDTP    C933370  11.542   3.037  11.723  0.1131  0.1777  0.5208
   43BDTP   C1033371  11.617   3.125  11.653  0.1170 -0.1180  0.1477
   43BDTP    S233372  11.787   3.066  11.623 -0.1192 -0.5892 -0.2979
   44FTM     S133373  12.110   2.715  11.697 -0.3067 -0.5838 -0.3623
   44FTM     C133374  12.183   2.770  11.542 -0.0242  0.3272  0.0813
   44FTM     C233375  12.098   2.854  11.478  0.1225  0.7617  0.4467
   44FTM     C333376  11.974   2.881  11.543  0.0264  0.4209  0.4051
   44FTM     C433377  11.963   2.814  11.662 -0.2012 -0.2980 -0.0056
   44FTM     F133378  12.128   2.913  11.355  0.3524  1.4940  0.8407
   44FTM     C533379  12.280   2.663  11.478  0.9472 -0.8926  1.5339
   44FTM     C633380  12.349   2.547  11.533 -0.9053 -0.3499 -0.2453
   44FTM     C733381  12.458   2.583  11.635  1.3306  0.5238  0.9161
   44FTM     C833382  12.450   2.652  11.771 -0.5463 -1.3536  0.8706
   44FTM     C933383  12.566   2.713  11.829 -0.5461 -0.7791 -0.5160
   44FTM    C1033384  12.706   2.683  11.780  0.6773 -0.2077 -0.2701
   44FTM    C1133385  12.277   2.441  11.594  0.6721 -0.0392 -1.4118
   44FTM    C1233386  12.177   2.370  11.498  1.2004 -0.6355 -0.5311
   45FTM     S133387  11.361   2.773  12.033  0.1351 -0.2912  0.3943
   45FTM     C133388  11.192   2.798  11.976  0.3553 -0.7104 -0.4781
   45FTM     C233389  11.191   2.825  11.843  0.9897 -0.5662 -0.4572
   45FTM     C333390  11.319   2.827  11.778  1.3344 -0.1315  0.2220
   45FTM     C433391  11.421   2.802  11.865  0.9518  0.0637  0.7381
   45FTM     F133392  11.075   2.849  11.771  1.2958 -0.8194 -1.0519
   45FTM     C533393  11.068   2.786  12.076  0.5392  0.0783 -0.3032
   45FTM     C633394  11.067   2.811  12.229  0.4653  0.1372 -0.5042
   45FTM     C733395  10.921   2.835  12.270 -0.0937 -0.5693 -1.1403
   45FTM     C833396  10.837   2.781  12.401 -1.0748 -1.0970  0.3831
   45FTM     C933397  10.838   2.634  12.451  0.8627 -0.4865 -1.1216
   45FTM    C1033398  10.929   2.512  12.415 -0.0269 -0.9235  0.1683
   45FTM    C1133399  11.171   2.919  12.276  1.7125 -0.0806  0.9375
   45FTM    C1233400  11.193   2.955  12.416 -0.4314 -0.3126 -1.1505
   46TPM     C133401  11.582   3.257  11.600  0.5733 -0.2698 -1.0648
   46TPM     C233402  11.500   3.300  11.499  0.9849 -0.0862 -1.3227
   46TPM     C333403  11.501   3.443  11.482  0.7690 -0.0194 -0.8042
   46TPM     C433404  11.582   3.509  11.570  0.1926 -0.1521 -0.1509
   46TPM     S133405  11.665   3.394  11.682 -0.1245 -0.3735 -0.1398
   47BDD     C133406  11.526   3.888  11.487 -0.3093  0.1454 -0.4209
   47BDD     C233407  11.476   3.868  11.613 -0.0976  0.1036 -0.3435
   47BDD     C333408  11.501   3.734  11.663  0.1988  0.1606 -0.3326
   47BDD     C433409  11.568   3.654  11.576  0.2088  0.2450 -0.4019
   47BDD     S133410  11.606   3.741  11.423 -0.1521  0.2589 -0.4855
   47BDD     C533411  11.404   3.971  11.691 -0.1602  0.0097 -0.2767
   47BDD     C633412  11.456   3.690  11.797  0.4613  0.1292 -0.2538
   47BDD     O133413  11.477   3.575  11.841  0.7169  0.1785 -0.2445
   47BDD     O233414  11.383   4.086  11.647 -0.4158 -0.0392 -0.2860
   47BDD     C733415  11.384   3.793  11.875  0.3986  0.0354 -0.1870
   47BDD     C833416  11.360   3.927  11.825  0.1023 -0.0216 -0.1979
   47BDD     C933417  11.292   4.007  11.912  0.0923 -0.1060 -0.1286
   47BDD     S233418  11.254   3.920  12.065  0.4529 -0.1200 -0.0450
   47BDD    C1033419  11.335   3.773  12.001  0.6106 -0.0064 -0.1096
   47BDD    C1133420  11.367   3.649  12.110  0.9132 -0.0461  0.2073
   47BDD    C1233421  11.505   3.661  12.167  0.1530  0.1660 -0.3860
   47BDD    C1333422  11.526   3.782  12.275  1.4875 -0.1031  1.6489
   47BDD    C1433423  11.647   3.877  12.272  0.9962  0.1124  0.7503
   47BDD    C1533424  11.628   4.004  12.343  0.6437 -0.4928 -0.0526
   47BDD    C1633425  11.709   4.123  12.288 -0.6589 -0.7195 -0.5359
   47BDD    C1733426  11.584   3.532  12.218 -0.0756 -0.2965  0.2305
   47BDD    C1833427  11.624   3.424  12.132  0.9310  1.3135  1.1691
   47BDD    C1933428  11.214   4.142  11.889  0.1014  0.8244 -0.0197
   47BDD    C2033429  11.285   4.264  11.952 -1.0233  1.0353 -0.1734
   47BDD    C2133430  11.225   4.394  11.914 -1.0991 -0.0074 -0.2114
   47BDD    C2233431  11.279   4.458  11.778  0.4986  0.0079 -0.1508
   47BDD    C2333432  11.427   4.493  11.766  0.9270  1.1423 -0.9538
   47BDD    C2433433  11.515   4.380  11.696  0.0183 -0.0824  1.9000
   47BDD    C2533434  11.306   4.250  12.106  0.0583  0.3484  0.4829
   47BDD    C2633435  11.196   4.244  12.217  0.3825 -0.6314  0.0660
   48TPM     C133436  11.560   3.991  11.391  0.3397  0.2419 -0.4343
   48TPM     C233437  11.598   3.956  11.265  0.6297  0.1941 -0.3340
   48TPM     C333438  11.630   4.068  11.181  0.5079  0.1785 -0.4015
   48TPM     C433439  11.616   4.189  11.243  0.1252  0.2141 -0.5532
   48TPM     S133440  11.561   4.170  11.414 -0.1131  0.2709 -0.6230
   49BDTP    C133441  11.723   4.724  10.924  0.0896  0.3906  0.0255
   49BDTP    C233442  11.598   4.755  10.986  0.0104  0.3064 -0.0882
   49BDTP    C333443  11.530   4.665  11.067 -0.0150  0.2509 -0.1721
   49BDTP    C433444  11.587   4.537  11.086  0.0402  0.2797 -0.1428
   49BDTP    C533445  11.711   4.506  11.023  0.1193  0.3639 -0.0293
   49BDTP    C633446  11.779   4.596  10.943  0.1447  0.4194  0.0549
   49BDTP    C733447  11.534   4.427  11.164  0.0276  0.2339 -0.2153
   49BDTP    C833448  11.612   4.316  11.164  0.0927  0.2791 -0.1621
   49BDTP    S133449  11.763   4.336  11.063  0.1790  0.3861 -0.0126
   49BDTP    C933450  11.775   4.834  10.845  0.1021  0.4365  0.0980
   49BDTP   C1033451  11.697   4.945  10.846  0.0371  0.3916  0.0448
   49BDTP    S233452  11.546   4.925  10.946 -0.0493  0.2846 -0.1046
   50FTM     S133453  11.465   4.854  11.271  0.3589 -0.2842  0.2158
   50FTM     C133454  11.290   4.893  11.288  0.4931  0.1545  0.6490
   50FTM     C233455  11.217   4.813  11.206  0.0811  0.2649  0.9027
   50FTM     C333456  11.291   4.719  11.126 -0.3538  0.0211  0.7784
   50FTM     C433457  11.425   4.728  11.148 -0.2720 -0.2861  0.4179
   50FTM     F133458  11.078   4.820  11.198  0.0727  0.5935  1.2619
   50FTM     C533459  11.213   4.993  11.376 -0.6360  0.0317 -0.0122
   50FTM     C633460  11.118   4.960  11.491  0.4623 -1.2032 -0.2522
   50FTM     C733461  11.084   5.094  11.570 -0.2129 -0.1187  1.3530
   50FTM     C833462  11.003   5.208  11.504 -1.1981 -0.2791 -0.3236
   50FTM     C933463  10.866   5.172  11.446 -0.8529  0.6763 -0.4933
   50FTM    C1033464  10.766   5.295  11.453 -1.4317  0.6274 -0.5629
   50FTM    C1133465  11.069   4.823  11.517  0.3883 -1.0905  0.2924
   50FTM    C1233466  10.972   4.803  11.634  0.2660  0.9098  1.1679
   51FTM     S133467  12.066   4.627  10.942 -0.3381  0.3873 -0.3009
   51FTM     C133468  12.154   4.554  10.803 -0.4532 -0.3554  0.0032
   51FTM     C233469  12.066   4.488  10.722 -0.5206 -0.7813  0.4182
   51FTM     C333470  11.929   4.490  10.764 -0.4876 -0.5615  0.5224
   51FTM     C433471  11.911   4.559  10.879 -0.3918  0.0529  0.1761
   51FTM     F133472  12.105   4.422  10.607 -0.6161 -1.3956  0.7284
   51FTM     C533473  12.308   4.578  10.798 -0.1184  0.7757  0.4855
   51FTM     C633474  12.355   4.717  10.761 -0.1333  0.2756 -1.4925
   51FTM     C733475  12.300   4.845  10.836 -0.2583  1.1371 -0.3454
   51FTM     C833476  12.417   4.930  10.883 -0.5954 -0.5651 -0.1965
   51FTM     C933477  12.383   5.057  10.965  0.3165 -1.2817  0.7859
   51FTM    C1033478  12.492   5.141  11.027 -0.2378 -0.7332  0.8032
   51FTM    C1133479  12.366   4.731  10.620  0.3773 -0.2497 -0.3513
   51FTM    C1233480  12.241   4.746  10.532 -0.5693 -0.1483 -0.0437
   52TPM     C133481  11.752   5.076  10.814  0.5034  0.4901  0.1199
   52TPM     C233482  11.817   5.169  10.889  0.6203  0.7758 -0.3257
   52TPM     C333483  11.870   5.279  10.813  0.5242  0.4816 -0.8228
   52TPM     C433484  11.846   5.269  10.679  0.3340 -0.0285 -0.7563
   52TPM     S133485  11.753   5.120  10.639  0.2610 -0.1779 -0.0552
   53BDD     C133486  12.009   5.585  10.504 -0.3619  0.0610 -0.0094
   53BDD     C233487  11.895   5.562  10.433 -0.3209 -0.0401 -0.0420
   53BDD     C333488  11.822   5.445  10.478 -0.1440 -0.2017 -0.1695
   53BDD     C433489  11.881   5.381  10.583 -0.0527 -0.2216 -0.2320
   53BDD     S133490  12.032   5.463  10.633 -0.1819 -0.0390 -0.1361
   53BDD     C533491  11.849   5.646  10.320 -0.4429  0.0081  0.0434
   53BDD     C633492  11.695   5.401  10.415 -0.0720 -0.3309 -0.2239
   53BDD     O133493  11.632   5.300  10.454  0.0806 -0.4703 -0.3338
   53BDD     O233494  11.913   5.747  10.281 -0.5954  0.1476  0.1535
   53BDD     C733495  11.650   5.485  10.302 -0.1939 -0.2825 -0.1390
   53BDD     C833496  11.723   5.602  10.257 -0.3709 -0.1209 -0.0114
   53BDD     C933497  11.664   5.666  10.152 -0.4622 -0.1011  0.0517
   53BDD     S233498  11.512   5.584  10.102 -0.3330 -0.2835 -0.0444
   53BDD    C1033499  11.536   5.461  10.231 -0.1530 -0.3837 -0.1712
   53BDD    C1133500  11.424   5.354  10.219 -0.2851  1.2383  0.6898
   53BDD    C1233501  11.267   5.361  10.228 -0.3021 -0.6721  0.1817
   53BDD    C1333502  11.201   5.431  10.114 -0.5826  0.5659 -0.8950
   53BDD    C1433503  11.204   5.391   9.964  1.2182 -0.3558  0.4171
   53BDD    C1533504  11.109   5.491   9.889 -0.1380 -0.2065 -0.7055
   53BDD    C1633505  11.006   5.430   9.804  0.0410 -0.0673 -0.3001
   53BDD    C1733506  11.246   5.405  10.365  0.1961 -0.0562 -1.0834
   53BDD    C1833507  11.189   5.289  10.448 -0.5056  0.2338 -0.6066
   53BDD    C1933508  11.673   5.799  10.088 -0.2355  0.6825  0.5629
   53BDD    C2033509  11.777   5.800   9.963  1.0367 -0.6757 -1.6639
   53BDD    C2133510  11.787   5.957   9.963 -0.1566 -0.5651 -0.7068
   53BDD    C2233511  11.902   6.022   9.883  0.0564 -0.4696  1.3389
   53BDD    C2333512  11.888   6.166   9.882 -0.5975 -0.9924 -0.4548
   53BDD    C2433513  11.904   6.244   9.745  0.1698  0.1018  0.0362
   53BDD    C2533514  11.748   5.703   9.856  0.2135  0.3110  0.1484
   53BDD    C2633515  11.595   5.709   9.791  0.1772 -0.5062  0.6451
   54TPM     C133516  12.119   5.690  10.499  0.6831 -0.3578 -0.9663
   54TPM     C233517  12.183   5.718  10.382  0.7308  0.6074 -0.7255
   54TPM     C333518  12.308   5.788  10.399  0.2895  1.2738 -0.1650
   54TPM     C433519  12.338   5.814  10.530 -0.0947  0.8167  0.0214
   54TPM     S133520  12.212   5.751  10.641  0.0723 -0.5010 -0.5003
   55BDTP    C133521  12.877   6.018  10.780  0.0789  0.3055 -0.1411
   55BDTP    C233522  12.780   6.056  10.878  0.0872 -0.0662  0.0124
   55BDTP    C333523  12.645   6.029  10.864  0.1155 -0.2217  0.0341
   55BDTP    C433524  12.602   5.962  10.748  0.1366 -0.0012 -0.1020
   55BDTP    C533525  12.699   5.925  10.650  0.1283  0.3703 -0.2558
   55BDTP    C633526  12.834   5.951  10.664  0.0999  0.5261 -0.2777
   55BDTP    C733527  12.467   5.924  10.711  0.1672 -0.1022 -0.1094
   55BDTP    C833528  12.458   5.860  10.592  0.1821  0.1724 -0.2592
   55BDTP    S133529  12.619   5.840  10.510  0.1593  0.5972 -0.4120
   55BDTP    C933530  13.012   6.057  10.817  0.0482  0.4064 -0.1340
   55BDTP   C1033531  13.021   6.121  10.936  0.0334  0.1317  0.0157
   55BDTP    S233532  12.860   6.141  11.019  0.0561 -0.2928  0.1685
   56FTM     S133533  12.557   6.285  10.956  0.0264  0.3111 -0.2766
   56FTM     C133534  12.413   6.278  11.064  0.4313 -0.4666  0.2327
   56FTM     C233535  12.372   6.149  11.078  1.0371 -0.6684  0.2029
   56FTM     C333536  12.449   6.050  11.007  1.2190 -0.2408 -0.2079
   56FTM     C433537  12.551   6.106  10.937  0.7367  0.3061 -0.5024
   56FTM     F133538  12.263   6.112  11.155  1.4629 -1.2523  0.5457
   56FTM     C533539  12.374   6.412  11.126  1.2054  0.7039 -1.0799
   56FTM     C633540  12.357   6.545  11.067 -0.3176  0.0026  1.0532
   56FTM     C733541  12.256   6.550  10.952 -0.2350 -0.2755  0.6307
   56FTM     C833542  12.108   6.551  11.005  2.0332  0.5509 -0.3705
   56FTM     C933543  11.990   6.599  10.906 -1.5788  0.0672 -0.0776
   56FTM    C1033544  12.020   6.608  10.762 -0.6136 -0.4363 -0.3605
   56FTM    C1133545  12.475   6.623  11.026  0.6726  0.7564  1.5806
   56FTM    C1233546  12.583   6.650  11.111  0.5106  1.0641  0.3561
   57FTM     S133547  13.071   5.857  10.601 -0.0371  0.6211  0.0872
   57FTM     C133548  13.130   5.871  10.431 -0.7205 -0.3972 -0.2537
   57FTM     C233549  13.034   5.928  10.353 -0.9481 -0.6500 -0.1621
   57FTM     C333550  12.912   5.964  10.419 -0.6131 -0.0814  0.1702
   57FTM     C433551  12.914   5.933  10.552 -0.1125  0.6305  0.3390
   57FTM     F133552  13.052   5.952  10.218 -1.4734 -1.4117 -0.3746
   57FTM     C533553  13.269   5.824  10.414 -0.5075  0.2260 -0.6993
   57FTM     C633554  13.391   5.838  10.322 -0.2104  0.7749 -0.5788
   57FTM     C733555  13.414   5.955  10.231  0.6237  0.6782 -0.0957
   57FTM     C833556  13.326   5.998  10.108  0.7178  1.3103 -0.7883
   57FTM     C933557  13.330   5.938   9.971  1.0448  0.5825  0.4473
   57FTM    C1033558  13.357   6.026   9.856 -1.1295  0.3906  1.1839
   57FTM    C1133559  13.508   5.735  10.339 -1.0494  1.2769  0.6541
   57FTM    C1233560  13.642   5.772  10.275 -1.3279 -0.3017 -1.1206
   58TPM     C133561  13.141   6.167  10.999  0.1905 -0.3335 -0.0519
   58TPM     C233562  13.216   6.110  11.098 -0.2587 -0.2331  0.3562
   58TPM     C333563  13.321   6.196  11.147 -0.4012 -0.2308  0.6597
   58TPM     C433564  13.325   6.318  11.086 -0.0606 -0.3294  0.4829
   58TPM     S133565  13.197   6.334  10.960  0.4705 -0.4338 -0.0843
   59BDD     C133566  13.654   6.490  11.231 -0.3440  0.0981  0.0602
   59BDD     C233567  13.587   6.589  11.164 -0.2397  0.1261 -0.0038
   59BDD     C333568  13.463   6.544  11.104 -0.1472  0.1510 -0.2182
   59BDD     C433569  13.437   6.411  11.127 -0.1821  0.1416 -0.3147
   59BDD     S133570  13.566   6.334  11.223 -0.3334  0.1009 -0.1438
   59BDD     C533571  13.635   6.728  11.152 -0.2214  0.1310  0.1302
   59BDD     C633572  13.374   6.634  11.028 -0.0273  0.1833 -0.3192
   59BDD     O133573  13.267   6.595  10.976  0.0525  0.2050 -0.5038
   59BDD     O233574  13.743   6.767  11.204 -0.3012  0.1094  0.3150
   59BDD     C733575  13.422   6.773  11.016 -0.0091  0.1885 -0.1855
   59BDD     C833576  13.547   6.818  11.076 -0.1017  0.1634  0.0288
   59BDD     C933577  13.573   6.951  11.054 -0.0666  0.1727  0.1254
   59BDD     S233578  13.443   7.028  10.957  0.0846  0.2136 -0.0450
   59BDD    C1033579  13.355   6.872  10.949  0.0952  0.2165 -0.2491
   59BDD    C1133580  13.266   6.859  10.816 -2.2514  0.4070  0.3353
   59BDD    C1233581  13.113   6.854  10.816 -0.7327  0.9317 -0.1148
   59BDD    C1333582  13.061   6.846  10.666 -0.6059 -0.2597 -0.4918
   59BDD    C1433583  12.906   6.821  10.635 -1.2786 -0.1310 -2.3309
   59BDD    C1533584  12.860   6.674  10.637 -0.3049  0.2321 -0.3969
   59BDD    C1633585  12.897   6.564  10.543  0.1973  0.6712 -0.2081
   59BDD    C1733586  13.038   6.918  10.913 -0.9284 -0.4106 -1.7014
   59BDD    C1833587  12.919   6.850  10.972 -0.2860  0.4727  0.2136
   59BDD    C1933588  13.671   7.053  11.087  0.0677  0.4006 -0.4190
   59BDD    C2033589  13.643   7.125  11.231  0.1541 -0.3356  1.1926
   59BDD    C2133590  13.497   7.189  11.255  0.6209  0.0653 -0.7290
   59BDD    C2233591  13.453   7.233  11.396 -1.2351 -0.0835 -0.2765
   59BDD    C2333592  13.299   7.213  11.392  0.1875 -0.8117  0.4108
   59BDD    C2433593  13.197   7.231  11.499 -1.1565  0.5769  0.2124
   59BDD    C2533594  13.760   7.172  11.311 -0.4820  0.4634 -0.9646
   59BDD    C2633595  13.891   7.186  11.237 -0.3198  0.1823 -1.3356
   60TPM     C133596  13.780   6.479  11.315  0.4114 -0.7073 -0.7800
   60TPM     C233597  13.839   6.585  11.376  0.5275 -0.5128 -1.2236
   60TPM     C333598  13.925   6.549  11.486  0.4370 -0.1442 -1.0273
   60TPM     C433599  13.931   6.414  11.509  0.2518 -0.0579 -0.4351
   60TPM     S133600  13.828   6.323  11.393  0.1769 -0.4382 -0.0756
    1BDTP    C133601   7.131   7.723   2.334 -0.1147 -0.3822 -0.2336
    1BDTP    C233602   7.098   7.717   2.196 -0.1171 -0.1701 -0.2435
    1BDTP    C333603   7.144   7.810   2.103 -0.0066 -0.1067 -0.1253
    1BDTP    C433604   7.227   7.914   2.149  0.1116 -0.2593  0.0091
    1BDTP    C533605   7.260   7.920   2.288  0.1137 -0.4715  0.0191
    1BDTP    C633606   7.214   7.827   2.380  0.0035 -0.5348 -0.0991
    1BDTP    C733607   7.287   8.021   2.072  0.2382 -0.2309  0.1463
    1BDTP    C833608   7.362   8.106   2.146  0.3343 -0.4089  0.2574
    1BDTP    S133609   7.368   8.063   2.322  0.2778 -0.6380  0.2038
    1BDTP    C933610   7.071   7.616   2.411 -0.2412 -0.4106 -0.3708
    1BDTP   C1033611   6.996   7.531   2.338 -0.3372 -0.2323 -0.4819
    1BDTP    S233612   6.990   7.574   2.161 -0.2807 -0.0035 -0.4283
    2FTM     S133613   7.173   7.772   1.814  0.2463  0.4182 -0.0247
    2FTM     C133614   7.018   7.799   1.726  0.0044 -0.6951  0.0286
    2FTM     C233615   6.919   7.829   1.814 -0.2986 -1.8370  0.1013
    2FTM     C333616   6.956   7.832   1.952 -0.3594 -1.9138  0.1195
    2FTM     C433617   7.088   7.804   1.970 -0.0945 -0.7942  0.0588
    2FTM     F133618   6.788   7.854   1.774 -0.5387 -2.8805  0.1556
    2FTM     C533619   6.995   7.778   1.576  0.3527 -1.0126  0.5246
    2FTM     C633620   7.114   7.777   1.472  1.4639  0.0545  0.4392
    2FTM     C733621   7.247   7.850   1.492 -0.1740 -0.3923 -0.4951
    2FTM     C833622   7.280   7.999   1.505  0.3214 -0.5437 -0.2053
    2FTM     C933623   7.175   8.104   1.514  0.7835 -0.9270 -1.0348
    2FTM    C1033624   7.116   8.109   1.659 -0.6292 -0.1656 -0.1447
    2FTM    C1133625   7.054   7.786   1.330 -0.0802  0.1347  0.8057
    2FTM    C1233626   6.981   7.664   1.272  0.6218  0.5192 -0.8337
    3FTM     S133627   7.121   7.816   2.663 -0.1578  0.5318 -0.1008
    3FTM     C133628   7.257   7.824   2.781 -0.5486  0.2306  0.3772
    3FTM     C233629   7.375   7.839   2.715 -0.2842  0.0067  0.7897
    3FTM     C333630   7.367   7.846   2.572  0.2260  0.0550  0.7597
    3FTM     C433631   7.239   7.835   2.527  0.3567  0.3242  0.3098
    3FTM     F133632   7.497   7.849   2.780 -0.4888 -0.2550  1.2187
    3FTM     C533633   7.224   7.874   2.915  0.4431  0.2128  0.1506
    3FTM     C633634   7.315   7.890   3.048  0.7549  0.2662 -0.4617
    3FTM     C733635   7.371   7.748   3.091 -0.1785 -0.2558  0.3686
    3FTM     C833636   7.267   7.625   3.128 -0.1755 -1.4485 -0.3474
    3FTM     C933637   7.327   7.507   3.211  0.8194 -0.2750  0.2892
    3FTM    C1033638   7.222   7.420   3.288  0.3690  0.1678 -0.2425
    3FTM    C1133639   7.250   7.946   3.184  0.8281  0.9101 -0.1642
    3FTM    C1233640   7.220   8.093   3.145 -0.6029  0.0899  0.5519
    4TPM     C133641   6.951   7.402   2.397  0.0931  0.3199  0.2828
    4TPM     C233642   6.972   7.276   2.349  0.8031  0.3734  0.4274
    4TPM     C333643   6.887   7.177   2.410  1.0937  0.0257  0.2702
    4TPM     C433644   6.802   7.227   2.503  0.6057 -0.2931  0.0058
    4TPM     S133645   6.822   7.405   2.523 -0.2661 -0.1780 -0.0657
    5BDD     C133646   6.709   6.944   2.753 -0.3324 -0.7281 -0.3269
    5BDD     C233647   6.595   7.014   2.723 -0.1963 -0.4482 -0.2036
    5BDD     C333648   6.617   7.125   2.632  0.0881 -0.0776  0.3098
    5BDD     C433649   6.748   7.138   2.594  0.1650 -0.0805  0.5705
    5BDD     S133650   6.852   7.013   2.670 -0.1138 -0.5473  0.1910
    5BDD     C533651   6.461   6.980   2.776 -0.3228 -0.5109 -0.5531
    5BDD     C633652   6.508   7.213   2.586  0.2737  0.2660  0.5232
    5BDD     O133653   6.528   7.309   2.507  0.5190  0.5856  0.9659
    5BDD     O233654   6.442   6.885   2.854 -0.5682 -0.8305 -0.9958
    5BDD     C733655   6.375   7.180   2.639  0.1472  0.2030  0.1737
    5BDD     C833656   6.352   7.069   2.730 -0.1373 -0.1676 -0.3397
    5BDD     C933657   6.222   7.055   2.768 -0.2140 -0.1646 -0.6003
    5BDD     S233658   6.118   7.181   2.692  0.0648  0.3022 -0.2209
    5BDD    C1033659   6.261   7.250   2.609  0.2834  0.4832  0.2971
    5BDD    C1133660   6.229   7.360   2.507  0.4958  0.3876  0.4759
    5BDD    C1233661   6.115   7.326   2.384 -1.4694  0.1551 -0.9358
    5BDD    C1333662   6.131   7.180   2.346  0.5243 -0.2614 -1.4618
    5BDD    C1433663   6.221   7.118   2.248  0.7214 -0.7799 -0.9064
    5BDD    C1533664   6.225   6.970   2.259 -1.5592  0.4704 -0.3314
    5BDD    C1633665   6.138   6.869   2.182 -0.1229  0.2988  0.0047
    5BDD    C1733666   6.118   7.450   2.287 -0.7485 -0.4381 -0.7887
    5BDD    C1833667   6.022   7.431   2.167  0.1268 -1.3415 -0.3531
    5BDD    C1933668   6.144   6.993   2.883 -0.9472 -0.7208 -0.2690
    5BDD    C2033669   6.098   6.856   2.841  0.6799 -0.2958  0.6013
    5BDD    C2133670   6.044   6.787   2.971 -0.2289  1.7229  0.0048
    5BDD    C2233671   6.041   6.625   2.979  0.4302 -0.2539  0.6850
    5BDD    C2333672   6.156   6.517   2.991  0.2144  0.4493  0.8255
    5BDD    C2433673   6.235   6.467   2.863 -0.1302  0.3865  0.5988
    5BDD    C2533674   6.014   6.821   2.709 -0.2068  0.3220 -1.2612
    5BDD    C2633675   5.896   6.887   2.645  1.5678  0.0569  0.1566
    6TPM     C133676   6.742   6.825   2.829  0.2107 -0.7713  0.0269
    6TPM     C233677   6.698   6.700   2.798  0.5149 -0.9980  0.4903
    6TPM     C333678   6.774   6.595   2.860  0.9029 -0.5910  0.7163
    6TPM     C433679   6.877   6.640   2.938  0.8943 -0.0537  0.4253
    6TPM     S133680   6.885   6.820   2.939  0.3920 -0.0203 -0.1613
    7BDTP    C133681   7.389   6.333   3.107  0.2153  0.1088 -0.0529
    7BDTP    C233682   7.288   6.242   3.151  0.2700  0.1659  0.1901
    7BDTP    C333683   7.153   6.268   3.138  0.2512  0.2185  0.4682
    7BDTP    C433684   7.114   6.389   3.078  0.1752  0.2143  0.5091
    7BDTP    C533685   7.214   6.480   3.033  0.1206  0.1574  0.2660
    7BDTP    C633686   7.350   6.454   3.047  0.1392  0.1048 -0.0120
    7BDTP    C733687   6.979   6.437   3.053  0.1423  0.2624  0.7764
    7BDTP    C833688   6.974   6.558   2.993  0.0668  0.2444  0.7462
    7BDTP    S133689   7.138   6.629   2.959  0.0263  0.1638  0.3749
    7BDTP    C933690   7.523   6.285   3.131  0.2480  0.0608 -0.3203
    7BDTP   C1033691   7.528   6.164   3.191  0.3237  0.0789 -0.2901
    7BDTP    S233692   7.364   6.093   3.225  0.3641  0.1596  0.0812
    8FTM     S133693   7.080   6.109   3.361 -0.0233  0.1571 -0.3257
    8FTM     C133694   6.923   6.021   3.360  0.2553 -0.3509 -0.0330
    8FTM     C233695   6.857   6.046   3.244 -0.0293 -0.5884  0.0761
    8FTM     C333696   6.922   6.133   3.152 -0.4711 -0.3947 -0.0581
    8FTM     C433697   7.043   6.176   3.198 -0.5263  0.0043 -0.2771
    8FTM     F133698   6.733   5.991   3.215  0.0929 -0.9955  0.3039
    8FTM     C533699   6.892   5.952   3.485  0.3137  0.8793  0.2062
    8FTM     C633700   6.955   5.812   3.520  0.0781  0.4792  0.1521
    8FTM     C733701   7.107   5.791   3.569  0.3420  1.0240 -0.9865
    8FTM     C833702   7.166   5.912   3.637  1.1890  0.2914  0.9627
    8FTM     C933703   7.315   5.896   3.652 -0.2151 -0.2362 -0.7817
    8FTM    C1033704   7.337   6.040   3.677  0.2451  0.1796  1.5363
    8FTM    C1133705   6.902   5.674   3.470  0.8369 -0.6075  0.2882
    8FTM    C1233706   6.903   5.661   3.321 -0.0483 -0.5744  1.0875
    9FTM     S133707   7.471   6.720   3.055 -0.1154 -0.0677 -0.1570
    9FTM     C133708   7.572   6.766   2.913 -0.3090  0.0866 -0.2473
    9FTM     C233709   7.573   6.665   2.822 -0.3067  0.1220 -0.2866
    9FTM     C333710   7.496   6.549   2.856 -0.1577  0.0335 -0.2497
    9FTM     C433711   7.434   6.561   2.977 -0.0423 -0.0733 -0.1799
    9FTM     F133712   7.643   6.672   2.703 -0.4390  0.2365 -0.3584
    9FTM     C533713   7.651   6.902   2.909  0.5811  0.5682  0.3985
    9FTM     C633714   7.561   7.025   2.949 -1.3549 -1.5659 -1.1089
    9FTM     C733715   7.407   7.016   2.904 -0.0382 -1.5234 -0.3563
    9FTM     C833716   7.358   7.014   2.759 -1.5021 -0.3337 -0.3733
    9FTM     C933717   7.409   7.124   2.656  0.6792  0.3326 -0.8898
    9FTM    C1033718   7.381   7.273   2.657 -0.3900 -0.1243 -0.2128
    9FTM    C1133719   7.633   7.160   2.956 -0.5468 -1.2075  0.4112
    9FTM    C1233720   7.581   7.274   3.057 -0.7321 -0.0231  1.1984
   10TPM     C133721   7.646   6.076   3.166  0.4305 -0.0246  0.2826
   10TPM     C233722   7.666   5.947   3.206  0.8328  0.0781  0.4171
   10TPM     C333723   7.781   5.885   3.146  0.8991  0.3015  0.3115
   10TPM     C433724   7.849   5.967   3.060  0.5473  0.3693  0.0965
   10TPM     S133725   7.771   6.129   3.048  0.1014  0.1543  0.0102
   11BDD     C133726   8.144   5.735   2.947 -0.0788  0.0121  0.1995
   11BDD     C233727   8.198   5.861   2.947 -0.0994  0.0210  0.2568
   11BDD     C333728   8.104   5.965   2.986 -0.0591 -0.0366  0.5116
   11BDD     C433729   7.979   5.917   3.014 -0.0090 -0.0884  0.6448
   11BDD     S133730   7.971   5.739   2.995 -0.0083 -0.0689  0.4606
   11BDD     C533731   8.339   5.890   2.911 -0.1562  0.0825  0.0793
   11BDD     C633732   8.141   6.107   2.992 -0.0725 -0.0381  0.6135
   11BDD     O133733   8.060   6.197   3.026 -0.0379 -0.0877  0.8332
   11BDD     O233734   8.420   5.801   2.878 -0.1907  0.1322 -0.1404
   11BDD     C733735   8.282   6.137   2.957 -0.1295  0.0236  0.4361
   11BDD     C833736   8.376   6.033   2.918 -0.1695  0.0812  0.1813
   11BDD     C933737   8.501   6.081   2.890 -0.2198  0.1329  0.0481
   11BDD     S233738   8.509   6.259   2.909 -0.2204  0.1133  0.2323
   11BDD    C1033739   8.336   6.262   2.957 -0.1497  0.0323  0.4935
   11BDD    C1133740   8.295   6.402   2.987  0.1739 -1.3755 -0.2243
   11BDD    C1233741   8.283   6.440   3.133  0.3014 -0.3162  0.0694
   11BDD    C1333742   8.392   6.428   3.241 -0.5644 -0.3887 -0.5405
   11BDD    C1433743   8.353   6.367   3.383  0.6742 -0.4542  0.6728
   11BDD    C1533744   8.212   6.289   3.390  0.6673 -1.3420 -0.7481
   11BDD    C1633745   8.207   6.151   3.331  1.2146  0.6362  1.5347
   11BDD    C1733746   8.183   6.555   3.158  0.5077  0.7044 -0.2466
   11BDD    C1833747   8.052   6.553   3.083 -0.3296  0.2793 -1.3273
   11BDD    C1933748   8.630   5.993   2.900 -0.2898  0.4618 -1.6475
   11BDD    C2033749   8.769   6.061   2.930  0.8004 -0.2897  0.1214
   11BDD    C2133750   8.870   6.014   3.034 -0.1870  0.2673  0.2122
   11BDD    C2233751   8.822   5.979   3.185 -1.0722  0.8770 -0.3394
   11BDD    C2333752   8.774   6.097   3.265  0.5811 -0.1602 -1.4577
   11BDD    C2433753   8.758   6.064   3.422  0.4098  1.0419 -0.2563
   11BDD    C2533754   8.837   6.151   2.817 -0.7505  0.1444 -0.9321
   11BDD    C2633755   8.978   6.227   2.797  0.1586 -0.0296 -0.1776
   12TPM     C133756   8.207   5.603   2.960  0.0417 -0.3097  0.1861
   12TPM     C233757   8.180   5.510   2.864 -0.4876 -0.9600  0.9365
   12TPM     C333758   8.269   5.396   2.867 -0.5491 -0.9995  1.2883
   12TPM     C433759   8.363   5.402   2.966 -0.0666 -0.3795  0.8062
   12TPM     S133760   8.347   5.554   3.063  0.5075  0.3079 -0.1369
   13BDTP    C133761   8.698   4.899   3.134  0.1819  0.1056 -0.0945
   13BDTP    C233762   8.787   4.960   3.042  0.0441 -0.0372 -0.3250
   13BDTP    C333763   8.757   5.079   2.977  0.0515 -0.0098 -0.2778
   13BDTP    C433764   8.634   5.141   3.005  0.2019  0.1668  0.0100
   13BDTP    C533765   8.545   5.079   3.098  0.3400  0.3097  0.2404
   13BDTP    C633766   8.574   4.960   3.162  0.3325  0.2821  0.1933
   13BDTP    C733767   8.582   5.265   2.951  0.2393  0.2280  0.1119
   13BDTP    C833768   8.459   5.298   2.997  0.3967  0.4077  0.4040
   13BDTP    S133769   8.392   5.178   3.116  0.5195  0.5244  0.5911
   13BDTP    C933770   8.750   4.775   3.189  0.1445  0.0442 -0.1964
   13BDTP   C1033771   8.873   4.741   3.143 -0.0126 -0.1353 -0.4886
   13BDTP    S233772   8.939   4.861   3.023 -0.1357 -0.2521 -0.6756
   14FTM     S133773   8.791   5.184   2.706 -0.1593 -0.4335 -0.1875
   14FTM     C133774   8.942   5.278   2.675 -0.3508 -0.0885 -0.0862
   14FTM     C233775   9.020   5.278   2.786 -0.4833  0.2022  0.0094
   14FTM     C333776   8.969   5.207   2.899 -0.4449  0.1749  0.0096
   14FTM     C433777   8.848   5.150   2.874 -0.2775 -0.1470 -0.0890
   14FTM     F133778   9.143   5.342   2.792 -0.6471  0.5100  0.1022
   14FTM     C533779   8.954   5.339   2.537  0.4158  0.4341 -0.7524
   14FTM     C633780   9.026   5.476   2.516 -0.0488 -2.2464 -0.5125
   14FTM     C733781   8.942   5.609   2.545  0.5015  0.0117 -0.8971
   14FTM     C833782   8.797   5.570   2.590 -0.3152 -0.8219  0.5854
   14FTM     C933783   8.696   5.657   2.653 -0.2558  0.0877 -0.8694
   14FTM    C1033784   8.642   5.767   2.562  0.6611  0.4392 -0.0580
   14FTM    C1133785   9.172   5.499   2.553 -1.2481  0.8886  0.2144
   14FTM    C1233786   9.276   5.375   2.528  0.3113 -0.3483 -0.8728
   15FTM     S133787   8.319   4.805   3.146 -0.0572  0.2510 -0.0094
   15FTM     C133788   8.280   4.718   3.299 -0.2274  0.4029  0.0348
   15FTM     C233789   8.371   4.751   3.395 -0.4175  0.6077  0.1456
   15FTM     C333790   8.473   4.843   3.357 -0.4418  0.6578  0.2015
   15FTM     C433791   8.461   4.883   3.228 -0.2644  0.4857  0.1312
   15FTM     F133792   8.366   4.698   3.524 -0.5808  0.7621  0.2029
   15FTM     C533793   8.164   4.615   3.306 -1.5563  0.2900  0.9206
   15FTM     C633794   8.023   4.655   3.310 -1.5184 -0.0670  0.0332
   15FTM     C733795   7.928   4.600   3.425  0.8467 -1.0789  0.8611
   15FTM     C833796   7.978   4.571   3.565  0.2246  2.4045 -0.4324
   15FTM     C933797   8.041   4.681   3.636  0.2479  0.0815  0.0501
   15FTM    C1033798   8.093   4.632   3.767 -0.8072  1.4938 -1.7888
   15FTM    C1133799   7.994   4.766   3.202  1.4213 -0.4078 -0.2582
   15FTM    C1233800   7.852   4.823   3.188  1.4321  1.2777  0.5452
   16TPM     C133801   8.945   4.626   3.193 -0.2263  0.3581  1.1291
   16TPM     C233802   8.909   4.501   3.231  0.0026  0.4983  1.8427
   16TPM     C333803   9.019   4.420   3.276  0.4117  0.4698  0.8532
   16TPM     C433804   9.139   4.484   3.273  0.4948  0.3081 -0.6149
   16TPM     S133805   9.123   4.653   3.212  0.0593  0.1782 -0.8635
   17BDD     C133806   9.373   4.311   3.538  0.1878  0.2908 -0.1729
   17BDD     C233807   9.455   4.344   3.434  0.2298  0.2288 -0.1591
   17BDD     C333808   9.385   4.402   3.321  0.2778  0.1744 -0.2167
   17BDD     C433809   9.250   4.412   3.340  0.2710  0.1958 -0.2736
   17BDD     S133810   9.202   4.351   3.501  0.2048  0.2855 -0.2590
   17BDD     C533811   9.602   4.322   3.435  0.2277  0.2172 -0.0923
   17BDD     C633812   9.455   4.444   3.197  0.3281  0.1031 -0.2131
   17BDD     O133813   9.394   4.494   3.100  0.3695  0.0561 -0.2627
   17BDD     O233814   9.662   4.272   3.532  0.1864  0.2642 -0.0426
   17BDD     C733815   9.601   4.423   3.198  0.3259  0.0917 -0.1464
   17BDD     C833816   9.671   4.365   3.311  0.2780  0.1462 -0.0888
   17BDD     C933817   9.806   4.354   3.292  0.2844  0.1248 -0.0318
   17BDD     S233818   9.855   4.416   3.131  0.3511  0.0350 -0.0463
   17BDD    C1033819   9.684   4.456   3.094  0.3681  0.0297 -0.1324
   17BDD    C1133820   9.681   4.535   2.960 -0.6417 -0.3851 -0.4535
   17BDD    C1233821   9.737   4.677   2.964  0.5115 -0.1547 -0.2595
   17BDD    C1333822   9.629   4.775   3.030  0.3165 -0.8731  0.5983
   17BDD    C1433823   9.575   4.786   3.165  1.1354  0.8427 -0.0244
   17BDD    C1533824   9.668   4.789   3.288  0.0512 -0.6804  0.7569
   17BDD    C1633825   9.631   4.811   3.442 -1.0767 -0.4116  0.3245
   17BDD    C1733826   9.768   4.743   2.831  0.8202  1.2404  0.1370
   17BDD    C1833827   9.862   4.658   2.745  0.4661  0.1561 -0.1244
   17BDD    C1933828   9.925   4.323   3.389  0.4010 -0.7841 -0.3229
   17BDD    C2033829   9.968   4.169   3.365 -1.0480  0.4045 -0.9018
   17BDD    C2133830  10.104   4.160   3.428 -0.5723 -1.4811 -0.3027
   17BDD    C2233831  10.123   4.176   3.583 -0.0079  1.6057 -0.1518
   17BDD    C2333832  10.250   4.171   3.671  0.8625  0.1766 -1.1034
   17BDD    C2433833  10.387   4.179   3.623 -0.4104 -0.4722  1.0143
   17BDD    C2533834   9.878   4.059   3.400 -0.6818  0.4854 -1.1463
   17BDD    C2633835   9.817   3.942   3.310 -0.0532 -0.7285  0.1628
   18TPM     C133836   9.383   4.253   3.676 -0.2085  0.5644 -0.4511
   18TPM     C233837   9.275   4.217   3.750 -0.4146  0.0101 -1.0024
   18TPM     C333838   9.308   4.156   3.875 -0.7551 -0.5064 -1.1588
   18TPM     C433839   9.442   4.145   3.897 -0.8091 -0.3459 -0.7269
   18TPM     S133840   9.537   4.211   3.760 -0.4305  0.4763 -0.0840
   19BDTP    C133841   9.661   3.781   4.370  0.0436  0.1085 -0.1358
   19BDTP    C233842   9.782   3.821   4.308  0.1137 -0.1614 -0.1752
   19BDTP    C333843   9.785   3.900   4.193  0.2506 -0.2197 -0.2121
   19BDTP    C433844   9.663   3.941   4.138  0.3226 -0.0017 -0.2103
   19BDTP    C533845   9.541   3.901   4.201  0.2522  0.2683 -0.1709
   19BDTP    C633846   9.538   3.822   4.315  0.1152  0.3265 -0.1339
   19BDTP    C733847   9.641   4.023   4.021  0.4648 -0.0119 -0.2443
   19BDTP    C833848   9.510   4.046   3.992  0.5045  0.2342 -0.2325
   19BDTP    S133849   9.397   3.967   4.111  0.3669  0.5134 -0.1767
   19BDTP    C933850   9.683   3.699   4.488 -0.0992  0.1187 -0.1018
   19BDTP   C1033851   9.813   3.676   4.516 -0.1388 -0.1273 -0.1137
   19BDTP    S233852   9.927   3.755   4.398 -0.0013 -0.4067 -0.1695
   20FTM     S133853  10.036   4.009   4.220 -0.6938 -0.7714  0.3112
   20FTM     C133854  10.158   3.991   4.089 -0.7186 -0.3840  0.2327
   20FTM     C233855  10.102   3.928   3.982 -0.7925  0.1004 -0.0198
   20FTM     C333856   9.964   3.891   3.996 -0.8335  0.1976 -0.1640
   20FTM     C433857   9.913   3.927   4.117 -0.7896 -0.2263 -0.0171
   20FTM     F133858  10.172   3.900   3.865 -0.8278  0.4848 -0.1352
   20FTM     C533859  10.299   4.060   4.115  0.7305 -0.8603  0.7689
   20FTM     C633860  10.412   3.998   4.175 -0.3559  0.8980 -0.5736
   20FTM     C733861  10.377   3.969   4.321  1.8323  0.3241 -0.5428
   20FTM     C833862  10.407   3.824   4.368  1.8241  0.1122  0.9208
   20FTM     C933863  10.346   3.811   4.503 -0.8195 -0.0449 -0.7114
   20FTM    C1033864  10.375   3.675   4.558  0.0673 -0.9520  0.0694
   20FTM    C1133865  10.556   4.050   4.152  0.7421 -0.2451 -1.4051
   20FTM    C1233866  10.590   4.193   4.222 -0.4613  0.2121  0.6668
   21FTM     S133867   9.291   3.929   4.422  0.2484  0.3063 -0.3180
   21FTM     C133868   9.179   3.807   4.494  0.2609  0.7763  0.5357
   21FTM     C233869   9.230   3.682   4.476 -0.3741  0.5606  0.1837
   21FTM     C333870   9.356   3.674   4.407 -0.8962  0.0296 -0.7485
   21FTM     C433871   9.402   3.797   4.371 -0.6531 -0.1677 -1.1229
   21FTM     F133872   9.166   3.567   4.520 -0.5198  0.8313  0.6851
   21FTM     C533873   9.041   3.829   4.537 -0.9469 -0.9780 -0.1738
   21FTM     C633874   9.012   3.902   4.672 -0.5674 -0.5151  1.0466
   21FTM     C733875   8.866   3.893   4.694  1.4985  0.7641 -0.2430
   21FTM     C833876   8.783   4.019   4.715  1.2364  1.6123 -0.1025
   21FTM     C933877   8.795   4.121   4.598 -0.0069 -0.0040 -0.7208
   21FTM    C1033878   8.892   4.242   4.628 -1.1838  0.8365  0.2589
   21FTM    C1133879   9.110   3.874   4.787 -0.4317  0.1563  1.5791
   21FTM    C1233880   9.097   3.731   4.854 -0.6565 -0.5620 -0.0812
   22TPM     C133881   9.837   3.579   4.633  0.3202 -0.7123 -0.4293
   22TPM     C233882   9.763   3.478   4.686  0.0246 -0.5882 -0.6061
   22TPM     C333883   9.813   3.427   4.811 -0.6595 -0.3100 -0.2047
   22TPM     C433884   9.926   3.490   4.853 -0.8855 -0.2220  0.2781
   22TPM     S133885   9.978   3.619   4.738 -0.2467 -0.4857  0.2630
   23BDD     C133886  10.274   3.405   5.042 -0.1474  0.4171  0.4260
   23BDD     C233887  10.175   3.362   5.127 -0.1900  0.3071  0.3206
   23BDD     C333888  10.041   3.380   5.073 -0.1476  0.0175  0.1141
   23BDD     C433889  10.040   3.436   4.948 -0.0725 -0.0891  0.0653
   23BDD     S133890  10.206   3.470   4.889 -0.0503  0.1658  0.2742
   23BDD     C533891  10.200   3.303   5.260 -0.2723  0.4640  0.4055
   23BDD     C633892   9.919   3.341   5.147 -0.1829 -0.1430 -0.0271
   23BDD     O133893   9.804   3.356   5.100 -0.1459 -0.3927 -0.2050
   23BDD     O233894  10.315   3.288   5.306 -0.3090  0.7138  0.5835
   23BDD     C733895   9.944   3.282   5.280 -0.2649  0.0139  0.0581
   23BDD     C833896  10.078   3.264   5.334 -0.3076  0.3036  0.2644
   23BDD     C933897  10.079   3.208   5.459 -0.3824  0.4101  0.3132
   23BDD     S233898   9.913   3.174   5.517 -0.4047  0.1552  0.1043
   23BDD    C1033899   9.846   3.239   5.364 -0.3078 -0.0961 -0.0476
   23BDD    C1133900   9.701   3.183   5.335 -0.6286  1.5678  0.1230
   23BDD    C1233901   9.585   3.254   5.404 -1.6431 -0.8251  0.5229
   23BDD    C1333902   9.487   3.156   5.455 -0.3577  0.1242  0.1830
   23BDD    C1433903   9.513   3.054   5.565  0.7149 -0.3360  0.8396
   23BDD    C1533904   9.535   3.104   5.718 -0.4276 -0.1837  0.7697
   23BDD    C1633905   9.442   3.200   5.786 -0.0251 -0.0808  1.2162
   23BDD    C1733906   9.542   3.339   5.287 -1.0721 -1.0505  0.7527
   23BDD    C1833907   9.420   3.435   5.277  0.3866 -0.2928 -0.7303
   23BDD    C1933908  10.183   3.184   5.566  0.7233  1.6934  0.1739
   23BDD    C2033909  10.181   3.255   5.717  1.1038 -0.5743  0.6705
   23BDD    C2133910  10.235   3.207   5.857  0.3980  1.3911 -0.3372
   23BDD    C2233911  10.187   3.045   5.861  0.3477 -0.7244  0.0593
   23BDD    C2333912  10.227   2.998   5.985 -0.8329 -0.2668  0.0775
   23BDD    C2433913  10.371   2.948   6.008  1.2186 -0.5210 -0.6694
   23BDD    C2533914  10.180   3.408   5.702  0.2313  0.2991  1.2939
   23BDD    C2633915  10.324   3.477   5.705  0.7601  0.5953  0.0130
   24TPM     C133916  10.426   3.407   5.040 -0.1821 -0.6586  0.8827
   24TPM     C233917  10.488   3.440   4.924 -0.7813 -1.1682  0.3955
   24TPM     C333918  10.632   3.429   4.930 -0.7281 -0.9210 -0.2275
   24TPM     C433919  10.678   3.387   5.051 -0.0883 -0.2229 -0.2154
   24TPM     S133920  10.544   3.358   5.167  0.5013  0.1795  0.5897
   25BDTP    C133921  11.231   3.121   5.174 -0.1245  0.2078  0.2141
   25BDTP    C233922  11.159   3.102   5.296 -0.1683  0.0901  0.1709
   25BDTP    C333923  11.030   3.148   5.315 -0.1962  0.0204  0.1487
   25BDTP    C433924  10.967   3.215   5.208 -0.1802  0.0689  0.1699
   25BDTP    C533925  11.038   3.234   5.086 -0.1364  0.1866  0.2130
   25BDTP    C633926  11.168   3.188   5.067 -0.1086  0.2563  0.2353
   25BDTP    C733927  10.834   3.272   5.204 -0.2030  0.0138  0.1533
   25BDTP    C833928  10.802   3.331   5.087 -0.1786  0.0834  0.1817
   25BDTP    S133929  10.936   3.324   4.964 -0.1237  0.2288  0.2333
   25BDTP    C933930  11.364   3.064   5.177 -0.1020  0.2630  0.2306
   25BDTP   C1033931  11.396   3.005   5.295 -0.1261  0.1933  0.2022
   25BDTP    S233932  11.262   3.012   5.417 -0.1812  0.0479  0.1508
   26FTM     S133933  11.079   3.264   5.562  0.2494 -0.0634  0.0696
   26FTM     C133934  10.957   3.230   5.690  0.3002 -0.1179  0.1040
   26FTM     C233935  10.859   3.150   5.641  0.4315 -0.3322  0.1904
   26FTM     C333936  10.872   3.110   5.504  0.4988 -0.4638  0.2344
   26FTM     C433937  10.984   3.163   5.446  0.4166 -0.3467  0.1797
   26FTM     F133938  10.751   3.107   5.717  0.4983 -0.4219  0.2348
   26FTM     C533939  10.966   3.302   5.822 -0.0327  1.3461  1.9277
   26FTM     C633940  10.947   3.461   5.803 -0.2547 -0.2434 -1.3021
   26FTM     C733941  11.062   3.548   5.754  0.6991  0.4803  0.5955
   26FTM     C833942  11.197   3.476   5.789  0.1701 -1.6146  0.1568
   26FTM     C933943  11.254   3.477   5.930 -0.1164 -0.9483  0.0988
   26FTM    C1033944  11.296   3.612   5.990 -0.1887 -0.6959  0.8367
   26FTM    C1133945  10.812   3.536   5.786 -0.4902  1.2130  1.6391
   26FTM    C1233946  10.681   3.472   5.746 -0.4165  0.1249  0.2938
   27FTM     S133947  11.390   3.271   4.915  0.2539 -0.7272  0.2641
   27FTM     C133948  11.401   3.208   4.747 -0.1348 -0.0752 -0.0105
   27FTM     C233949  11.285   3.146   4.713 -0.3452  0.3626 -0.1160
   27FTM     C333950  11.183   3.142   4.814 -0.2201  0.2212  0.0070
   27FTM     C433951  11.222   3.205   4.928  0.0967 -0.3434  0.2137
   27FTM     F133952  11.264   3.087   4.589 -0.6635  0.9175 -0.3303
   27FTM     C533953  11.527   3.209   4.668 -0.1282  0.9342 -0.6955
   27FTM     C633954  11.557   3.232   4.504 -0.2495 -0.0738 -0.2637
   27FTM     C733955  11.438   3.241   4.402 -0.8586  0.5469 -0.2115
   27FTM     C833956  11.321   3.341   4.412 -0.5463  0.5465  0.2613
   27FTM     C933957  11.261   3.338   4.271  0.4317 -0.0566 -0.2226
   27FTM    C1033958  11.164   3.450   4.239 -0.8810  0.0000 -0.0906
   27FTM    C1133959  11.703   3.237   4.463 -0.7030 -0.2218  1.2363
   27FTM    C1233960  11.800   3.348   4.530 -0.2173 -1.0685 -1.2078
   28TPM     C133961  11.517   2.943   5.324  0.4979  1.0306  0.8898
   28TPM     C233962  11.558   2.872   5.434  0.7469  1.0037  0.7820
   28TPM     C333963  11.678   2.796   5.413  0.3947  0.5680  0.3192
   28TPM     C433964  11.729   2.808   5.287 -0.1228  0.2625  0.0740
   28TPM     S133965  11.628   2.917   5.185 -0.2061  0.5035  0.4116
   29BDD     C133966  12.081   2.776   5.112 -0.2502 -0.0258 -0.0045
   29BDD     C233967  12.064   2.659   5.181 -0.1061 -0.0501 -0.0085
   29BDD     C333968  11.942   2.657   5.260 -0.0339 -0.1493  0.1003
   29BDD     C433969  11.868   2.772   5.250 -0.1241 -0.1992  0.1856
   29BDD     S133970  11.946   2.891   5.140 -0.3056 -0.1255  0.1358
   29BDD     C533971  12.158   2.546   5.177 -0.0293  0.0171 -0.1125
   29BDD     C633972  11.903   2.541   5.343  0.1220 -0.1909  0.1156
   29BDD     O133973  11.798   2.539   5.411  0.1842 -0.2764  0.2096
   29BDD     O233974  12.263   2.548   5.109 -0.0916  0.1027 -0.2062
   29BDD     C733975  11.998   2.427   5.339  0.1987 -0.1239  0.0118
   29BDD     C833976  12.119   2.430   5.260  0.1265 -0.0246 -0.0972
   29BDD     C933977  12.193   2.315   5.270  0.2167  0.0254 -0.1824
   29BDD     S233978  12.115   2.196   5.379  0.3982 -0.0484 -0.1325
   29BDD    C1033979  11.980   2.311   5.408  0.3429 -0.1481  0.0079
   29BDD    C1133980  11.860   2.242   5.491 -1.2776  0.6504  0.9118
   29BDD    C1233981  11.918   2.157   5.604 -1.0261  0.5555 -1.3866
   29BDD    C1333982  12.033   2.202   5.700  0.7278  0.0328 -0.3413
   29BDD    C1433983  12.121   2.083   5.747 -0.0434  0.3902  0.1566
   29BDD    C1533984  12.206   2.090   5.874 -0.9394  0.1471 -0.6397
   29BDD    C1633985  12.359   2.080   5.856 -0.1455 -0.7084  0.5764
   29BDD    C1733986  11.853   2.020   5.638  0.3450 -0.6242 -1.5290
   29BDD    C1833987  11.712   2.001   5.630  1.7505 -0.7565  0.3047
   29BDD    C1933988  12.333   2.270   5.217 -0.6368 -1.1213  0.2149
   29BDD    C2033989  12.461   2.289   5.304 -0.7649 -1.2233 -0.4546
   29BDD    C2133990  12.509   2.418   5.364 -0.1639  0.0191  0.6121
   29BDD    C2233991  12.419   2.502   5.457  0.0295  0.9320 -0.2052
   29BDD    C2333992  12.370   2.441   5.580 -0.2505 -0.4826 -0.8104
   29BDD    C2433993  12.289   2.548   5.648  0.7426 -0.4305 -0.1998
   29BDD    C2533994  12.593   2.232   5.240 -0.8801  0.3201  0.0749
   29BDD    C2633995  12.602   2.079   5.204 -0.7696  0.0947 -0.3015
   30TPM     C133996  12.182   2.820   5.006  0.5256 -0.4560  0.2175
   30TPM     C233997  12.302   2.845   5.065  0.6051 -0.4637  0.0587
   30TPM     C333998  12.382   2.942   4.994  0.3103 -0.1017  0.2129
   30TPM     C433999  12.322   2.990   4.881  0.0060  0.1819  0.4896
   30TPM     S134000  12.160   2.916   4.856  0.0687  0.0127  0.5773
   31BDTP    C134001  12.516   3.456   4.503  0.1367  0.1472 -0.1634
   31BDTP    C234002  12.626   3.441   4.593  0.1119 -0.1825 -0.1847
   31BDTP    C334003  12.626   3.350   4.697 -0.0999 -0.2546 -0.2470
   31BDTP    C434004  12.512   3.269   4.715 -0.2967  0.0103 -0.2906
   31BDTP    C534005  12.402   3.284   4.625 -0.2720  0.3399 -0.2692
   31BDTP    C634006  12.402   3.375   4.521 -0.0602  0.4121 -0.2069
   31BDTP    C734007  12.489   3.167   4.815 -0.5338 -0.0035 -0.3574
   31BDTP    C834008  12.368   3.106   4.806 -0.6863  0.2959 -0.3871
   31BDTP    S134009  12.267   3.168   4.668 -0.5510  0.6377 -0.3344
   31BDTP    C934010  12.539   3.557   4.403  0.3738  0.1610 -0.0966
   31BDTP   C1034011  12.659   3.619   4.412  0.5262 -0.1385 -0.0670
   31BDTP    S234012  12.760   3.557   4.550  0.3909 -0.4803 -0.1197
   32FTM     S134013  12.725   3.372   4.964 -0.2851  0.3983 -0.3660
   32FTM     C134014  12.903   3.353   4.977 -0.3549 -0.3417 -0.4201
   32FTM     C234015  12.957   3.332   4.853 -0.4878 -0.6725 -0.4237
   32FTM     C334016  12.864   3.330   4.744 -0.5422 -0.3779 -0.3853
   32FTM     C434017  12.736   3.350   4.785 -0.4478  0.1974 -0.3514
   32FTM     F134018  13.093   3.314   4.832 -0.5682 -1.2619 -0.4617
   32FTM     C534019  12.949   3.410   5.112 -0.6233  0.6862  0.2833
   32FTM     C634020  13.007   3.556   5.103  1.0339 -0.6845  0.1056
   32FTM     C734021  13.110   3.610   5.210  1.1032 -0.8760  0.3231
   32FTM     C834022  13.119   3.525   5.328 -1.0811 -1.3638 -0.8204
   32FTM     C934023  13.005   3.495   5.415  0.1859  0.0228 -1.4579
   32FTM    C1034024  12.925   3.608   5.493  1.1090  0.2824  1.0235
   32FTM    C1134025  12.920   3.662   5.029 -0.5791  0.6342  1.0593
   32FTM    C1234026  12.832   3.747   5.115  1.9421 -0.6642  0.4088
   33FTM     S134027  12.160   3.491   4.389 -0.4164  0.1718 -0.2582
   33FTM     C134028  12.090   3.381   4.264 -0.4072 -0.0571 -0.0624
   33FTM     C234029  12.163   3.267   4.257 -0.6439 -0.2491  0.4400
   33FTM     C334030  12.276   3.259   4.345 -0.8421 -0.2304  0.6971
   33FTM     C434031  12.289   3.370   4.423 -0.7543 -0.0171  0.3813
   33FTM     F134032  12.133   3.164   4.169 -0.6952 -0.4533  0.6969
   33FTM     C534033  11.975   3.416   4.176  0.3369 -0.9070  0.5499
   33FTM     C634034  11.988   3.522   4.058 -2.3033 -0.4499  0.6080
   33FTM     C734035  11.972   3.676   4.109 -0.1605 -0.0272  0.2457
   33FTM     C834036  11.982   3.780   3.990 -0.2355  1.1309 -0.0430
   33FTM     C934037  12.007   3.912   4.047 -0.2372 -0.8460 -0.3098
   33FTM    C1034038  12.163   3.932   4.042  0.4236  0.6066 -0.1370
   33FTM    C1134039  11.897   3.472   3.945 -0.0711 -0.1933 -0.6469
   33FTM    C1234040  11.908   3.336   3.867 -0.3658  0.1443  1.2046
   34TPM     C134041  12.713   3.737   4.352 -1.0142 -0.1560  0.0518
   34TPM     C234042  12.719   3.863   4.403 -1.7626 -0.1971  0.2755
   34TPM     C334043  12.769   3.961   4.309 -1.0672  0.0196  0.8521
   34TPM     C434044  12.801   3.908   4.187  0.2114  0.2261  1.0680
   34TPM     S134045  12.770   3.730   4.181  0.6397  0.1623  0.5560
   35BDD     C134046  12.872   4.189   3.917 -0.2872 -0.1086 -0.2954
   35BDD     C234047  12.969   4.094   3.894 -0.2908 -0.1281 -0.2286
   35BDD     C334048  12.958   3.980   3.982 -0.3151 -0.0807 -0.1692
   35BDD     C434049  12.854   3.988   4.071 -0.3297 -0.0254 -0.1916
   35BDD     S134050  12.762   4.141   4.050 -0.3139 -0.0291 -0.2886
   35BDD     C534051  13.074   4.106   3.791 -0.2720 -0.1913 -0.2170
   35BDD     C634052  13.052   3.866   3.976 -0.3230 -0.0919 -0.0925
   35BDD     O134053  13.043   3.766   4.052 -0.3440 -0.0508 -0.0414
   35BDD     O234054  13.082   4.205   3.715 -0.2510 -0.2323 -0.2682
   35BDD     C734055  13.157   3.877   3.873 -0.3043 -0.1551 -0.0809
   35BDD     C834056  13.167   3.992   3.784 -0.2800 -0.2025 -0.1402
   35BDD     C934057  13.271   3.984   3.696 -0.2654 -0.2578 -0.1178
   35BDD     S234058  13.363   3.831   3.717 -0.2811 -0.2541 -0.0210
   35BDD    C1034059  13.253   3.783   3.850 -0.3079 -0.1747 -0.0141
   35BDD    C1134060  13.265   3.645   3.900 -0.9029  1.3519  0.1268
   35BDD    C1234061  13.315   3.606   4.033 -0.8950  0.3264 -1.4535
   35BDD    C1334062  13.304   3.444   4.054  1.3933 -0.3996 -0.1882
   35BDD    C1434063  13.403   3.355   3.972  0.0455 -0.4268 -0.2487
   35BDD    C1534064  13.550   3.371   3.940 -0.4354 -0.0473  0.6120
   35BDD    C1634065  13.607   3.240   3.865  0.1967 -1.0324  0.8965
   35BDD    C1734066  13.435   3.660   4.124  0.5119 -0.0283  0.1961
   35BDD    C1834067  13.460   3.618   4.269  0.0616 -0.2602  0.1285
   35BDD    C1934068  13.331   4.054   3.576  0.4155 -0.8329  0.2867
   35BDD    C2034069  13.478   4.079   3.587 -0.2390 -2.0482 -0.1591
   35BDD    C2134070  13.520   4.131   3.443  0.5898  0.4298 -0.4475
   35BDD    C2234071  13.660   4.153   3.372  0.4552  1.0708 -0.8777
   35BDD    C2334072  13.731   4.029   3.421  1.0066  0.7601 -0.2540
   35BDD    C2434073  13.872   4.021   3.440 -1.7124 -0.7081 -0.8380
   35BDD    C2534074  13.523   4.151   3.721 -0.7219 -0.9571  0.6430
   35BDD    C2634075  13.490   4.303   3.737  1.0017  0.8271 -0.2452
   36TPM     C134076  12.845   4.317   3.869 -0.4013 -0.7793  1.4935
   36TPM     C234077  12.830   4.352   3.738  0.1740 -1.4696  1.2276
   36TPM     C334078  12.797   4.491   3.719  0.6013 -1.4771  0.3227
   36TPM     C434079  12.787   4.561   3.835  0.3516 -0.7925 -0.1012
   36TPM     S134080  12.818   4.457   3.979 -0.4486 -0.0798  0.6149
   37BDTP    C134081  12.696   5.175   3.744  0.1615  0.0300 -0.0075
   37BDTP    C234082  12.591   5.147   3.835  0.2228 -0.0958  0.0240
   37BDTP    C334083  12.571   5.021   3.890  0.3583 -0.1323 -0.0100
   37BDTP    C434084  12.659   4.918   3.852  0.4373 -0.0402 -0.0784
   37BDTP    C534085  12.764   4.946   3.760  0.3761  0.0858 -0.1098
   37BDTP    C634086  12.784   5.072   3.706  0.2406  0.1222 -0.0758
   37BDTP    C734087  12.659   4.779   3.895  0.5795 -0.0555 -0.1239
   37BDTP    C834088  12.757   4.704   3.841  0.6274  0.0514 -0.1872
   37BDTP    S134089  12.864   4.797   3.727  0.4991  0.1867 -0.1981
   37BDTP    C934090  12.697   5.314   3.700  0.0193  0.0453  0.0381
   37BDTP   C1034091  12.599   5.389   3.755 -0.0286 -0.0618  0.1014
   37BDTP    S234092  12.491   5.296   3.868  0.0997 -0.1969  0.1123
   38FTM     S134093  12.437   5.088   4.133 -0.1590 -0.0973  0.2256
   38FTM     C134094  12.259   5.097   4.110 -0.1847 -0.1467  0.3971
   38FTM     C234095  12.225   5.042   3.990 -0.2921 -0.2187  0.4599
   38FTM     C334096  12.334   4.990   3.911 -0.3593 -0.2395  0.3807
   38FTM     C434097  12.454   5.006   3.973 -0.3014 -0.1814  0.2529
   38FTM     F134098  12.095   5.034   3.944 -0.3359 -0.2705  0.5931
   38FTM     C534099  12.180   5.109   4.232 -0.3872 -1.7582 -1.6800
   38FTM     C634100  12.178   4.989   4.335  1.8030  1.0742  0.4234
   38FTM     C734101  12.300   4.948   4.415 -0.1760 -1.5238 -0.2532
   38FTM     C834102  12.311   5.008   4.557  0.4652  0.5216  0.8206
   38FTM     C934103  12.368   5.146   4.577  0.0616 -0.1917  0.7812
   38FTM    C1034104  12.312   5.228   4.684  0.1155  0.6574  0.2434
   38FTM    C1134105  12.118   4.859   4.260 -1.4666  0.5301 -1.9340
   38FTM    C1234106  11.978   4.881   4.208 -0.5570  0.5608  0.8093
   39FTM     S134107  13.032   5.189   3.604 -0.0733 -0.1194  0.3292
   39FTM     C134108  13.055   5.153   3.429 -0.3788  0.2096  0.2178
   39FTM     C234109  12.954   5.074   3.385 -0.5647  0.4584  0.1947
   39FTM     C334110  12.854   5.038   3.481 -0.4829  0.4095  0.2607
   39FTM     C434111  12.880   5.091   3.604 -0.2259  0.1136  0.3368
   39FTM     F134112  12.945   5.029   3.253 -0.8200  0.7451  0.1125
   39FTM     C534113  13.160   5.229   3.376 -0.2511 -0.6619  0.9155
   39FTM     C634114  13.286   5.169   3.309 -0.7983  0.4223 -0.0103
   39FTM     C734115  13.404   5.265   3.315  0.1433  0.3011  0.3807
   39FTM     C834116  13.548   5.200   3.345  0.2996  0.4721  0.1377
   39FTM     C934117  13.564   5.104   3.473  0.4828 -0.7032  0.8590
   39FTM    C1034118  13.711   5.056   3.487 -1.0822 -0.3952 -0.5199
   39FTM    C1134119  13.262   5.065   3.193  0.7980  1.0780  0.0138
   39FTM    C1234120  13.253   5.091   3.038  1.2396 -0.9581 -1.0523
   40TPM     C134121  12.568   5.529   3.728 -0.4257  0.3630 -0.3537
   40TPM     C234122  12.662   5.627   3.714 -0.5717  0.4364 -0.8208
   40TPM     C334123  12.605   5.758   3.694 -0.7719  0.3690 -0.6976
   40TPM     C434124  12.469   5.760   3.694 -0.7786  0.2444 -0.1367
   40TPM     S134125  12.401   5.595   3.719 -0.5307  0.2019  0.2826
   41BDD     C134126  12.305   6.099   3.586 -0.3299 -0.3906 -0.1275
   41BDD     C234127  12.231   6.060   3.694 -0.2659 -0.3041 -0.0517
   41BDD     C334128  12.276   5.934   3.751 -0.3264 -0.3343 -0.0705
   41BDD     C434129  12.383   5.879   3.686 -0.4356 -0.4431 -0.1604
   41BDD     S134130  12.436   5.982   3.549 -0.4703 -0.5156 -0.2277
   41BDD     C534131  12.117   6.136   3.748 -0.1468 -0.1909  0.0407
   41BDD     C634132  12.210   5.872   3.869 -0.2736 -0.2540  0.0014
   41BDD     O134133  12.249   5.764   3.918 -0.3257 -0.2801 -0.0148
   41BDD     O234134  12.079   6.244   3.699 -0.0946 -0.1649  0.0569
   41BDD     C734135  12.096   5.949   3.923 -0.1545 -0.1405  0.0939
   41BDD     C834136  12.052   6.074   3.865 -0.0940 -0.1105  0.1127
   41BDD     C934137  11.944   6.129   3.931  0.0153 -0.0017  0.2025
   41BDD     S234138  11.892   6.026   4.068  0.0500  0.0708  0.2699
   41BDD    C1034139  12.022   5.909   4.031 -0.0905 -0.0544  0.1698
   41BDD    C1134140  12.017   5.774   4.108  0.8576  0.7800 -0.0185
   41BDD    C1234141  11.982   5.645   4.026  1.1935 -0.8483 -1.0314
   41BDD    C1334142  11.867   5.656   3.931 -0.3911  1.1999 -0.5152
   41BDD    C1434143  11.727   5.686   3.995 -1.2510  0.1903  0.5056
   41BDD    C1534144  11.630   5.667   3.879 -1.4329  0.2074 -2.0560
   41BDD    C1634145  11.536   5.549   3.892  0.4903  1.8221  0.4591
   41BDD    C1734146  11.984   5.530   4.119 -0.8191  0.0021 -0.4476
   41BDD    C1834147  11.987   5.380   4.077 -0.0867  0.6578  0.6073
   41BDD    C1934148  11.850   6.232   3.893  0.0274  0.2842  0.0550
   41BDD    C2034149  11.796   6.316   3.996 -0.0942  1.9825 -0.0017
   41BDD    C2134150  11.811   6.450   3.972  0.3644 -0.3882 -1.1151
   41BDD    C2234151  11.824   6.580   4.054 -0.5641  0.3739 -0.3042
   41BDD    C2334152  11.790   6.719   3.992  0.6076  1.3563 -0.0981
   41BDD    C2434153  11.844   6.760   3.863 -0.9996  1.0945  0.6824
   41BDD    C2534154  11.666   6.256   4.061  1.2172 -0.6814  0.2118
   41BDD    C2634155  11.540   6.262   3.998 -0.1002 -0.2879  0.4762
   42TPM     C134156  12.295   6.207   3.488 -0.5660  1.0158  0.0680
   42TPM     C234157  12.296   6.341   3.510 -1.4247  1.1473 -0.5547
   42TPM     C334158  12.295   6.420   3.390 -1.5484  0.5790 -0.9349
   42TPM     C434159  12.293   6.346   3.276 -0.7839  0.0141 -0.6023
   42TPM     S134160  12.292   6.169   3.311  0.1588  0.1573  0.2235
   43BDTP    C134161  12.127   6.526   2.693  0.1080 -0.3829  0.2326
   43BDTP    C234162  12.024   6.434   2.729  0.0307 -0.3059  0.2090
   43BDTP    C334163  12.021   6.369   2.852 -0.1047 -0.2218  0.2494
   43BDTP    C434164  12.123   6.397   2.944 -0.1670 -0.2134  0.3164
   43BDTP    C534165  12.226   6.489   2.908 -0.0897 -0.2902  0.3399
   43BDTP    C634166  12.230   6.553   2.785  0.0457 -0.3742  0.2995
   43BDTP    C734167  12.141   6.342   3.077 -0.3058 -0.1333  0.3674
   43BDTP    C834168  12.250   6.389   3.142 -0.3359 -0.1463  0.4275
   43BDTP    S134169  12.347   6.507   3.044 -0.1929 -0.2615  0.4278
   43BDTP    C934170  12.110   6.580   2.560  0.2468 -0.4628  0.1814
   43BDTP   C1034171  12.000   6.534   2.495  0.2770 -0.4500  0.1213
   43BDTP    S234172  11.904   6.415   2.593  0.1339 -0.3345  0.1210
   44FTM     S134173  11.919   6.106   2.918 -1.1203 -0.4754 -0.6229
   44FTM     C134174  11.751   6.111   2.985 -0.7442 -0.1775  0.3430
   44FTM     C234175  11.701   6.237   2.973 -0.2485  0.1596  1.5491
   44FTM     C334176  11.787   6.335   2.914 -0.1337  0.2056  1.7896
   44FTM     C434177  11.908   6.282   2.879 -0.5552 -0.1062  0.7333
   44FTM     F134178  11.573   6.271   3.016  0.1308  0.4463  2.5069
   44FTM     C534179  11.726   6.018   3.090 -0.2067 -0.0052 -1.0954
   44FTM     C634180  11.832   5.981   3.205  0.4815  0.0019 -0.8898
   44FTM     C734181  11.907   6.089   3.258 -0.5994 -0.4520 -1.5945
   44FTM     C834182  11.830   6.187   3.343  0.3683 -0.2955  1.3858
   44FTM     C934183  11.880   6.334   3.370  0.0289  0.6098  0.9320
   44FTM    C1034184  11.781   6.406   3.452 -0.5759  1.3448 -0.5243
   44FTM    C1134185  11.825   5.862   3.307  1.2000  0.7501  1.2155
   44FTM    C1234186  11.703   5.806   3.362 -0.3193 -0.1654 -0.1485
   45FTM     S134187  12.308   6.800   2.684 -0.4058 -0.3058  0.1315
   45FTM     C134188  12.484   6.835   2.684 -0.4363 -0.1337 -0.4769
   45FTM     C234189  12.553   6.730   2.735 -0.1804  0.0415 -0.4551
   45FTM     C334190  12.475   6.617   2.777  0.0494  0.0522  0.0243
   45FTM     C434191  12.341   6.637   2.757 -0.0331 -0.1205  0.3813
   45FTM     F134192  12.691   6.729   2.748 -0.1391  0.2024 -0.8680
   45FTM     C534193  12.542   6.974   2.648  0.5676  0.0301  0.6621
   45FTM     C634194  12.651   7.055   2.723  0.3451  0.2723  1.3413
   45FTM     C734195  12.653   7.059   2.870  0.5854 -0.9615 -2.0010
   45FTM     C834196  12.786   7.035   2.936 -0.5538  1.4592 -1.1105
   45FTM     C934197  12.781   6.973   3.077 -1.8674 -0.5897  1.2471
   45FTM    C1034198  12.914   6.992   3.153  1.0219  0.6223  0.3887
   45FTM    C1134199  12.697   7.200   2.692  0.6766  0.1709  1.0639
   45FTM    C1234200  12.615   7.272   2.567 -0.3722 -0.9116 -0.8627
   46TPM     C134201  11.967   6.575   2.361 -0.1780  0.3978  0.2462
   46TPM     C234202  11.883   6.499   2.284  0.2733 -0.0108  0.1500
   46TPM     C334203  11.873   6.544   2.148  0.9742 -0.6597 -0.1358
   46TPM     C434204  11.948   6.655   2.121  1.0573 -0.7458 -0.2577
   46TPM     S134205  12.039   6.711   2.266  0.2505 -0.0084 -0.0190
   47BDD     C134206  12.141   6.705   1.781  0.1656 -0.6809 -0.1460
   47BDD     C234207  12.010   6.732   1.751  0.2039 -0.4793 -0.1366
   47BDD     C334208  11.920   6.711   1.863  0.2195 -0.0277 -0.0357
   47BDD     C434209  11.984   6.669   1.976  0.1929  0.1088  0.0304
   47BDD     S134210  12.161   6.652   1.951  0.1465 -0.3189 -0.0292
   47BDD     C534211  11.964   6.778   1.618  0.2275 -0.6948 -0.2201
   47BDD     C634212  11.775   6.734   1.853  0.2602  0.2521 -0.0085
   47BDD     O134213  11.697   6.716   1.949  0.2737  0.6416  0.0785
   47BDD     O234214  12.041   6.796   1.522  0.2141 -1.0842 -0.3071
   47BDD     C734215  11.728   6.779   1.720  0.2838  0.0370 -0.0919
   47BDD     C834216  11.818   6.800   1.609  0.2682 -0.4148 -0.1929
   47BDD     C934217  11.754   6.843   1.495  0.2948 -0.5511 -0.2590
   47BDD     S234218  11.578   6.859   1.520  0.3412 -0.1236 -0.1994
   47BDD    C1034219  11.597   6.806   1.691  0.3221  0.2384 -0.0826
   47BDD    C1134220  11.470   6.765   1.760  0.6004  0.9345  0.8527
   47BDD    C1234221  11.364   6.867   1.815  0.4741 -0.0737  0.9374
   47BDD    C1334222  11.428   6.969   1.907  0.4996  1.1664  0.0815
   47BDD    C1434223  11.455   6.925   2.042  0.5765  0.6113 -0.8215
   47BDD    C1534224  11.513   7.018   2.144 -0.3955  1.2411 -0.9414
   47BDD    C1634225  11.486   6.928   2.273 -1.4673 -1.3088 -1.7583
   47BDD    C1734226  11.227   6.799   1.842  0.8451 -1.6671 -1.1364
   47BDD    C1834227  11.119   6.917   1.897  0.2315  1.6137  1.9362
   47BDD    C1934228  11.784   6.889   1.351 -1.0202 -0.0932 -0.5376
   47BDD    C2034229  11.836   7.031   1.342 -0.5965  0.8838  0.5960
   47BDD    C2134230  11.748   7.158   1.329  0.5516 -0.7660 -0.7452
   47BDD    C2234231  11.808   7.301   1.347  0.7286  0.7796  0.8236
   47BDD    C2334232  11.701   7.401   1.319 -1.2905  0.4980 -0.7827
   47BDD    C2434233  11.797   7.520   1.306 -0.4137  0.0197 -1.4174
   47BDD    C2534234  11.946   7.028   1.240  0.5769  0.0602  0.6021
   47BDD    C2634235  12.087   7.087   1.253 -0.0946  0.7946 -0.1572
   48TPM     C134236  12.264   6.720   1.718 -0.6538 -0.0472 -0.8951
   48TPM     C234237  12.346   6.820   1.760 -1.1028  0.2248 -0.6534
   48TPM     C334238  12.480   6.812   1.706 -0.7932  0.4207  0.0697
   48TPM     C434239  12.500   6.705   1.624 -0.1082  0.2977  0.3794
   48TPM     S134240  12.350   6.606   1.607  0.2014 -0.0776 -0.2228
   49BDTP    C134241  13.051   6.717   1.299 -0.0950  0.0739  0.2054
   49BDTP    C234242  12.964   6.648   1.210 -0.0520  0.1740  0.0855
   49BDTP    C334243  12.832   6.619   1.241 -0.0890  0.2062 -0.0415
   49BDTP    C434244  12.783   6.660   1.366 -0.1722  0.1361 -0.0511
   49BDTP    C534245  12.869   6.730   1.455 -0.2151  0.0358  0.0689
   49BDTP    C634246  13.001   6.759   1.424 -0.1781  0.0039  0.1959
   49BDTP    C734247  12.649   6.642   1.420 -0.2234  0.1520 -0.1713
   49BDTP    C834248  12.632   6.693   1.544 -0.3017  0.0695 -0.1478
   49BDTP    S134249  12.782   6.773   1.610 -0.3215 -0.0398  0.0300
   49BDTP    C934250  13.184   6.736   1.245 -0.0437  0.0581  0.3257
   49BDTP   C1034251  13.201   6.684   1.121  0.0346  0.1405  0.3022
   49BDTP    S234252  13.051   6.605   1.055  0.0545  0.2500  0.1244
   50FTM     S134253  12.678   6.643   1.012  0.7886 -0.0998 -0.1378
   50FTM     C134254  12.640   6.488   0.928  0.1142 -0.1567  0.2553
   50FTM     C234255  12.682   6.383   1.003 -1.0916 -0.1961  0.9110
   50FTM     C334256  12.744   6.416   1.128 -1.5534 -0.1847  1.1421
   50FTM     C434257  12.750   6.550   1.149 -0.6724 -0.1347  0.6472
   50FTM     F134258  12.666   6.251   0.964 -1.8489 -0.2449  1.3408
   50FTM     C534259  12.590   6.488   0.782 -0.7938 -1.1525  0.3702
   50FTM     C634260  12.674   6.534   0.669 -0.1119  0.5615  0.0092
   50FTM     C734261  12.828   6.521   0.678  1.7314  0.8009  0.1001
   50FTM     C834262  12.921   6.428   0.597 -0.4367 -0.9478  0.0538
   50FTM     C934263  12.942   6.459   0.460  0.1139 -0.4868 -0.9505
   50FTM    C1034264  13.024   6.572   0.410 -0.1473  0.1139  0.7938
   50FTM    C1134265  12.667   6.683   0.641  0.0410  0.8446  0.5266
   50FTM    C1234266  12.540   6.725   0.586  0.2941 -1.2732  1.1657
   51FTM     S134267  13.215   6.823   1.607  0.2767 -0.1477  0.0582
   51FTM     C134268  13.238   7.000   1.636  0.3264 -0.1743  0.1794
   51FTM     C234269  13.141   7.070   1.572  0.0230 -0.1341  0.6770
   51FTM     C334270  13.045   6.994   1.499 -0.2596 -0.0815  0.9868
   51FTM     C434271  13.069   6.860   1.506 -0.1699 -0.0816  0.7177
   51FTM     F134272  13.133   7.209   1.577 -0.0167 -0.1425  0.8814
   51FTM     C534273  13.343   7.040   1.749  0.4905 -0.3462 -0.1053
   51FTM     C634274  13.277   7.110   1.875  0.0666  0.4286  1.3817
   51FTM     C734275  13.169   7.036   1.964 -0.0734  0.2717 -0.7079
   51FTM     C834276  13.213   6.930   2.049 -0.4823  2.0036  0.7273
   51FTM     C934277  13.128   6.818   2.082  0.0058  0.5237  0.9688
   51FTM    C1034278  13.180   6.733   2.203  0.4553  0.8598 -1.1603
   51FTM    C1134279  13.366   7.197   1.958  0.0020 -0.9501 -0.3169
   51FTM    C1234280  13.473   7.289   1.905  0.7055 -0.1755  0.5418
   52TPM     C134281  13.305   6.702   1.025  0.0218  0.6220 -0.7002
   52TPM     C234282  13.320   6.651   0.900  0.0549  1.1322 -0.9096
   52TPM     C334283  13.456   6.652   0.853  0.1424  0.8706 -0.6683
   52TPM     C434284  13.545   6.703   0.942  0.1760  0.1606 -0.2750
   52TPM     S134285  13.463   6.756   1.094  0.0991 -0.2355 -0.1781
   53BDD     C134286  13.916   6.819   0.968 -0.1807 -0.1376  0.4254
   53BDD     C234287  13.922   6.696   0.909 -0.0600 -0.0819  0.3197
   53BDD     C334288  13.791   6.640   0.880 -0.0011 -0.0198 -0.0765
   53BDD     C434289  13.687   6.721   0.918 -0.0776 -0.0289 -0.2672
   53BDD     S134290  13.747   6.874   0.992 -0.2288 -0.1160  0.0362
   53BDD     C534291  14.047   6.626   0.878  0.0055 -0.0842  0.5790
   53BDD     C634292  13.773   6.508   0.817  0.1290  0.0465 -0.2517
   53BDD     O134293  13.661   6.460   0.792  0.1798  0.1001 -0.5933
   53BDD     O234294  14.160   6.674   0.903 -0.0454 -0.1376  0.9207
   53BDD     C734295  13.899   6.437   0.785  0.1945  0.0445  0.0077
   53BDD     C834296  14.030   6.493   0.814  0.1355 -0.0178  0.4039
   53BDD     C934297  14.133   6.412   0.777  0.2121 -0.0087  0.5945
   53BDD     S234298  14.074   6.260   0.703  0.3633  0.0785  0.2911
   53BDD    C1034299  13.905   6.314   0.726  0.3151  0.1001 -0.0981
   53BDD    C1134300  13.787   6.218   0.694 -0.3964 -0.3569  0.4410
   53BDD    C1234301  13.775   6.158   0.552  1.7032 -0.4091 -0.5873
   53BDD    C1334302  13.859   6.036   0.533 -1.4201  0.8089  1.2542
   53BDD    C1434303  13.899   5.930   0.627  0.5383  0.0508 -0.7926
   53BDD    C1534304  13.986   5.811   0.583 -0.1975  0.1936  0.4186
   53BDD    C1634305  14.129   5.851   0.611  0.1126  0.3631 -1.0911
   53BDD    C1734306  13.694   6.238   0.429  0.3847  0.3579 -0.3448
   53BDD    C1834307  13.598   6.361   0.462 -0.6995 -0.0995 -0.1325
   53BDD    C1934308  14.283   6.445   0.788  0.0299  0.6527 -1.4348
   53BDD    C2034309  14.351   6.507   0.666 -0.8405 -0.2967 -1.2448
   53BDD    C2134310  14.363   6.397   0.559 -0.9129 -1.0582 -0.4183
   53BDD    C2234311  14.278   6.412   0.436  0.1445  0.2757 -0.0732
   53BDD    C2334312  14.336   6.341   0.311  0.6343  0.3945  0.0551
   53BDD    C2434313  14.366   6.427   0.188 -0.4505 -0.1875  1.1680
   53BDD    C2534314  14.498   6.511   0.697 -0.8589 -0.7699  0.3840
   53BDD    C2634315  14.529   6.642   0.779  0.6497  0.7551  0.0564
   54TPM     C134316  14.018   6.940   0.993 -0.1152  0.8491 -1.3561
   54TPM     C234317  13.994   7.074   0.991  0.0037  0.8690 -1.4703
   54TPM     C334318  14.104   7.154   1.038 -0.2398  0.7654 -0.6914
   54TPM     C434319  14.212   7.081   1.076 -0.5443  0.6662  0.0167
   54TPM     S134320  14.183   6.904   1.055 -0.5472  0.6965 -0.2473
   55BDTP    C134321  14.769   7.207   1.349 -0.3530 -0.2207  0.0611
   55BDTP    C234322  14.675   7.268   1.437 -0.2565  0.0700 -0.0347
   55BDTP    C334323  14.538   7.265   1.415 -0.2628  0.2446 -0.0241
   55BDTP    C434324  14.491   7.199   1.300 -0.3690  0.1274  0.0862
   55BDTP    C534325  14.585   7.138   1.212 -0.4653 -0.1631  0.1822
   55BDTP    C634326  14.722   7.141   1.234 -0.4592 -0.3376  0.1715
   55BDTP    C734327  14.354   7.182   1.256 -0.3961  0.2665  0.1185
   55BDTP    C834328  14.340   7.113   1.140 -0.5069  0.0964  0.2324
   55BDTP    S134329  14.500   7.058   1.071 -0.5924 -0.2635  0.3150
   55BDTP    C934330  14.906   7.223   1.393 -0.3259 -0.3594  0.0290
   55BDTP   C1034331  14.919   7.293   1.508 -0.2151 -0.1894 -0.0850
   55BDTP    S234332  14.760   7.347   1.578 -0.1296  0.1705 -0.1677
   56FTM     S134333  14.397   7.368   1.662 -0.2177 -0.5058 -0.0960
   56FTM     C134334  14.304   7.519   1.630 -0.6054 -0.7103  0.0627
   56FTM     C234335  14.300   7.543   1.497 -0.4693 -0.4551  0.1049
   56FTM     C334336  14.368   7.449   1.413 -0.0650 -0.0939  0.0184
   56FTM     C434337  14.426   7.349   1.484  0.1145 -0.0717 -0.0935
   56FTM     F134338  14.235   7.653   1.442 -0.7029 -0.5336  0.2242
   56FTM     C534339  14.275   7.619   1.738 -0.8447 -0.2474  0.0751
   56FTM     C634340  14.300   7.618   1.889  0.9899 -0.3002  0.1386
   56FTM     C734341  14.442   7.663   1.929 -1.0484  1.4289 -0.6125
   56FTM     C834342  14.545   7.706   1.826  0.2580  1.0981  0.3952
   56FTM     C934343  14.678   7.648   1.863 -0.5696 -0.6124  0.6936
   56FTM    C1034344  14.766   7.659   1.744 -1.3554  1.9311  1.2160
   56FTM    C1134345  14.192   7.715   1.946 -0.6295 -0.3961  0.3318
   56FTM    C1234346  14.193   7.759   2.101  1.7247  1.1509  0.3645
   57FTM     S134347  14.783   6.890   1.103 -0.0500 -0.0444 -0.3674
   57FTM     C134348  14.869   6.907   0.945 -0.3740  0.4800 -0.4921
   57FTM     C234349  14.911   7.035   0.929 -0.5717  0.5785 -0.2376
   57FTM     C334350  14.880   7.126   1.036 -0.4855  0.2602  0.0624
   57FTM     C434351  14.812   7.065   1.137 -0.2127 -0.0936  0.0370
   57FTM     F134352  14.980   7.078   0.817 -0.8426  0.9630 -0.2614
   57FTM     C534353  14.907   6.792   0.854  1.0348  0.8946 -1.7220
   57FTM     C634354  15.043   6.713   0.878  0.6488 -0.4388 -0.9102
   57FTM     C734355  15.178   6.784   0.877 -0.1746  1.7869  0.7847
   57FTM     C834356  15.215   6.833   0.734  0.1314  0.6782 -0.4379
   57FTM     C934357  15.308   6.729   0.679 -1.2134  0.0863 -0.2077
   57FTM    C1034358  15.367   6.771   0.540  0.3556 -1.3901  0.4118
   57FTM    C1134359  15.051   6.628   1.019  0.8672 -1.1000 -0.0070
   57FTM    C1234360  15.100   6.484   1.015 -0.1578  0.8823  0.4162
   58TPM     C134361  15.039   7.328   1.587 -0.2863 -0.5028 -1.0173
   58TPM     C234362  15.036   7.395   1.705 -1.0024 -0.7430 -0.8885
   58TPM     C334363  15.167   7.423   1.759 -1.3140 -0.4979 -0.2389
   58TPM     C434364  15.269   7.378   1.681 -0.8354 -0.0710  0.1276
   58TPM     S134365  15.208   7.295   1.533  0.0528  0.0559 -0.3228
   59BDD     C134366  15.602   7.418   1.880 -0.5655  0.1733 -0.0282
   59BDD     C234367  15.597   7.285   1.851 -0.3625  0.1699 -0.0537
   59BDD     C334368  15.484   7.249   1.766 -0.1054  0.0712 -0.3585
   59BDD     C434369  15.405   7.355   1.733 -0.1162  0.0005 -0.5610
   59BDD     S134370  15.466   7.508   1.805 -0.4488  0.0525 -0.3840
   59BDD     C534371  15.695   7.185   1.899 -0.3974  0.2577  0.2013
   59BDD     C634372  15.459   7.110   1.722  0.1416  0.0507 -0.4378
   59BDD     O134373  15.362   7.079   1.649  0.3633 -0.0345 -0.7007
   59BDD     O234374  15.792   7.216   1.972 -0.6191  0.3428  0.4642
   59BDD     C734375  15.557   7.011   1.770  0.1066  0.1384 -0.1828
   59BDD     C834376  15.669   7.047   1.855 -0.1506  0.2372  0.1220
   59BDD     C934377  15.748   6.940   1.888 -0.1397  0.3078  0.3245
   59BDD     S234378  15.687   6.787   1.816  0.1929  0.2557  0.1475
   59BDD    C1034379  15.552   6.877   1.740  0.3097  0.1352 -0.2083
   59BDD    C1134380  15.455   6.779   1.682 -0.5962  0.0295 -0.6634
   59BDD    C1234381  15.307   6.776   1.749  0.2128  0.5081  0.2070
   59BDD    C1334382  15.283   6.749   1.897 -0.1634  0.9073  0.3071
   59BDD    C1434383  15.277   6.860   2.004 -0.7854 -0.1556  1.0994
   59BDD    C1534384  15.346   6.810   2.146 -0.3859 -2.2532  0.6099
   59BDD    C1634385  15.336   6.927   2.265  0.0746  0.4613  1.9392
   59BDD    C1734386  15.199   6.696   1.668  0.6254 -1.0453  0.9172
   59BDD    C1834387  15.207   6.544   1.652 -0.5068  0.2731 -0.3489
   59BDD    C1934388  15.857   6.921   2.000  1.2803 -0.3805 -0.3837
   59BDD    C2034389  16.003   6.876   1.958  1.0061 -0.4451 -0.6457
   59BDD    C2134390  16.050   6.918   1.818  0.7741  0.2940  0.2460
   59BDD    C2234391  16.052   7.066   1.801 -0.1376 -0.2565  0.0135
   59BDD    C2334392  16.177   7.101   1.734  0.0152 -0.4976  0.6641
   59BDD    C2434393  16.216   7.241   1.729  0.5420 -0.1601  0.7224
   59BDD    C2534394  16.112   6.898   2.071 -0.1161 -0.2846 -0.3495
   59BDD    C2634395  16.271   6.918   2.056 -0.3908  0.1198 -0.4306
   60TPM     C134396  15.710   7.514   1.929  0.4377 -0.4935 -0.9242
   60TPM     C234397  15.734   7.506   2.063  0.4815 -1.4250 -0.9716
   60TPM     C334398  15.796   7.624   2.117  0.2013 -1.6595 -0.1079
   60TPM     C434399  15.819   7.722   2.025 -0.0561 -0.9069  0.5979
   60TPM     S134400  15.763   7.672   1.861  0.0360  0.1649  0.2237
    1BDTP    C134401   0.169   0.239   8.797 -0.5087 -0.6645 -0.1202
    1BDTP    C234402   0.053   0.312   8.835 -0.1580 -0.2229  0.1323
    1BDTP    C334403  -0.038   0.265   8.929 -0.0808  0.1691  0.4082
    1BDTP    C434404  -0.013   0.140   8.988 -0.3629  0.1242  0.4363
    1BDTP    C534405   0.104   0.067   8.951 -0.7136 -0.3174  0.1841
    1BDTP    C634406   0.195   0.114   8.857 -0.7905 -0.7093 -0.0920
    1BDTP    C734407  -0.092   0.071   9.088 -0.3478  0.4804  0.6993
    1BDTP    C834408  -0.041  -0.049   9.126 -0.6666  0.3295  0.6566
    1BDTP    S134409   0.114  -0.091   9.042 -1.0302 -0.2851  0.2780
    1BDTP    C934410   0.249   0.308   8.697 -0.5235 -1.0207 -0.3829
    1BDTP   C1034411   0.198   0.428   8.659 -0.2050 -0.8697 -0.3407
    1BDTP    S234412   0.042   0.469   8.743  0.1585 -0.2552  0.0382
    2FTM     S134413  -0.297   0.336   8.833  0.2498  0.5708  0.2085
    2FTM     C134414  -0.418   0.368   8.963  0.4014  0.7608  0.3048
    2FTM     C234415  -0.357   0.366   9.085  0.4230  0.2186  0.2923
    2FTM     C334416  -0.215   0.342   9.084  0.3245 -0.3637  0.2100
    2FTM     C434417  -0.167   0.323   8.958  0.2250 -0.2640  0.1568
    2FTM     F134418  -0.425   0.388   9.204  0.5326  0.2172  0.3557
    2FTM     C534419  -0.557   0.382   8.932  1.3740 -1.7674 -0.2770
    2FTM     C634420  -0.643   0.283   8.861 -0.2074 -0.4356 -0.1895
    2FTM     C734421  -0.765   0.341   8.796  0.7035  0.3878  0.5331
    2FTM     C834422  -0.745   0.426   8.674  0.9598 -0.1238  0.6441
    2FTM     C934423  -0.859   0.509   8.634  1.7369 -0.0012 -0.7040
    2FTM    C1034424  -0.847   0.543   8.482  0.1747 -1.0151 -0.6632
    2FTM    C1134425  -0.627   0.134   8.907 -0.6570  0.3030  0.1168
    2FTM    C1234426  -0.688   0.057   9.024 -0.4432  0.5926  0.4878
    3FTM     S134427   0.423  -0.014   8.943 -0.1986  0.0112 -0.5026
    3FTM     C134428   0.499  -0.138   8.838  0.2895  0.1383 -0.3040
    3FTM     C234429   0.446  -0.132   8.713  0.5159 -0.0365 -0.4110
    3FTM     C334430   0.345  -0.033   8.692  0.3283 -0.2744 -0.6480
    3FTM     C434431   0.320   0.039   8.805 -0.0543 -0.2819 -0.7250
    3FTM     F134432   0.485  -0.216   8.610  0.9066  0.0083 -0.3002
    3FTM     C534433   0.589  -0.240   8.891 -1.1083 -0.5287  1.4498
    3FTM     C634434   0.561  -0.365   8.966 -1.1285 -0.9646  0.3040
    3FTM     C734435   0.581  -0.491   8.883  0.2735  0.8628 -0.2909
    3FTM     C834436   0.595  -0.531   8.739  0.5348 -0.9698 -0.2552
    3FTM     C934437   0.591  -0.673   8.699 -0.3374 -0.4477 -0.4056
    3FTM    C1034438   0.599  -0.689   8.553  1.6399 -0.0225  0.8870
    3FTM    C1134439   0.456  -0.392   9.083 -1.0189 -0.2422  2.1285
    3FTM    C1234440   0.432  -0.287   9.188  0.5268  0.1722 -0.8320
    4TPM     C134441   0.249   0.508   8.549 -0.0880 -0.1161 -0.4397
    4TPM     C234442   0.324   0.456   8.447  0.1628  0.3205 -0.4828
    4TPM     C334443   0.346   0.548   8.339  0.1021  0.6616 -0.2093
    4TPM     C434444   0.288   0.670   8.358 -0.1949  0.4850  0.0423
    4TPM     S134445   0.200   0.678   8.515 -0.4228 -0.1305 -0.0472
    5BDD     C134446   0.280   0.959   8.107 -0.0209  0.0618 -0.0622
    5BDD     C234447   0.407   0.959   8.158  0.0160  0.0084 -0.1528
    5BDD     C334448   0.431   0.853   8.253  0.0750 -0.0719 -0.2565
    5BDD     C434449   0.322   0.773   8.274  0.0823 -0.0786 -0.2438
    5BDD     S134450   0.182   0.825   8.175  0.0158  0.0152 -0.1013
    5BDD     C534451   0.510   1.058   8.120 -0.0017  0.0293 -0.1466
    5BDD     C634452   0.561   0.835   8.321  0.1220 -0.1391 -0.3643
    5BDD     O134453   0.582   0.743   8.404  0.1729 -0.2084 -0.4537
    5BDD     O234454   0.489   1.150   8.038 -0.0526  0.0985 -0.0572
    5BDD     C734455   0.665   0.933   8.284  0.1043 -0.1183 -0.3586
    5BDD     C834456   0.640   1.040   8.188  0.0453 -0.0379 -0.2546
    5BDD     C934457   0.749   1.120   8.168  0.0380 -0.0313 -0.2673
    5BDD     S234458   0.889   1.068   8.267  0.1046 -0.1251 -0.4099
    5BDD    C1034459   0.791   0.934   8.335  0.1412 -0.1717 -0.4487
    5BDD    C1134460   0.862   0.833   8.419 -0.9473  0.8107 -1.1638
    5BDD    C1234461   0.994   0.767   8.378 -0.4820 -0.7194  0.4300
    5BDD    C1334462   1.021   0.727   8.224 -0.3120  0.5807 -0.8295
    5BDD    C1434463   1.132   0.617   8.211 -0.0242 -0.0241 -0.7090
    5BDD    C1534464   1.163   0.500   8.294 -0.2972  0.3331 -1.6415
    5BDD    C1634465   1.051   0.387   8.301  0.4424 -0.3578 -0.8414
    5BDD    C1734466   1.118   0.831   8.429  0.2981 -0.3550 -0.2062
    5BDD    C1834467   1.155   0.738   8.543 -0.0866  0.1923 -0.5151
    5BDD    C1934468   0.764   1.236   8.083 -0.0379 -1.2516 -0.1778
    5BDD    C2034469   0.862   1.244   7.961 -0.1124  0.9390  0.7993
    5BDD    C2134470   0.997   1.178   7.991  0.4247  0.4854 -0.4985
    5BDD    C2234471   1.109   1.162   7.892 -0.5122 -0.6848  0.1803
    5BDD    C2334472   1.075   1.097   7.758 -0.5274 -0.4765 -0.9870
    5BDD    C2434473   1.003   0.963   7.764 -0.8399 -0.7355 -0.6118
    5BDD    C2534474   0.857   1.386   7.920  0.1081 -0.4087  0.2699
    5BDD    C2634475   0.733   1.387   7.831  0.2033  0.2908  0.4779
    6TPM     C134476   0.194   1.025   8.023  0.4675  0.3133 -0.2917
    6TPM     C234477   0.088   1.093   8.075  0.5687  0.4027 -0.2007
    6TPM     C334478  -0.009   1.135   7.976  0.4433  0.3502 -0.1013
    6TPM     C434479   0.024   1.099   7.849  0.2465  0.2208 -0.1163
    6TPM     S134480   0.180   1.009   7.843  0.2040  0.1548 -0.2586
    7BDTP    C134481  -0.310   1.222   7.333 -0.1442 -0.2391  0.0044
    7BDTP    C234482  -0.362   1.318   7.424 -0.0694 -0.0910 -0.1078
    7BDTP    C334483  -0.317   1.330   7.555  0.0153  0.0992 -0.1525
    7BDTP    C434484  -0.215   1.242   7.598  0.0267  0.1459 -0.0838
    7BDTP    C534485  -0.163   1.146   7.506 -0.0479 -0.0022  0.0278
    7BDTP    C634486  -0.208   1.135   7.376 -0.1329 -0.1925  0.0728
    7BDTP    C734487  -0.153   1.235   7.728  0.1079  0.3325 -0.1119
    7BDTP    C834488  -0.057   1.139   7.739  0.0975  0.3317 -0.0274
    7BDTP    S134489  -0.033   1.045   7.585 -0.0162  0.0944  0.0993
    7BDTP    C934490  -0.372   1.230   7.202 -0.2253 -0.4257  0.0323
    7BDTP   C1034491  -0.468   1.325   7.192 -0.2151 -0.4249 -0.0520
    7BDTP    S234492  -0.492   1.419   7.345 -0.1014 -0.1876 -0.1790
    8FTM     S134493  -0.485   1.374   7.781 -0.6981 -0.0335  0.0369
    8FTM     C134494  -0.545   1.541   7.809  0.5318  0.3589  0.5034
    8FTM     C234495  -0.485   1.627   7.723  1.4570  0.2353  1.0074
    8FTM     C334496  -0.389   1.569   7.632  1.2703 -0.1625  1.0600
    8FTM     C434497  -0.377   1.435   7.650  0.1660 -0.3496  0.5810
    8FTM     F134498  -0.512   1.763   7.720  2.5280  0.4750  1.4508
    8FTM     C534499  -0.660   1.578   7.897  0.9084  1.6247 -0.7786
    8FTM     C634500  -0.658   1.591   8.052 -0.6368 -0.2972 -1.3096
    8FTM     C734501  -0.601   1.724   8.111 -0.5982  0.7097  0.1584
    8FTM     C834502  -0.453   1.729   8.086 -1.1495 -1.0661 -1.2992
    8FTM     C934503  -0.405   1.880   8.120 -0.4644  1.9312 -1.5538
    8FTM    C1034504  -0.414   1.990   8.022  0.1509 -0.8135 -1.0152
    8FTM    C1134505  -0.795   1.558   8.123  0.5628 -0.1672  0.1975
    8FTM    C1234506  -0.896   1.463   8.072  0.2145 -0.0986 -0.8621
    9FTM     S134507  -0.227   0.857   7.296  0.0034 -0.6369 -0.1330
    9FTM     C134508  -0.090   0.789   7.201  0.2682  0.2001 -0.3652
    9FTM     C234509  -0.001   0.888   7.171 -0.3891  0.7504 -0.5337
    9FTM     C334510  -0.035   1.019   7.218 -1.1210  0.5593 -0.4934
    9FTM     C434511  -0.152   1.021   7.286 -1.0206 -0.1608 -0.2875
    9FTM     F134512   0.115   0.865   7.098 -0.3676  1.4598 -0.7342
    9FTM     C534513  -0.052   0.644   7.178 -0.8102 -1.6018  0.8448
    9FTM     C634514   0.063   0.564   7.229 -0.4845 -1.0052 -0.9731
    9FTM     C734515   0.044   0.560   7.378 -0.1993 -0.1020 -1.0737
    9FTM     C834516   0.168   0.554   7.473  0.7172  0.0921  0.5334
    9FTM     C934517   0.259   0.682   7.465 -1.9184  0.0286 -0.3114
    9FTM    C1034518   0.414   0.626   7.474  0.6106  0.4860 -1.0412
    9FTM    C1134519   0.084   0.437   7.132 -0.0369 -0.4325  0.5190
    9FTM    C1234520   0.211   0.448   7.039  0.3339 -0.4593 -0.9590
   10TPM     C134521  -0.572   1.288   7.105 -0.2475 -0.2324  0.5086
   10TPM     C234522  -0.700   1.296   7.152 -0.3459 -1.2529  0.4543
   10TPM     C334523  -0.800   1.277   7.050 -0.1442 -1.2121  0.2462
   10TPM     C434524  -0.748   1.255   6.926  0.1081 -0.1604  0.1418
   10TPM     S134525  -0.568   1.256   6.927  0.1105  0.8678  0.2995
   11BDD     C134526  -0.886   0.978   6.694 -0.0241 -0.2908 -0.3157
   11BDD     C234527  -0.994   1.056   6.724 -0.0136 -0.3018 -0.2490
   11BDD     C334528  -0.962   1.166   6.814 -0.0179 -0.4347 -0.0855
   11BDD     C434529  -0.830   1.169   6.852 -0.0319 -0.5230 -0.0297
   11BDD     S134530  -0.737   1.035   6.777 -0.0401 -0.4459 -0.1782
   11BDD     C534531  -1.130   1.034   6.671  0.0002 -0.1906 -0.3333
   11BDD     C634532  -1.063   1.263   6.860 -0.0086 -0.4691  0.0095
   11BDD     O134533  -1.036   1.357   6.938 -0.0122 -0.5836  0.1506
   11BDD     O234534  -1.157   0.940   6.593  0.0038 -0.0761 -0.4745
   11BDD     C734535  -1.199   1.241   6.807  0.0057 -0.3579 -0.0746
   11BDD     C834536  -1.231   1.131   6.717  0.0100 -0.2251 -0.2382
   11BDD     C934537  -1.362   1.128   6.679  0.0236 -0.1368 -0.2939
   11BDD     S234538  -1.456   1.262   6.754  0.0319 -0.2138 -0.1455
   11BDD    C1034539  -1.307   1.319   6.837  0.0162 -0.3690 -0.0080
   11BDD    C1134540  -1.338   1.449   6.921 -0.5736 -0.1068  0.2988
   11BDD    C1234541  -1.398   1.568   6.844  0.8929 -0.1695 -0.9090
   11BDD    C1334542  -1.359   1.585   6.703  0.0361 -0.2631  0.1633
   11BDD    C1434543  -1.409   1.702   6.615  0.2305 -0.2562 -0.6998
   11BDD    C1534544  -1.476   1.660   6.478 -0.1000 -0.1919 -0.1703
   11BDD    C1634545  -1.489   1.776   6.389 -0.5871  0.1687 -0.4983
   11BDD    C1734546  -1.386   1.694   6.935  0.3108 -1.5376  0.8890
   11BDD    C1834547  -1.464   1.689   7.061  0.3821  0.2209  0.8023
   11BDD    C1934548  -1.428   1.040   6.575  0.0805 -0.8447 -0.9443
   11BDD    C2034549  -1.457   0.896   6.617 -1.1755  0.8593 -0.4419
   11BDD    C2134550  -1.488   0.869   6.762  1.5165 -0.2033 -0.0043
   11BDD    C2234551  -1.484   0.718   6.800 -0.8855 -1.3147 -0.5907
   11BDD    C2334552  -1.568   0.692   6.912  0.0461 -0.4110  0.6574
   11BDD    C2434553  -1.579   0.555   6.948  1.1555  0.5413  0.0408
   11BDD    C2534554  -1.530   0.817   6.525 -0.2450  0.8769 -0.8536
   11BDD    C2634555  -1.485   0.802   6.377  0.0681 -0.2028 -0.0086
   12TPM     C134556  -0.845   0.873   6.613 -0.3684 -0.0148 -0.0199
   12TPM     C234557  -0.887   0.873   6.483 -0.2217  0.3489 -0.0676
   12TPM     C334558  -0.807   0.790   6.396 -0.1419  0.5678 -0.2056
   12TPM     C434559  -0.705   0.726   6.460 -0.2279  0.3709 -0.2632
   12TPM     S134560  -0.701   0.766   6.636 -0.4176 -0.1099 -0.1465
   13BDTP    C134561  -0.357   0.338   6.131 -0.2604  0.0056 -0.2955
   13BDTP    C234562  -0.382   0.264   6.250  0.0114  0.0093 -0.2359
   13BDTP    C334563  -0.452   0.317   6.358  0.2422  0.0069 -0.0833
   13BDTP    C434564  -0.500   0.448   6.347  0.2036  0.0005  0.0153
   13BDTP    C534565  -0.476   0.522   6.228 -0.0684 -0.0033 -0.0442
   13BDTP    C634566  -0.406   0.470   6.120 -0.2991 -0.0009 -0.1968
   13BDTP    C734567  -0.575   0.524   6.446  0.4106 -0.0030  0.1773
   13BDTP    C834568  -0.608   0.649   6.407  0.3083 -0.0092  0.2415
   13BDTP    S134569  -0.548   0.690   6.240 -0.0641 -0.0114  0.1059
   13BDTP    C934570  -0.282   0.263   6.032 -0.4673  0.0091 -0.4574
   13BDTP   C1034571  -0.250   0.137   6.071 -0.3655  0.0153 -0.5218
   13BDTP    S234572  -0.309   0.097   6.238  0.0072  0.0175 -0.3861
   14FTM     S134573  -0.593   0.178   6.563 -0.4002  0.5683 -0.2642
   14FTM     C134574  -0.491   0.125   6.702 -0.5224 -0.0346 -0.3981
   14FTM     C234575  -0.361   0.158   6.680 -0.3002 -1.0246 -0.6816
   14FTM     C334576  -0.334   0.225   6.556 -0.0274 -1.3665 -0.8091
   14FTM     C434577  -0.446   0.244   6.481 -0.0415 -0.6136 -0.6166
   14FTM     F134578  -0.260   0.130   6.770 -0.3297 -1.6800 -0.8428
   14FTM     C534579  -0.559   0.062   6.811 -0.3825 -0.1872 -0.0599
   14FTM     C634580  -0.537  -0.073   6.884  1.0028 -0.3001 -0.2304
   14FTM     C734581  -0.404  -0.074   6.953 -0.1292  0.3927 -0.3548
   14FTM     C834582  -0.400  -0.048   7.100 -0.3768 -0.7429 -0.6604
   14FTM     C934583  -0.263   0.008   7.125 -0.2454 -1.4467  0.2159
   14FTM    C1034584  -0.244   0.098   7.253  0.1929  1.0737 -1.7641
   14FTM    C1134585  -0.599  -0.208   6.827 -1.3204  0.2109 -0.4560
   14FTM    C1234586  -0.736  -0.184   6.736 -0.9203  0.2452  0.1134
   15FTM     S134587  -0.330   0.733   5.994  0.3968 -0.0803  0.0021
   15FTM     C134588  -0.360   0.735   5.816  0.2772 -0.2056  0.0214
   15FTM     C234589  -0.402   0.612   5.775  0.5810 -0.3303  0.0793
   15FTM     C334590  -0.413   0.512   5.877  0.9177 -0.3359  0.1117
   15FTM     C434591  -0.378   0.559   6.000  0.8695 -0.2114  0.0772
   15FTM     F134592  -0.433   0.583   5.643  0.5729 -0.4469  0.1067
   15FTM     C534593  -0.330   0.856   5.726  1.5369  0.6899  0.3103
   15FTM     C634594  -0.180   0.860   5.685  0.1883  0.9968 -1.3923
   15FTM     C734595  -0.150   0.932   5.558  0.9567  0.0498 -0.3133
   15FTM     C834596  -0.153   0.876   5.420  2.0885 -0.2301  0.8719
   15FTM     C934597  -0.078   0.942   5.309  0.2539  0.1328  0.4538
   15FTM    C1034598  -0.129   0.893   5.170  1.0091 -0.1024  1.1719
   15FTM    C1134599  -0.092   0.868   5.802 -1.4313  0.0994  0.0753
   15FTM    C1234600  -0.055   1.008   5.868  0.1301  0.8797  0.3870
   16TPM     C134601  -0.160   0.038   6.021  0.1847 -0.6775  0.7819
   16TPM     C234602  -0.202  -0.089   5.995  0.8307 -1.0245  1.3673
   16TPM     C334603  -0.121  -0.159   5.898  0.6642 -0.7279  1.0101
   16TPM     C434604  -0.017  -0.085   5.850 -0.1084 -0.1548  0.1525
   16TPM     S134605  -0.014   0.080   5.924 -0.6905  0.0565 -0.2738
   17BDD     C134606   0.144  -0.287   5.548  0.3037 -0.0709  0.4245
   17BDD     C234607   0.208  -0.166   5.546  0.1751 -0.0043  0.2931
   17BDD     C334608   0.160  -0.074   5.647  0.1297  0.0281  0.2422
   17BDD     C434609   0.060  -0.126   5.725  0.2243 -0.0135  0.3356
   17BDD     S134610   0.019  -0.293   5.677  0.3767 -0.0973  0.4935
   17BDD     C534611   0.315  -0.131   5.450  0.0893  0.0312  0.2093
   17BDD     C634612   0.215   0.063   5.663 -0.0059  0.0994  0.1028
   17BDD     O134613   0.174   0.142   5.751 -0.0450  0.1276  0.0588
   17BDD     O234614   0.356  -0.210   5.363  0.1284  0.0029  0.2532
   17BDD     C734615   0.322   0.098   5.568 -0.0917  0.1354  0.0191
   17BDD     C834616   0.370   0.006   5.466 -0.0463  0.1028  0.0699
   17BDD     C934617   0.469   0.058   5.388 -0.1409  0.1442 -0.0236
   17BDD     S234618   0.510   0.225   5.437 -0.2933  0.2276 -0.1815
   17BDD    C1034619   0.386   0.219   5.566 -0.2202  0.2012 -0.1125
   17BDD    C1134620   0.356   0.334   5.665 -0.5537  0.8158  0.3014
   17BDD    C1234621   0.386   0.488   5.612 -0.3974  1.3492 -0.0731
   17BDD    C1334622   0.338   0.575   5.722  0.8466  1.2192  0.6252
   17BDD    C1434623   0.410   0.602   5.856 -0.7376  0.2472  0.6654
   17BDD    C1534624   0.301   0.687   5.931 -0.8061  0.3460  0.7655
   17BDD    C1634625   0.197   0.620   6.020  0.0428 -0.4737 -0.5867
   17BDD    C1734626   0.309   0.505   5.477  0.6093  0.4388 -0.0314
   17BDD    C1834627   0.172   0.465   5.448 -0.4648 -0.0834  0.4072
   17BDD    C1934628   0.577  -0.007   5.311 -0.0531 -0.1173 -1.3114
   17BDD    C2034629   0.554   0.013   5.156  0.2465 -0.8653 -0.1941
   17BDD    C2134630   0.643  -0.081   5.089 -0.0878  0.7713  1.0154
   17BDD    C2234631   0.641  -0.239   5.112 -0.5215  1.6870  0.7908
   17BDD    C2334632   0.517  -0.322   5.084 -1.1305 -0.7400 -0.1141
   17BDD    C2434633   0.440  -0.283   4.957  0.1932  0.1643 -0.6445
   17BDD    C2534634   0.552   0.152   5.084 -0.3291  0.4663  1.6856
   17BDD    C2634635   0.684   0.236   5.047 -0.3950 -0.4687  0.7127
   18TPM     C134636   0.131  -0.414   5.459 -0.4984  0.3607 -0.0030
   18TPM     C234637   0.157  -0.416   5.326 -0.5956  1.0254 -0.0340
   18TPM     C334638   0.134  -0.543   5.263 -0.3098  1.2367 -0.5856
   18TPM     C434639   0.090  -0.639   5.349  0.0054  0.7335 -0.9752
   18TPM     S134640   0.075  -0.576   5.517 -0.0348 -0.0525 -0.6732
   19BDTP    C134641  -0.149  -1.185   5.131  0.0377 -0.1349 -0.0122
   19BDTP    C234642  -0.236  -1.153   5.239  0.0677 -0.1836  0.0262
   19BDTP    C334643  -0.220  -1.038   5.316 -0.0277 -0.1209 -0.0480
   19BDTP    C434644  -0.115  -0.951   5.284 -0.1590 -0.0043 -0.1657
   19BDTP    C534645  -0.028  -0.983   5.175 -0.1891  0.0443 -0.2042
   19BDTP    C634646  -0.044  -1.098   5.099 -0.0937 -0.0180 -0.1299
   19BDTP    C734647  -0.079  -0.826   5.349 -0.2744  0.0775 -0.2586
   19BDTP    C834648   0.028  -0.764   5.295 -0.3889  0.1843 -0.3636
   19BDTP    S134649   0.100  -0.855   5.154 -0.3655  0.1957 -0.3597
   19BDTP    C934650  -0.185  -1.310   5.066  0.1533 -0.2170  0.0807
   19BDTP   C1034651  -0.292  -1.372   5.120  0.2673 -0.3235  0.1858
   19BDTP    S234652  -0.364  -1.281   5.261  0.2440 -0.3354  0.1817
   20FTM     S134653  -0.228  -1.051   5.603  0.1860 -0.0463 -0.6116
   20FTM     C134654  -0.382  -0.989   5.675  0.5167  0.2623 -0.1563
   20FTM     C234655  -0.469  -0.957   5.576  0.4082  0.7567  0.0933
   20FTM     C334656  -0.423  -0.978   5.441  0.0694  0.9215 -0.0505
   20FTM     C434657  -0.297  -1.028   5.438 -0.0867  0.5411 -0.4227
   20FTM     F134658  -0.596  -0.906   5.600  0.6092  1.0898  0.4671
   20FTM     C534659  -0.391  -0.956   5.817 -0.6056 -0.4990 -0.1142
   20FTM     C634660  -0.431  -1.053   5.935 -0.7138 -0.2521 -0.6555
   20FTM     C734661  -0.368  -1.187   5.905  0.0268  0.1261  0.0224
   20FTM     C834662  -0.498  -1.288   5.936  0.1338 -0.4782  0.2958
   20FTM     C934663  -0.483  -1.383   6.069 -0.6614  1.3431 -0.3048
   20FTM    C1034664  -0.524  -1.356   6.205 -0.2963  0.0287 -0.6340
   20FTM    C1134665  -0.430  -1.011   6.085 -0.1003  0.1297  1.0278
   20FTM    C1234666  -0.509  -0.890   6.112 -0.3429 -0.6880  0.0498
   21FTM     S134667   0.109  -1.310   4.961  0.2048 -0.0077  0.0810
   21FTM     C134668   0.208  -1.252   4.822  0.2534 -0.3728 -0.0419
   21FTM     C234669   0.207  -1.116   4.819  0.4008 -0.3760 -0.2947
   21FTM     C334670   0.130  -1.051   4.921  0.4829 -0.1018 -0.4054
   21FTM     C434671   0.071  -1.140   5.006  0.3956  0.1187 -0.2319
   21FTM     F134672   0.275  -1.042   4.723  0.4701 -0.6278 -0.4406
   21FTM     C534673   0.297  -1.367   4.766 -0.1079  0.2658 -1.2549
   21FTM     C634674   0.441  -1.396   4.815  0.2644 -0.4348  1.2494
   21FTM     C734675   0.456  -1.422   4.971 -0.1688  0.0418  1.6015
   21FTM     C834676   0.369  -1.535   5.038 -0.6797 -0.0710  0.4676
   21FTM     C934677   0.380  -1.517   5.188 -0.1045  0.1076 -0.9628
   21FTM    C1034678   0.326  -1.627   5.274 -0.4887 -0.6388 -0.5477
   21FTM    C1134679   0.497  -1.506   4.736 -1.2765 -1.0015 -0.3616
   21FTM    C1234680   0.561  -1.456   4.601 -1.3061 -0.3760  0.3564
   22TPM     C134681  -0.354  -1.480   5.052  0.4112  0.1467 -0.0227
   22TPM     C234682  -0.445  -1.570   5.099  0.0966  0.3512 -0.2345
   22TPM     C334683  -0.473  -1.677   5.007 -0.2608  0.6497 -0.4768
   22TPM     C434684  -0.404  -1.668   4.890 -0.2180  0.6735 -0.4497
   22TPM     S134685  -0.296  -1.523   4.887  0.2804  0.3174 -0.1137
   23BDD     C134686  -0.355  -1.973   4.648 -0.4069  0.1429 -0.0078
   23BDD     C234687  -0.422  -1.875   4.580 -0.3872  0.1619 -0.0002
   23BDD     C334688  -0.453  -1.759   4.661 -0.5257  0.0846  0.0579
   23BDD     C434689  -0.409  -1.770   4.790 -0.6491  0.0082  0.0941
   23BDD     S134690  -0.326  -1.926   4.819 -0.6006  0.0277  0.0578
   23BDD     C534691  -0.461  -1.885   4.438 -0.2401  0.2518 -0.0465
   23BDD     C634692  -0.526  -1.642   4.608 -0.5305  0.0896  0.0756
   23BDD     O134693  -0.552  -1.541   4.679 -0.6499  0.0229  0.1258
   23BDD     O234694  -0.434  -1.985   4.367 -0.1209  0.3183 -0.0968
   23BDD     C734695  -0.564  -1.651   4.466 -0.3834  0.1793  0.0294
   23BDD     C834696  -0.533  -1.768   4.385 -0.2451  0.2568 -0.0288
   23BDD     C934697  -0.577  -1.757   4.256 -0.1221  0.3335 -0.0652
   23BDD     S234698  -0.661  -1.601   4.227 -0.1705  0.3142 -0.0288
   23BDD    C1034699  -0.631  -1.554   4.398 -0.3641  0.1986  0.0366
   23BDD    C1134700  -0.682  -1.405   4.422  0.2650  1.3680  0.4426
   23BDD    C1234701  -0.597  -1.269   4.400 -0.4897  0.1655  0.5488
   23BDD    C1334702  -0.627  -1.134   4.470  1.1115  1.3772  0.4962
   23BDD    C1434703  -0.608  -1.116   4.616 -0.6650  0.9563 -0.2867
   23BDD    C1534704  -0.678  -1.215   4.697 -0.8401 -0.3513 -0.6705
   23BDD    C1634705  -0.651  -1.202   4.848 -0.4374 -0.4842 -0.0831
   23BDD    C1734706  -0.447  -1.296   4.381 -0.2889  0.2568 -0.3255
   23BDD    C1834707  -0.345  -1.197   4.345  1.0750  0.5780  0.7107
   23BDD    C1934708  -0.554  -1.841   4.128 -0.1617  0.1605  0.8064
   23BDD    C2034709  -0.674  -1.922   4.095  1.3233 -0.2622  1.0032
   23BDD    C2134710  -0.727  -2.031   4.194  0.7331 -0.9435 -0.9474
   23BDD    C2234711  -0.693  -2.168   4.162 -0.3129 -0.1138  0.8259
   23BDD    C2334712  -0.749  -2.248   4.278  0.5121 -0.3860 -0.3719
   23BDD    C2434713  -0.897  -2.241   4.334  0.5674 -0.0680  0.2046
   23BDD    C2534714  -0.710  -1.930   3.949 -0.9462 -1.2449  0.4319
   23BDD    C2634715  -0.849  -1.863   3.927  0.7769  0.1737  1.3863
   24TPM     C134716  -0.298  -2.112   4.605  0.4203 -0.2284 -1.3082
   24TPM     C234717  -0.386  -2.202   4.553  0.7930 -0.4575 -1.5569
   24TPM     C334718  -0.329  -2.332   4.528  0.9892 -0.5782 -0.5728
   24TPM     C434719  -0.197  -2.341   4.561  0.7662 -0.4412  0.4258
   24TPM     S134720  -0.134  -2.185   4.627  0.2872 -0.1465  0.1996
   25BDTP    C134721   0.150  -2.860   4.593  0.0782 -0.1748 -0.0370
   25BDTP    C234722   0.233  -2.762   4.654  0.1202 -0.2105 -0.0364
   25BDTP    C334723   0.196  -2.629   4.666  0.1844 -0.1915 -0.0505
   25BDTP    C434724   0.071  -2.590   4.615  0.2085 -0.1338 -0.0660
   25BDTP    C534725  -0.012  -2.688   4.553  0.1664 -0.0978 -0.0668
   25BDTP    C634726   0.025  -2.821   4.541  0.1022 -0.1168 -0.0526
   25BDTP    C734727   0.011  -2.458   4.616  0.2732 -0.1042 -0.0823
   25BDTP    C834728  -0.112  -2.452   4.558  0.2816 -0.0482 -0.0951
   25BDTP    S134729  -0.169  -2.613   4.495  0.2089 -0.0255 -0.0882
   25BDTP    C934730   0.210  -2.992   4.592  0.0135 -0.2046 -0.0207
   25BDTP   C1034731   0.332  -2.997   4.649  0.0050 -0.2601 -0.0080
   25BDTP    S234732   0.389  -2.837   4.712  0.0778 -0.2830 -0.0149
   26FTM     S134733   0.262  -2.420   4.862  0.8520  0.0263  0.6845
   26FTM     C134734   0.416  -2.333   4.831  0.3079  0.7225 -0.1642
   26FTM     C234735   0.477  -2.383   4.721 -0.1338  1.1005 -0.5895
   26FTM     C334736   0.409  -2.491   4.654 -0.0774  0.8769 -0.2887
   26FTM     C434737   0.292  -2.524   4.717  0.4239  0.3094  0.3891
   26FTM     F134738   0.598  -2.335   4.673 -0.6154  1.6708 -1.2764
   26FTM     C534739   0.452  -2.217   4.921  0.4912 -1.3964 -0.6068
   26FTM     C634740   0.478  -2.252   5.064 -0.9449  0.1770 -1.0057
   26FTM     C734741   0.470  -2.123   5.169 -0.8489 -0.4371  0.5062
   26FTM     C834742   0.356  -2.026   5.151  0.7331  0.8550 -0.3785
   26FTM     C934743   0.206  -2.058   5.169  0.6948 -0.9678 -1.8328
   26FTM    C1034744   0.122  -2.067   5.042  0.9393  0.3721 -0.0738
   26FTM    C1134745   0.589  -2.347   5.110  1.4867 -0.5123 -0.4304
   26FTM    C1234746   0.726  -2.295   5.091 -0.1887  0.0787  1.0903
   27FTM     S134747  -0.077  -2.941   4.304 -0.2203 -0.0312  0.1882
   27FTM     C134748  -0.184  -3.083   4.333  0.4150 -0.5561  0.0061
   27FTM     C234749  -0.201  -3.101   4.467  0.6518 -0.9291 -0.0116
   27FTM     C334750  -0.134  -3.008   4.552  0.3607 -0.8318  0.1125
   27FTM     C434751  -0.063  -2.915   4.482 -0.1144 -0.3689  0.2289
   27FTM     F134752  -0.279  -3.203   4.519  1.1463 -1.3812 -0.1410
   27FTM     C534753  -0.223  -3.162   4.208 -0.6455 -0.5225 -0.0719
   27FTM     C634754  -0.156  -3.314   4.164  0.9235  0.4938  0.0917
   27FTM     C734755  -0.208  -3.427   4.250 -1.6406 -0.7865  0.1009
   27FTM     C834756  -0.149  -3.435   4.384 -0.6005  1.2541 -1.4438
   27FTM     C934757  -0.075  -3.568   4.432 -0.4754 -0.0560 -1.6683
   27FTM    C1034758   0.043  -3.567   4.545  0.2254 -0.6835 -0.0223
   27FTM    C1134759  -0.188  -3.349   4.024  0.5843 -1.1679 -0.1839
   27FTM    C1234760  -0.102  -3.310   3.907 -0.3590  1.9815 -0.5240
   28TPM     C134761   0.418  -3.111   4.650  0.0321  0.8264 -0.2262
   28TPM     C234762   0.471  -3.179   4.756  0.7196  1.9708  0.2111
   28TPM     C334763   0.566  -3.281   4.718  1.0873  2.0955  0.7718
   28TPM     C434764   0.585  -3.290   4.583  0.6801  1.0463  0.7620
   28TPM     S134765   0.485  -3.170   4.494 -0.2062 -0.1901  0.0380
   29BDD     C134766   0.875  -3.554   4.515  0.2674  0.6005  0.2127
   29BDD     C234767   0.880  -3.473   4.405  0.2270  0.4294  0.0827
   29BDD     C334768   0.781  -3.367   4.408 -0.0358  0.1965 -0.2382
   29BDD     C434769   0.702  -3.369   4.519 -0.1921  0.1927 -0.3483
   29BDD     S134770   0.746  -3.504   4.629 -0.0209  0.4814 -0.0577
   29BDD     C534771   0.976  -3.489   4.294  0.4286  0.4742  0.2489
   29BDD     C634772   0.768  -3.267   4.299 -0.1224 -0.0148 -0.4240
   29BDD     O134773   0.683  -3.176   4.302 -0.3491 -0.2160 -0.7010
   29BDD     O234774   1.061  -3.581   4.292  0.6553  0.6754  0.5257
   29BDD     C734775   0.864  -3.284   4.188  0.0792  0.0300 -0.2581
   29BDD     C834776   0.963  -3.390   4.186  0.3420  0.2632  0.0631
   29BDD     C934777   1.042  -3.387   4.074  0.4982  0.2666  0.1730
   29BDD     S234778   0.998  -3.252   3.965  0.3270 -0.0221 -0.1176
   29BDD    C1034779   0.869  -3.202   4.079  0.0388 -0.1411 -0.3881
   29BDD    C1134780   0.804  -3.061   4.068 -1.8036  0.5233  1.0660
   29BDD    C1234781   0.696  -3.031   3.960  0.8485 -0.4112 -0.5186
   29BDD    C1334782   0.587  -3.144   3.944  1.8518 -0.0451 -1.9232
   29BDD    C1434783   0.437  -3.137   3.988 -0.5674  0.4617  0.8570
   29BDD    C1534784   0.414  -3.277   4.041  1.0561 -0.3631  0.6102
   29BDD    C1634785   0.262  -3.311   4.065 -0.5304  0.1494 -0.2406
   29BDD    C1734786   0.722  -2.905   3.860  0.7851  1.2619  1.0544
   29BDD    C1834787   0.807  -2.794   3.903  1.8839 -0.5413  0.5821
   29BDD    C1934788   1.152  -3.472   4.029 -0.5367 -1.1549 -0.1717
   29BDD    C2034789   1.125  -3.574   3.919 -0.1182 -0.7731 -1.4687
   29BDD    C2134790   1.269  -3.617   3.880 -0.0405 -0.1364 -0.1365
   29BDD    C2234791   1.291  -3.701   3.755 -0.1579  0.2700  0.7815
   29BDD    C2334792   1.280  -3.596   3.639  0.3936  0.5346  0.7028
   29BDD    C2434793   1.398  -3.491   3.614 -0.3691 -0.5905  0.8038
   29BDD    C2534794   1.025  -3.697   3.928  0.8900  0.0900  0.2099
   29BDD    C2634795   0.890  -3.693   4.014 -1.8517  0.2019 -0.3885
   30TPM     C134796   0.939  -3.676   4.564 -0.7145  0.1623  0.8499
   30TPM     C234797   1.062  -3.676   4.622 -1.1316  0.4934  1.7642
   30TPM     C334798   1.098  -3.801   4.684 -0.9598  0.3394  1.3618
   30TPM     C434799   1.001  -3.897   4.673 -0.4117 -0.1092  0.1412
   30TPM     S134800   0.858  -3.836   4.583 -0.0673 -0.3736 -0.6009
   31BDTP    C134801   1.015  -4.489   4.881 -0.1675  0.2837  0.4669
   31BDTP    C234802   0.954  -4.501   4.753 -0.1632  0.2148  0.4714
   31BDTP    C334803   0.934  -4.392   4.669 -0.0079  0.1444  0.3417
   31BDTP    C434804   0.976  -4.265   4.713  0.1509  0.1413  0.2010
   31BDTP    C534805   1.037  -4.253   4.841  0.1467  0.2100  0.1965
   31BDTP    C634806   1.057  -4.362   4.925 -0.0087  0.2805  0.3261
   31BDTP    C734807   0.965  -4.139   4.643  0.3277  0.0750  0.0519
   31BDTP    C834808   1.015  -4.033   4.712  0.4548  0.0901 -0.0631
   31BDTP    S134809   1.082  -4.080   4.875  0.3684  0.1912  0.0018
   31BDTP    C934810   1.025  -4.615   4.950 -0.3442  0.3502  0.6162
   31BDTP   C1034811   0.976  -4.721   4.881 -0.4713  0.3346  0.7308
   31BDTP    S234812   0.908  -4.674   4.719 -0.3849  0.2338  0.6660
   32FTM     S134813   0.777  -4.300   4.435  0.0349  0.0014 -0.2074
   32FTM     C134814   0.858  -4.358   4.285  0.6972  0.3696 -0.0025
   32FTM     C234815   0.955  -4.449   4.317  0.8137  0.5721  0.2248
   32FTM     C334816   0.972  -4.477   4.456  0.4051  0.4560  0.2527
   32FTM     C434817   0.885  -4.406   4.534 -0.0389  0.1549  0.0400
   32FTM     F134818   1.034  -4.511   4.221  1.2974  0.8744  0.4213
   32FTM     C534819   0.856  -4.301   4.151  0.5208 -0.5303  0.9657
   32FTM     C634820   0.887  -4.154   4.125 -0.3887 -2.4833 -0.4798
   32FTM     C734821   0.800  -4.037   4.124  0.1766 -1.0643 -1.0128
   32FTM     C834822   0.644  -4.034   4.167 -0.4977  0.7150  1.6027
   32FTM     C934823   0.571  -3.900   4.161 -0.8010  1.7063  0.0062
   32FTM    C1034824   0.586  -3.784   4.266  0.5560  0.1654  0.1723
   32FTM    C1134825   0.999  -4.120   4.003 -0.2503  0.1198 -1.0345
   32FTM    C1234826   0.955  -4.156   3.865 -1.6232  0.4410  0.0842
   33FTM     S134827   1.045  -4.381   5.199  0.4120 -0.5204 -0.1755
   33FTM     C134828   1.198  -4.352   5.291  0.3680  0.3161 -0.3499
   33FTM     C234829   1.294  -4.306   5.207 -0.0738  1.2021 -0.3963
   33FTM     C334830   1.257  -4.291   5.070 -0.3971  1.2827 -0.3015
   33FTM     C434831   1.127  -4.326   5.047 -0.1964  0.4303 -0.1782
   33FTM     F134832   1.422  -4.275   5.250 -0.2116  1.9928 -0.5274
   33FTM     C534833   1.215  -4.366   5.436  0.5931 -0.2146  0.6468
   33FTM     C634834   1.081  -4.373   5.518 -1.1220  0.6038 -0.2893
   33FTM     C734835   0.959  -4.283   5.513  0.8117  0.0466 -0.8401
   33FTM     C834836   0.988  -4.137   5.478  0.0439 -1.3634 -1.0365
   33FTM     C934837   0.892  -4.029   5.434 -0.1396 -0.9318 -0.4862
   33FTM    C1034838   0.801  -4.050   5.315  0.3506 -0.8115 -0.1649
   33FTM    C1134839   1.014  -4.528   5.550  1.0331 -0.7691  1.2653
   33FTM    C1234840   1.087  -4.605   5.656 -0.3374  0.2046  0.2643
   34TPM     C134841   0.971  -4.865   4.914 -0.8303  0.5287  0.9148
   34TPM     C234842   0.907  -4.967   4.851 -1.4622  0.7737  1.1436
   34TPM     C334843   0.938  -5.097   4.905 -1.3981  0.6131  0.7257
   34TPM     C434844   1.026  -5.094   5.009 -0.7174  0.2455  0.1779
   34TPM     S134845   1.077  -4.925   5.048 -0.0996  0.0724  0.1475
   35BDD     C134846   1.058  -5.434   5.211  0.1352  0.5787  0.4346
   35BDD     C234847   1.166  -5.430   5.127  0.0187  0.3467  0.2699
   35BDD     C334848   1.174  -5.308   5.049 -0.0978  0.1242 -0.0939
   35BDD     C434849   1.072  -5.221   5.074 -0.0683  0.1896 -0.2018
   35BDD     S134850   0.959  -5.285   5.197  0.1072  0.5345  0.1452
   35BDD     C534851   1.266  -5.538   5.117  0.0100  0.3209  0.4413
   35BDD     C634852   1.283  -5.282   4.952 -0.2339 -0.1454 -0.3216
   35BDD     O134853   1.290  -5.177   4.885 -0.3343 -0.3372 -0.6355
   35BDD     O234854   1.259  -5.643   5.184  0.1104  0.5127  0.7551
   35BDD     C734855   1.383  -5.391   4.942 -0.2425 -0.1711 -0.1502
   35BDD     C834856   1.375  -5.513   5.020 -0.1261  0.0513  0.2137
   35BDD     C934857   1.477  -5.600   4.995 -0.1555 -0.0143  0.3215
   35BDD     S234858   1.591  -5.535   4.872 -0.3310 -0.3590 -0.0254
   35BDD    C1034859   1.491  -5.387   4.858 -0.3590 -0.4032 -0.3147
   35BDD    C1134860   1.551  -5.301   4.747 -0.5739 -1.4414  0.1489
   35BDD    C1234861   1.548  -5.330   4.605  0.0676  0.2937  0.0601
   35BDD    C1334862   1.644  -5.233   4.526 -0.4621 -0.3840 -0.0382
   35BDD    C1434863   1.711  -5.311   4.403  0.1058 -0.9873  1.5895
   35BDD    C1534864   1.758  -5.228   4.280  0.0720 -0.2403 -0.8799
   35BDD    C1634865   1.904  -5.223   4.303 -2.1444 -1.1320 -1.3028
   35BDD    C1734866   1.408  -5.378   4.554 -0.5031  0.9109  0.6826
   35BDD    C1834867   1.295  -5.281   4.530 -1.0939  0.6892  0.2324
   35BDD    C1934868   1.520  -5.739   5.047 -0.1992 -0.0342  0.3615
   35BDD    C2034869   1.429  -5.859   4.987  0.1437  0.8395  1.0345
   35BDD    C2134870   1.360  -5.836   4.854  0.0572  0.1717  0.9290
   35BDD    C2234871   1.422  -5.857   4.706  0.3754  0.8863 -0.2719
   35BDD    C2334872   1.568  -5.840   4.655 -2.0484  0.0394 -0.3432
   35BDD    C2434873   1.575  -5.978   4.592  0.0462  0.0934  1.1886
   35BDD    C2534874   1.465  -6.010   5.021 -1.0770 -1.8914 -0.1285
   35BDD    C2634875   1.366  -6.094   5.079 -0.1886 -1.1009  0.1084
   36TPM     C134876   0.994  -5.519   5.312 -0.4568  0.3686 -0.6769
   36TPM     C234877   0.915  -5.474   5.413 -0.5848  0.3746 -0.7782
   36TPM     C334878   0.851  -5.579   5.488 -0.2231  0.3527 -0.4917
   36TPM     C434879   0.881  -5.704   5.443  0.1807  0.3299 -0.1721
   36TPM     S134880   0.993  -5.699   5.302  0.1351  0.3347 -0.2082
   37BDTP    C134881   0.676  -6.203   5.766  0.3626 -0.0077  0.1833
   37BDTP    C234882   0.665  -6.248   5.631  0.0580 -0.0894  0.2322
   37BDTP    C334883   0.701  -6.168   5.523 -0.2188 -0.1416  0.1014
   37BDTP    C434884   0.748  -6.038   5.549 -0.1946 -0.1121 -0.0865
   37BDTP    C534885   0.759  -5.994   5.684  0.1101 -0.0303 -0.1352
   37BDTP    C634886   0.724  -6.074   5.793  0.3869  0.0219 -0.0044
   37BDTP    C734887   0.791  -5.938   5.454 -0.4476 -0.1548 -0.2464
   37BDTP    C834888   0.832  -5.822   5.510 -0.3489 -0.1097 -0.4106
   37BDTP    S134889   0.823  -5.823   5.692  0.0785 -0.0068 -0.3860
   37BDTP    C934890   0.633  -6.304   5.862  0.6157  0.0352  0.3433
   37BDTP   C1034891   0.592  -6.420   5.805  0.5169 -0.0099  0.5075
   37BDTP    S234892   0.601  -6.418   5.624  0.0896 -0.1129  0.4828
   38FTM     S134893   0.562  -6.331   5.334 -0.4343  0.1636  0.0985
   38FTM     C134894   0.642  -6.359   5.175 -0.3868  0.2830  0.1015
   38FTM     C234895   0.759  -6.290   5.169 -0.4171  0.3399  0.1628
   38FTM     C334896   0.793  -6.213   5.285 -0.4776  0.2949  0.2103
   38FTM     C434897   0.699  -6.224   5.383 -0.4943  0.2008  0.1843
   38FTM     F134898   0.842  -6.292   5.058 -0.3917  0.4357  0.1798
   38FTM     C534899   0.583  -6.462   5.075 -1.2256 -0.1153 -0.3681
   38FTM     C634900   0.449  -6.536   5.103 -0.9243  0.0652 -0.7914
   38FTM     C734901   0.326  -6.454   5.098  0.7608 -0.1389  0.2316
   38FTM     C834902   0.270  -6.400   4.970 -0.7329  0.3077 -0.0228
   38FTM     C934903   0.272  -6.467   4.836  0.4848  0.7858 -0.3283
   38FTM    C1034904   0.400  -6.492   4.757  0.2119  1.8276  0.6955
   38FTM    C1134905   0.463  -6.609   5.242 -0.6457  0.8921  0.4594
   38FTM    C1234906   0.400  -6.750   5.232  0.9478 -1.5688  0.9211
   39FTM     S134907   0.860  -6.142   6.035  0.6224 -0.3348  0.2170
   39FTM     C134908   0.882  -6.014   6.161  0.4492 -0.5337  0.4521
   39FTM     C234909   0.827  -5.898   6.119 -0.3473 -0.7110  0.9714
   39FTM     C334910   0.765  -5.900   5.989 -0.8590 -0.7029  1.2122
   39FTM     C434911   0.773  -6.023   5.931 -0.4408 -0.5135  0.8660
   39FTM     F134912   0.829  -5.782   6.195 -0.6602 -0.8906  1.2594
   39FTM     C534913   0.974  -6.054   6.259  0.0919  0.2216 -0.4815
   39FTM     C634914   1.123  -6.076   6.249 -0.6876 -0.7628 -0.8587
   39FTM     C734915   1.189  -6.173   6.141 -0.2463 -1.7160 -0.2349
   39FTM     C834916   1.164  -6.313   6.117 -0.3329  0.2760  0.2366
   39FTM     C934917   1.159  -6.378   6.250 -0.2772  0.0831 -1.2135
   39FTM    C1034918   1.255  -6.497   6.247  0.7124  0.6906  0.6673
   39FTM    C1134919   1.201  -6.064   6.385 -0.4754 -1.0703 -0.2869
   39FTM    C1234920   1.346  -6.034   6.388 -0.1945  0.8233  0.1096
   40TPM     C134921   0.554  -6.537   5.890 -0.7484  0.4493 -0.2612
   40TPM     C234922   0.551  -6.669   5.856 -0.8720  0.4619 -0.3002
   40TPM     C334923   0.542  -6.758   5.969 -0.0718  0.4046 -0.2699
   40TPM     C434924   0.538  -6.693   6.089  0.6620  0.3483 -0.2076
   40TPM     S134925   0.546  -6.514   6.068  0.3971  0.3635 -0.1826
   41BDD     C134926   0.449  -6.975   6.343 -0.1579 -0.0168 -0.4130
   41BDD     C234927   0.531  -6.888   6.409 -0.2334  0.0447 -0.3998
   41BDD     C334928   0.565  -6.770   6.332 -0.5922  0.2395 -0.2638
   41BDD     C434929   0.508  -6.768   6.207 -0.7851  0.3235 -0.1752
   41BDD     S134930   0.409  -6.914   6.179 -0.5309  0.1647 -0.2563
   41BDD     C534931   0.582  -6.910   6.546  0.0215 -0.0733 -0.5116
   41BDD     C634932   0.653  -6.663   6.384 -0.7307  0.3350 -0.2264
   41BDD     O134933   0.682  -6.561   6.317 -1.0401  0.5028 -0.1090
   41BDD     O234934   0.553  -7.012   6.613  0.3309 -0.2413 -0.6289
   41BDD     C734935   0.703  -6.685   6.521 -0.4757  0.2168 -0.3382
   41BDD     C834936   0.669  -6.803   6.598 -0.1169  0.0221 -0.4743
   41BDD     C934937   0.726  -6.805   6.723  0.0760 -0.0622 -0.5628
   41BDD     S234938   0.826  -6.658   6.751 -0.1783  0.0966 -0.4817
   41BDD    C1034939   0.785  -6.598   6.587 -0.5512  0.2781 -0.3251
   41BDD    C1134940   0.880  -6.501   6.523 -0.3019  0.7684 -0.4951
   41BDD    C1234941   0.881  -6.358   6.592 -0.0587  0.3889 -0.9417
   41BDD    C1334942   0.759  -6.276   6.616  0.3311 -0.7252 -0.3810
   41BDD    C1434943   0.696  -6.211   6.495  0.5865  0.1210  0.0537
   41BDD    C1534944   0.541  -6.183   6.495  0.2558  0.5524 -0.2635
   41BDD    C1634945   0.495  -6.106   6.368 -0.1297 -0.3918 -0.7680
   41BDD    C1734946   0.969  -6.342   6.721 -0.6154 -0.5483 -0.5450
   41BDD    C1834947   1.087  -6.432   6.746 -0.9820 -0.3468 -1.0319
   41BDD    C1934948   0.721  -6.890   6.851 -0.3564  0.0346 -1.4674
   41BDD    C2034949   0.667  -6.820   6.979  0.2520 -0.8911  1.0590
   41BDD    C2134950   0.727  -6.883   7.111  1.9622  0.3735  0.0990
   41BDD    C2234951   0.691  -6.809   7.241  0.3280  0.1092 -0.4611
   41BDD    C2334952   0.771  -6.890   7.352 -0.4154 -0.2471 -0.5812
   41BDD    C2434953   0.769  -6.828   7.490 -0.0288 -0.2798 -0.6328
   41BDD    C2534954   0.510  -6.804   6.991 -0.6621 -0.4883 -1.2240
   41BDD    C2634955   0.436  -6.721   6.879  0.1498  0.0843  1.1788
   42TPM     C134956   0.395  -7.106   6.388  1.4413  0.1301 -0.3814
   42TPM     C234957   0.268  -7.145   6.359  1.3138  1.0784 -1.1933
   42TPM     C334958   0.242  -7.284   6.386  0.1376  1.2201 -1.4740
   42TPM     C434959   0.350  -7.352   6.436 -0.6317  0.3800 -0.8761
   42TPM     S134960   0.493  -7.243   6.453  0.0751 -0.6631  0.0956
   43BDTP    C134961   0.374  -7.968   6.488  0.1492 -0.1682 -0.1643
   43BDTP    C234962   0.263  -7.937   6.572  0.0352 -0.3226 -0.2570
   43BDTP    C334963   0.221  -7.807   6.596 -0.2658 -0.3886 -0.4190
   43BDTP    C434964   0.291  -7.702   6.534 -0.4641 -0.2982 -0.4929
   43BDTP    C534965   0.402  -7.733   6.450 -0.3501 -0.1437 -0.4001
   43BDTP    C634966   0.444  -7.863   6.426 -0.0492 -0.0778 -0.2384
   43BDTP    C734967   0.266  -7.560   6.544 -0.7846 -0.3412 -0.6586
   43BDTP    C834968   0.352  -7.483   6.472 -0.9150 -0.2282 -0.6943
   43BDTP    S134969   0.476  -7.581   6.382 -0.6504 -0.0510 -0.5231
   43BDTP    C934970   0.399  -8.110   6.478  0.4697 -0.1251  0.0013
   43BDTP   C1034971   0.313  -8.187   6.550  0.6001 -0.2383  0.0371
   43BDTP    S234972   0.189  -8.090   6.640  0.3354 -0.4153 -0.1342
   44FTM     S134973   0.229  -7.750   6.863  0.0706  0.3938 -0.5220
   44FTM     C134974   0.081  -7.692   6.947  0.4838  0.0080  0.5095
   44FTM     C234975  -0.022  -7.685   6.859 -0.1900 -0.3763  1.2408
   44FTM     C334976   0.007  -7.723   6.724 -1.0481 -0.3940  1.0483
   44FTM     C434977   0.137  -7.761   6.709 -1.0307 -0.0105  0.1399
   44FTM     F134978  -0.150  -7.643   6.895 -0.0699 -0.7350  2.1281
   44FTM     C534979   0.096  -7.649   7.099  1.1122  0.7553  1.9053
   44FTM     C634980   0.050  -7.731   7.209 -0.9318  2.1314  0.6335
   44FTM     C734981   0.068  -7.662   7.344 -0.8763 -0.4759 -1.5662
   44FTM     C834982   0.042  -7.521   7.397 -0.8790 -0.6954  0.0351
   44FTM     C934983  -0.107  -7.496   7.384  0.0330  1.6467 -0.3569
   44FTM    C1034984  -0.153  -7.360   7.351  0.7569  1.1499 -0.4007
   44FTM    C1134985  -0.059  -7.851   7.163 -0.1270  0.3037 -0.2825
   44FTM    C1234986  -0.198  -7.858   7.219  0.9121  1.8739  1.0898
   45FTM     S134987   0.568  -8.020   6.222  0.4510 -0.0190  0.1943
   45FTM     C134988   0.744  -7.994   6.193  0.4598  0.3361  0.5469
   45FTM     C234989   0.792  -7.901   6.280  0.0599  0.5659  0.5249
   45FTM     C334990   0.697  -7.845   6.371 -0.2698  0.4820  0.2393
   45FTM     C434991   0.572  -7.897   6.355 -0.1173  0.1779  0.0361
   45FTM     F134992   0.924  -7.860   6.281 -0.0314  0.8660  0.7619
   45FTM     C534993   0.836  -8.067   6.093 -0.1472  0.1756 -0.1256
   45FTM     C634994   0.910  -7.994   5.984 -0.3377 -0.7417  0.4385
   45FTM     C734995   0.825  -7.925   5.894  0.4212 -1.6638 -0.4818
   45FTM     C834996   0.825  -7.826   5.778 -0.3274 -0.3993  0.6716
   45FTM     C934997   0.867  -7.851   5.638 -0.8912 -0.4804  0.3084
   45FTM    C1034998   0.915  -7.744   5.542 -0.9858  0.1478  1.1725
   45FTM    C1134999   1.012  -8.085   5.910 -0.5502 -0.2843 -0.5613
   45FTM    C1235000   1.142  -8.008   5.896 -0.0429 -0.3820 -0.6740
   46TPM     C135001   0.301  -8.328   6.582  0.0415 -0.3870  0.1676
   46TPM     C235002   0.198  -8.410   6.547  0.2733 -0.6650  0.1241
   46TPM     C335003   0.216  -8.547   6.586  0.5878 -0.6022  0.2044
   46TPM     C435004   0.333  -8.570   6.652  0.5956 -0.2761  0.3094
   46TPM     S135005   0.430  -8.419   6.669  0.2034 -0.0213  0.3149
   47BDD     C135006   0.232  -8.912   6.834 -0.0027  0.3318 -0.0624
   47BDD     C235007   0.277  -8.830   6.934  0.1029  0.2121 -0.0114
   47BDD     C335008   0.326  -8.702   6.885  0.1840  0.2154  0.0768
   47BDD     C435009   0.316  -8.689   6.749  0.1391  0.3372  0.0917
   47BDD     S135010   0.246  -8.835   6.673 -0.0078  0.4565 -0.0036
   47BDD     C535011   0.278  -8.866   7.077  0.1331  0.0906 -0.0420
   47BDD     C635012   0.380  -8.598   6.975  0.3031  0.0972  0.1429
   47BDD     O135013   0.422  -8.488   6.933  0.3731  0.1000  0.2190
   47BDD     O235014   0.236  -8.976   7.119  0.0632  0.0879 -0.1180
   47BDD     C735015   0.381  -8.634   7.118  0.3333 -0.0243  0.1124
   47BDD     C835016   0.332  -8.762   7.167  0.2522 -0.0274  0.0242
   47BDD     C935017   0.341  -8.775   7.303  0.2971 -0.1493  0.0092
   47BDD     S235018   0.412  -8.629   7.379  0.4441 -0.2686  0.1043
   47BDD    C1035019   0.426  -8.552   7.217  0.4389 -0.1438  0.1633
   47BDD    C1135020   0.479  -8.409   7.215 -0.0035  0.4389 -0.1621
   47BDD    C1235021   0.366  -8.306   7.202 -0.9037  0.1375  0.0562
   47BDD    C1335022   0.278  -8.303   7.325 -0.1642 -0.2858  0.9606
   47BDD    C1435023   0.330  -8.267   7.471  0.9712 -1.0890  0.0694
   47BDD    C1535024   0.401  -8.131   7.478 -0.2660 -0.3722  0.1902
   47BDD    C1635025   0.336  -8.007   7.542  0.5423  0.9532  0.3199
   47BDD    C1735026   0.404  -8.175   7.143 -0.3272 -0.6486 -0.3673
   47BDD    C1835027   0.469  -8.176   6.996  0.5677  1.0429  0.0608
   47BDD    C1935028   0.330  -8.883   7.409 -1.4234  0.9286  1.2115
   47BDD    C2035029   0.187  -8.912   7.477  0.0731 -1.1003  0.5866
   47BDD    C2135030   0.186  -9.028   7.566 -0.2068  0.4526  0.3587
   47BDD    C2235031   0.310  -9.111   7.593  0.2944  1.2210  0.2053
   47BDD    C2335032   0.305  -9.193   7.718 -0.7856 -0.5439 -0.3985
   47BDD    C2435033   0.280  -9.129   7.842  0.8245 -0.1189 -0.4083
   47BDD    C2535034   0.051  -8.827   7.459  0.7053 -0.9464 -0.5088
   47BDD    C2635035   0.082  -8.680   7.514  0.7332  0.9665 -0.7569
   48TPM     C135036   0.193  -9.058   6.821 -0.4990 -0.5557  0.6270
   48TPM     C235037   0.258  -9.167   6.870 -0.3012 -0.8368 -0.2253
   48TPM     C335038   0.201  -9.292   6.828 -0.0587 -0.6309 -1.2305
   48TPM     C435039   0.092  -9.279   6.747 -0.0715 -0.1927 -1.1448
   48TPM     S135040   0.053  -9.105   6.717 -0.3934 -0.0048  0.2228
   49BDTP    C135041  -0.131  -9.773   6.418 -0.0296  0.0233  0.1227
   49BDTP    C235042  -0.207  -9.663   6.369  0.2177  0.0929 -0.1167
   49BDTP    C335043  -0.188  -9.533   6.415  0.3161  0.1040 -0.1895
   49BDTP    C435044  -0.089  -9.510   6.512  0.1631  0.0438 -0.0186
   49BDTP    C535045  -0.012  -9.621   6.560 -0.0839 -0.0257  0.2209
   49BDTP    C635046  -0.031  -9.750   6.515 -0.1823 -0.0369  0.2936
   49BDTP    C735047  -0.051  -9.385   6.574  0.2241  0.0420 -0.0519
   49BDTP    C835048   0.049  -9.395   6.664  0.0365 -0.0247  0.1484
   49BDTP    S135049   0.109  -9.566   6.685 -0.2432 -0.0946  0.4073
   49BDTP    C935050  -0.168  -9.898   6.356 -0.0901  0.0252  0.1559
   49BDTP   C1035051  -0.268  -9.888   6.265  0.0975  0.0918 -0.0443
   49BDTP    S235052  -0.328  -9.717   6.245  0.3773  0.1617 -0.3031
   50FTM     S135053  -0.156  -9.344   6.202  0.1700 -0.3306 -0.1600
   50FTM     C135054  -0.311  -9.283   6.133  0.5598 -0.5137 -1.2398
   50FTM     C235055  -0.415  -9.327   6.208  0.1366 -0.0809 -1.5626
   50FTM     C335056  -0.382  -9.409   6.321 -0.5012  0.4077 -1.0036
   50FTM     C435057  -0.248  -9.428   6.332 -0.5684  0.3471 -0.2273
   50FTM     F135058  -0.547  -9.295   6.179  0.3014 -0.1016 -2.3835
   50FTM     C535059  -0.315  -9.171   6.025 -0.1669  0.9445  1.2013
   50FTM     C635060  -0.303  -9.198   5.866 -0.0386  0.9040 -1.4176
   50FTM     C735061  -0.443  -9.240   5.820 -1.1647 -1.0151  0.6907
   50FTM     C835062  -0.511  -9.382   5.840 -0.5912  0.5941 -0.7130
   50FTM     C935063  -0.661  -9.378   5.829  1.7659 -0.0202 -0.6962
   50FTM    C1035064  -0.731  -9.492   5.754 -0.0213  0.3360 -0.1130
   50FTM    C1135065  -0.179  -9.276   5.826 -0.0171  0.5499 -0.0292
   50FTM    C1235066  -0.133  -9.250   5.688 -0.8611 -0.6340 -0.5875
   51FTM     S135067   0.087 -10.002   6.488  0.2467  0.2482 -0.0816
   51FTM     C135068   0.146 -10.083   6.638 -0.4057 -0.0996 -0.0076
   51FTM     C235069   0.128 -10.001   6.745 -0.8571 -0.3417  0.1055
   51FTM     C335070   0.068  -9.873   6.717 -0.7264 -0.2731  0.1408
   51FTM     C435071   0.041  -9.857   6.585 -0.1562  0.0315  0.0516
   51FTM     F135072   0.163 -10.037   6.874 -1.4155 -0.6398  0.1838
   51FTM     C535073   0.201 -10.224   6.648  0.2934 -0.0430  0.6331
   51FTM     C635074   0.121 -10.318   6.548  0.3219  0.8849 -0.2710
   51FTM     C735075   0.144 -10.336   6.401 -1.2650 -0.4379 -0.4229
   51FTM     C835076   0.289 -10.380   6.377 -0.2687 -1.5943 -0.3010
   51FTM     C935077   0.295 -10.382   6.219  0.2970 -0.1314  0.1971
   51FTM    C1035078   0.430 -10.431   6.204 -1.0561  0.0076 -0.3841
   51FTM    C1135079   0.070 -10.445   6.624 -0.0378 -0.4891  1.0602
   51FTM    C1235080  -0.054 -10.529   6.593 -0.2846  0.5502 -0.8919
   52TPM     C135081  -0.317 -10.003   6.178 -0.8901  0.0817  0.7790
   52TPM     C235082  -0.307 -10.136   6.207 -1.2798  0.0275  0.6785
   52TPM     C335083  -0.391 -10.220   6.125 -0.6714  0.2317 -0.1804
   52TPM     C435084  -0.465 -10.151   6.034  0.1824  0.4417 -0.7346
   52TPM     S135085  -0.434  -9.974   6.044  0.2845  0.3973 -0.2112
   53BDD     C135086  -0.734 -10.395   5.888 -0.6233 -0.0583 -0.5479
   53BDD     C235087  -0.668 -10.341   5.781 -0.4618  0.0377 -0.4009
   53BDD     C335088  -0.566 -10.245   5.819 -0.2232 -0.3127 -0.1413
   53BDD     C435089  -0.555 -10.227   5.954 -0.2062 -0.6710 -0.0941
   53BDD     S135090  -0.672 -10.330   6.043 -0.4880 -0.5941 -0.3715
   53BDD     C535091  -0.696 -10.376   5.640 -0.5205  0.4552 -0.4940
   53BDD     C635092  -0.482 -10.174   5.719 -0.0205 -0.2795  0.0504
   53BDD     O135093  -0.394 -10.091   5.752  0.1855 -0.5817  0.2743
   53BDD     O235094  -0.785 -10.458   5.608 -0.7262  0.7573 -0.7180
   53BDD     C735095  -0.511 -10.209   5.579 -0.0794  0.1379 -0.0424
   53BDD     C835096  -0.613 -10.305   5.541 -0.3181  0.4883 -0.3021
   53BDD     C935097  -0.624 -10.322   5.406 -0.3350  0.8465 -0.3492
   53BDD     S235098  -0.507 -10.220   5.316 -0.0530  0.7697 -0.0718
   53BDD    C1035099  -0.445 -10.154   5.472  0.0820  0.2340  0.1048
   53BDD    C1135100  -0.350 -10.037   5.463 -0.0555  0.9085 -0.2684
   53BDD    C1235101  -0.384  -9.934   5.347  0.6645 -1.1329 -0.4166
   53BDD    C1335102  -0.331  -9.973   5.213  0.1030  0.0383 -1.2816
   53BDD    C1435103  -0.177  -9.986   5.210  1.0132  0.2858 -0.9692
   53BDD    C1535104  -0.127 -10.001   5.075  0.8907 -0.0072  0.9662
   53BDD    C1635105  -0.167  -9.898   4.967 -0.5949 -0.2670  0.2707
   53BDD    C1735106  -0.408  -9.774   5.355  0.8659 -0.3878  0.2547
   53BDD    C1835107  -0.511  -9.756   5.468  0.2036 -0.0953  0.5493
   53BDD    C1935108  -0.719 -10.391   5.313 -0.9003  0.9843 -0.1054
   53BDD    C2035109  -0.821 -10.314   5.228 -0.2145 -0.2421 -1.5078
   53BDD    C2135110  -0.918 -10.201   5.286 -0.5208  1.2316 -0.9673
   53BDD    C2235111  -0.856 -10.096   5.366  0.1180  0.5634  0.0391
   53BDD    C2335112  -0.912 -10.064   5.503  0.9164 -0.0199  0.8667
   53BDD    C2435113  -1.068 -10.054   5.498 -0.1536  0.0064 -0.3785
   53BDD    C2535114  -0.786 -10.319   5.085  0.1888  0.2142 -0.2652
   53BDD    C2635115  -0.898 -10.305   4.978 -0.9728  1.2781 -0.1683
   54TPM     C135116  -0.866 -10.465   5.901 -0.2672  0.6779 -0.3788
   54TPM     C235117  -0.939 -10.446   6.015 -0.3235  0.7204 -0.4213
   54TPM     C335118  -1.068 -10.510   6.014 -0.0074  0.0576 -0.1520
   54TPM     C435119  -1.094 -10.578   5.899  0.2895 -0.4903  0.0958
   54TPM     S135120  -0.956 -10.566   5.782  0.1927 -0.2094  0.0075
   55BDTP    C135121  -1.653 -10.830   5.756 -0.1991  0.5005  0.1352
   55BDTP    C235122  -1.584 -10.833   5.631 -0.0265  0.4220  0.2310
   55BDTP    C335123  -1.454 -10.788   5.615  0.0682  0.2206  0.4257
   55BDTP    C435124  -1.388 -10.737   5.729 -0.0110  0.0901  0.5310
   55BDTP    C535125  -1.456 -10.734   5.854 -0.1838  0.1686  0.4356
   55BDTP    C635126  -1.587 -10.779   5.869 -0.2782  0.3701  0.2410
   55BDTP    C735127  -1.253 -10.684   5.737  0.0609 -0.1239  0.7339
   55BDTP    C835128  -1.218 -10.642   5.861 -0.0477 -0.2087  0.7943
   55BDTP    S135129  -1.350 -10.664   5.984 -0.2565 -0.0295  0.6030
   55BDTP    C935130  -1.787 -10.883   5.747 -0.2711  0.7145 -0.0674
   55BDTP   C1035131  -1.823 -10.925   5.623 -0.1626  0.7994 -0.1278
   55BDTP    S235132  -1.691 -10.904   5.500  0.0465  0.6202  0.0637
   56FTM     S135133  -1.226 -10.804   5.445  0.4295 -0.2795  0.2123
   56FTM     C135134  -1.257 -10.759   5.273  0.7706  0.1917  0.2676
   56FTM     C235135  -1.387 -10.723   5.258  0.9992  1.0446  0.2732
   56FTM     C335136  -1.468 -10.727   5.376  0.9246  1.3757  0.2360
   56FTM     C435137  -1.398 -10.768   5.485  0.6299  0.7561  0.2006
   56FTM     F135138  -1.441 -10.683   5.136  1.2889  1.5761  0.3127
   56FTM     C535139  -1.165 -10.801   5.166 -0.4439  0.0258 -1.3631
   56FTM     C635140  -1.153 -10.935   5.097 -0.2577  0.0541  1.3403
   56FTM     C735141  -1.275 -10.942   4.994 -1.4362  0.1033 -0.0870
   56FTM     C835142  -1.232 -10.938   4.846 -0.9308  1.1460  0.4958
   56FTM     C935143  -1.217 -11.079   4.769  0.0534 -0.0299  0.2106
   56FTM    C1035144  -1.305 -11.188   4.819 -0.3686  0.2442  0.7127
   56FTM    C1135145  -1.119 -11.061   5.170 -1.0401  0.3568  0.5862
   56FTM    C1235146  -1.249 -11.106   5.255 -1.8746  0.5747  0.0869
   57FTM     S135147  -1.566 -10.918   6.109 -0.0529 -0.0242  0.3147
   57FTM     C135148  -1.709 -10.913   6.218  0.5563  0.5840  1.1133
   57FTM     C235149  -1.801 -10.826   6.169  0.3920  0.5052  1.2798
   57FTM     C335150  -1.766 -10.759   6.047 -0.2034 -0.0202  0.8082
   57FTM     C435151  -1.644 -10.796   6.001 -0.5045 -0.3547  0.2627
   57FTM     F135152  -1.922 -10.801   6.232  0.7713  0.9042  1.8692
   57FTM     C535153  -1.717 -10.987   6.344  0.1309 -0.5332 -1.6070
   57FTM     C635154  -1.854 -11.061   6.359 -0.5628  1.5367  0.8777
   57FTM     C735155  -1.937 -11.032   6.486 -0.7645 -0.4590  0.6532
   57FTM     C835156  -1.871 -11.050   6.626 -1.0855 -0.2488 -0.7304
   57FTM     C935157  -1.829 -11.201   6.667 -0.7194  0.4935  1.0066
   57FTM    C1035158  -1.929 -11.319   6.653  0.0157 -0.9116  0.0786
   57FTM    C1135159  -1.847 -11.197   6.278  0.1334 -0.5047  0.4499
   57FTM    C1235160  -1.973 -11.260   6.238 -0.3424  1.2208 -0.3147
   58TPM     C135161  -1.948 -10.988   5.585 -0.1907 -0.4857 -0.5949
   58TPM     C235162  -1.968 -11.120   5.557 -0.6382 -0.4505 -0.4559
   58TPM     C335163  -2.104 -11.152   5.523 -0.8984 -0.1495  0.2517
   58TPM     C435164  -2.188 -11.044   5.524 -0.6493  0.0449  0.6522
   58TPM     S135165  -2.101 -10.893   5.569 -0.0623 -0.1387  0.1629
   59BDD     C135166  -2.512 -10.956   5.333  0.4559 -0.0120 -0.0278
   59BDD     C235167  -2.549 -11.038   5.435  0.2599  0.0125 -0.0776
   59BDD     C335168  -2.436 -11.092   5.509  0.1218 -0.0391  0.0962
   59BDD     C435169  -2.315 -11.049   5.462  0.2143 -0.1023  0.2759
   59BDD     S135170  -2.334 -10.939   5.322  0.4811 -0.1014  0.2401
   59BDD     C535171  -2.689 -11.071   5.469  0.1924  0.0843 -0.2868
   59BDD     C635172  -2.452 -11.183   5.624 -0.0970 -0.0240  0.0776
   59BDD     O135173  -2.355 -11.230   5.688 -0.2160 -0.0685  0.2275
   59BDD     O235174  -2.786 -11.025   5.404  0.3114  0.1288 -0.4368
   59BDD     C735175  -2.593 -11.216   5.658 -0.1645  0.0478 -0.1316
   59BDD     C835176  -2.705 -11.163   5.583 -0.0265  0.0994 -0.3054
   59BDD     C935177  -2.826 -11.205   5.630 -0.1192  0.1626 -0.4852
   59BDD     S235178  -2.808 -11.316   5.771 -0.3857  0.1617 -0.4492
   59BDD    C1035179  -2.629 -11.299   5.760 -0.3605  0.0723 -0.1813
   59BDD    C1135180  -2.531 -11.379   5.847  0.8335  0.5432 -0.3929
   59BDD    C1235181  -2.492 -11.513   5.798  0.3947  0.2528  0.6058
   59BDD    C1335182  -2.368 -11.582   5.848 -0.0757  0.4336 -0.2180
   59BDD    C1435183  -2.271 -11.554   5.966  0.9816 -0.7530  0.7229
   59BDD    C1535184  -2.333 -11.510   6.107 -1.9421  0.3014 -1.2464
   59BDD    C1635185  -2.336 -11.624   6.217 -0.1075 -0.7857  0.4238
   59BDD    C1735186  -2.606 -11.620   5.795  0.5706  0.5357  0.9820
   59BDD    C1835187  -2.583 -11.763   5.733 -0.4949 -0.2031  0.3595
   59BDD    C1935188  -2.975 -11.190   5.577 -2.2685  1.0444  0.2143
   59BDD    C2035189  -3.068 -11.108   5.658  0.8746  0.5559 -0.4162
   59BDD    C2135190  -3.182 -11.044   5.573 -0.4224 -0.4282 -0.6380
   59BDD    C2235191  -3.255 -11.134   5.470 -0.3192 -0.2968  0.3279
   59BDD    C2335192  -3.264 -11.075   5.321  0.0243  1.2101  0.3043
   59BDD    C2435193  -3.143 -11.034   5.239  0.1336 -0.7605 -0.2655
   59BDD    C2535194  -3.125 -11.180   5.785 -0.1179 -0.0722  0.2808
   59BDD    C2635195  -3.180 -11.094   5.891 -0.9035 -1.6303  0.4507
   60TPM     C135196  -2.582 -10.885   5.226 -0.6009  0.1124 -0.1160
   60TPM     C235197  -2.705 -10.825   5.238 -0.5431  0.2564 -0.2282
   60TPM     C335198  -2.742 -10.745   5.125 -0.3185  0.3502 -0.2370
   60TPM     C435199  -2.649 -10.743   5.026 -0.2047  0.2777 -0.1318
   60TPM     S135200  -2.505 -10.843   5.068 -0.3742  0.0838 -0.0125
    1BDTP    C135201   3.369  11.223   3.462 -0.0328 -0.2742 -0.0420
    1BDTP    C235202   3.460  11.203   3.570 -0.0334  0.0296  0.0151
    1BDTP    C335203   3.595  11.235   3.561 -0.0772  0.2174  0.0049
    1BDTP    C435204   3.642  11.288   3.440 -0.1227  0.1001 -0.0647
    1BDTP    C535205   3.551  11.307   3.332 -0.1221 -0.2036 -0.1219
    1BDTP    C635206   3.417  11.276   3.341 -0.0784 -0.3912 -0.1117
    1BDTP    C735207   3.778  11.328   3.407 -0.1726  0.2513 -0.0882
    1BDTP    C835208   3.793  11.376   3.281 -0.2092  0.0777 -0.1593
    1BDTP    S135209   3.637  11.377   3.187 -0.1854 -0.3014 -0.2064
    1BDTP    C935210   3.234  11.183   3.495  0.0170 -0.4251 -0.0185
    1BDTP   C1035211   3.219  11.135   3.621  0.0535 -0.2518  0.0525
    1BDTP    S235212   3.374  11.134   3.715  0.0299  0.1279  0.0996
    2FTM     S135213   3.784  11.035   3.596 -0.2759 -0.5409  0.0142
    2FTM     C135214   3.871  11.029   3.754 -0.8054  0.1193  0.3365
    2FTM     C235215   3.822  11.126   3.837 -1.1812  0.3822 -0.1785
    2FTM     C335216   3.717  11.207   3.784 -1.0828  0.0925 -0.8391
    2FTM     C435217   3.684  11.172   3.656 -0.6163 -0.4076 -0.8298
    2FTM     F135218   3.869  11.145   3.966 -1.6367  0.9000 -0.0821
    2FTM     C535219   3.978  10.933   3.782 -0.5891  0.5984  0.5126
    2FTM     C635220   4.099  10.923   3.677  0.1649 -0.4745  0.4481
    2FTM     C735221   4.123  10.817   3.567 -0.4292  0.2790 -0.3935
    2FTM     C835222   4.057  10.685   3.570  1.2257  1.0288 -1.0956
    2FTM     C935223   4.113  10.595   3.691  1.7584 -0.8746  0.3318
    2FTM    C1035224   4.171  10.485   3.632  1.2065  0.8340 -0.1855
    2FTM    C1135225   4.211  11.030   3.664 -0.0685 -1.6996 -0.6708
    2FTM    C1235226   4.272  11.102   3.791  1.0210  0.0893  0.1606
    3FTM     S135227   3.385  11.181   3.065 -0.0970 -0.7244 -0.4986
    3FTM     C135228   3.220  11.205   2.997 -0.1015 -0.1983 -0.3115
    3FTM     C235229   3.138  11.261   3.090  0.0753 -0.3085 -0.0905
    3FTM     C335230   3.198  11.287   3.218  0.2217 -0.7966 -0.0542
    3FTM     C435231   3.329  11.250   3.223  0.1546 -1.0693 -0.2536
    3FTM     F135232   3.005  11.291   3.066  0.1153  0.0265  0.0919
    3FTM     C535233   3.208  11.177   2.852 -0.8437 -0.0575 -0.5568
    3FTM     C635234   3.121  11.277   2.782 -2.5159 -1.0419 -0.3323
    3FTM     C735235   3.065  11.229   2.650 -0.1906  0.2064  0.2157
    3FTM     C835236   3.000  11.104   2.623  0.6061  1.1022 -0.0690
    3FTM     C935237   2.890  11.101   2.513 -1.2236  0.0492  0.1310
    3FTM    C1035238   2.923  11.155   2.372 -0.5111 -0.5029  1.7531
    3FTM    C1135239   3.184  11.430   2.803  0.9164  0.9239 -0.0634
    3FTM    C1235240   3.310  11.465   2.729  1.0568 -0.6428 -0.6719
    4TPM     C135241   3.103  11.089   3.679 -0.0476 -0.1451 -0.3463
    4TPM     C235242   3.092  11.038   3.805  0.2144 -0.2522 -0.3660
    4TPM     C335243   2.956  11.024   3.850  0.3166  0.1135  0.0661
    4TPM     C435244   2.863  11.064   3.759  0.1326  0.4995  0.4153
    4TPM     S135245   2.941  11.123   3.607 -0.1866  0.4307  0.2240
    5BDD     C135246   2.514  11.011   3.952 -0.1223 -0.2054  0.0041
    5BDD     C235247   2.491  10.960   3.827 -0.1178 -0.1061 -0.0376
    5BDD     C335248   2.605  10.972   3.738 -0.1593  0.0861 -0.0660
    5BDD     C435249   2.714  11.032   3.797 -0.1949  0.1301 -0.0455
    5BDD     S135250   2.680  11.078   3.967 -0.1789 -0.0656  0.0108
    5BDD     C535251   2.364  10.899   3.785 -0.0751 -0.1841 -0.0529
    5BDD     C635252   2.603  10.924   3.599 -0.1622  0.2184 -0.1125
    5BDD     O135253   2.702  10.934   3.522 -0.1979  0.3841 -0.1370
    5BDD     O235254   2.265  10.888   3.861 -0.0393 -0.3498 -0.0284
    5BDD     C735255   2.476  10.862   3.557 -0.1194  0.1407 -0.1278
    5BDD     C835256   2.362  10.850   3.645 -0.0780 -0.0513 -0.0994
    5BDD     C935257   2.253  10.790   3.587 -0.0423 -0.0956 -0.1198
    5BDD     S235258   2.287  10.744   3.417 -0.0583  0.1001 -0.1761
    5BDD    C1035259   2.453  10.811   3.432 -0.1149  0.2401 -0.1694
    5BDD    C1135260   2.532  10.823   3.296  0.2753  0.0915  0.7952
    5BDD    C1235261   2.476  10.940   3.208  0.5836  0.6620  1.1042
    5BDD    C1335262   2.507  10.914   3.058 -1.3089  0.0791  0.8082
    5BDD    C1435263   2.635  10.954   2.972 -0.1388 -0.4710 -1.3351
    5BDD    C1535264   2.747  11.037   3.028 -0.8877 -1.1625  0.2806
    5BDD    C1635265   2.838  10.997   3.150 -0.8964 -0.4533  0.4018
    5BDD    C1735266   2.426  11.091   3.246  0.0192  0.6544 -0.2647
    5BDD    C1835267   2.543  11.197   3.276  0.8013 -0.2900 -0.3109
    5BDD    C1935268   2.115  10.743   3.648 -0.0659 -0.2663  0.3885
    5BDD    C2035269   2.083  10.593   3.630  0.7076 -1.0785 -0.1623
    5BDD    C2135270   1.945  10.554   3.697 -0.7688  0.3600  0.0225
    5BDD    C2235271   1.813  10.633   3.717 -0.7312  0.6874  0.4551
    5BDD    C2335272   1.686  10.562   3.766  0.1409  0.6397 -0.5076
    5BDD    C2435273   1.570  10.533   3.661 -0.0747 -0.4196  0.3602
    5BDD    C2535274   2.181  10.481   3.645 -0.9126 -0.8109 -0.8553
    5BDD    C2635275   2.266  10.418   3.540  0.7049  0.3280 -0.4949
    6TPM     C135276   2.440  11.047   4.073 -0.0516  0.2378 -0.0854
    6TPM     C235277   2.314  11.098   4.080  0.2269  0.9336  0.0292
    6TPM     C335278   2.269  11.124   4.215  0.3170  0.7205  0.1012
    6TPM     C435279   2.362  11.093   4.310  0.1074 -0.1376  0.0412
    6TPM     S135280   2.513  11.028   4.237 -0.2228 -0.7474 -0.1119
    7BDTP    C135281   2.298  11.268   4.916  0.3792  0.7291  0.0399
    7BDTP    C235282   2.410  11.180   4.921  0.0159  0.2668  0.0771
    7BDTP    C335283   2.457  11.114   4.808 -0.2894 -0.0250  0.1155
    7BDTP    C435284   2.393  11.136   4.686 -0.2344  0.1454  0.1172
    7BDTP    C535285   2.281  11.225   4.681  0.1289  0.6073  0.0796
    7BDTP    C635286   2.233  11.291   4.793  0.4341  0.8995  0.0413
    7BDTP    C735287   2.424  11.079   4.556 -0.5076 -0.0921  0.1532
    7BDTP    C835288   2.343  11.120   4.456 -0.3689  0.1655  0.1448
    7BDTP    S135289   2.215  11.237   4.511  0.1274  0.7458  0.0900
    7BDTP    C935290   2.267  11.325   5.046  0.6524  0.9668  0.0038
    7BDTP   C1035291   2.348  11.284   5.146  0.5138  0.7088  0.0123
    7BDTP    S235292   2.476  11.167   5.090  0.0173  0.1287  0.0670
    8FTM     S135293   2.608  10.915   4.968 -0.2217 -0.3946  0.0557
    8FTM     C135294   2.773  10.884   4.902  0.0752  0.3363  0.4323
    8FTM     C235295   2.788  10.950   4.784  0.3503  1.0607  0.8589
    8FTM     C335296   2.676  11.026   4.739  0.3471  1.0912  0.9178
    8FTM     C435297   2.571  11.019   4.825  0.0601  0.3659  0.5230
    8FTM     F135298   2.906  10.945   4.710  0.6213  1.7400  1.2220
    8FTM     C535299   2.877  10.824   4.995 -0.8816 -0.5445 -0.4021
    8FTM     C635300   2.946  10.914   5.112  0.2373 -0.3557 -1.1942
    8FTM     C735301   3.051  10.846   5.208 -0.1715  1.1287  0.0471
    8FTM     C835302   3.169  10.791   5.127 -1.0320  0.8204  1.5011
    8FTM     C935303   3.268  10.704   5.203  1.3040  0.4942 -1.0131
    8FTM    C1035304   3.400  10.760   5.188  0.9510 -0.4138 -1.2935
    8FTM    C1135305   2.843  10.986   5.205  0.5803  0.6244  0.8984
    8FTM    C1235306   2.885  11.097   5.276 -0.3041 -1.3119 -1.7355
    9FTM     S135307   2.065  11.502   4.659  0.3871  0.2160  0.3467
    9FTM     C135308   1.893  11.449   4.676  0.3472  0.5155  0.9231
    9FTM     C235309   1.885  11.345   4.762  0.5352  0.1593  0.5187
    9FTM     C335310   2.009  11.300   4.820  0.7174 -0.3562 -0.2457
    9FTM     C435311   2.115  11.373   4.775  0.6672 -0.3954 -0.4325
    9FTM     F135312   1.765  11.283   4.795  0.5536  0.2782  0.8163
    9FTM     C535313   1.781  11.513   4.579 -1.1106  0.2340  0.7578
    9FTM     C635314   1.844  11.644   4.518  0.7583  1.7251  1.0045
    9FTM     C735315   1.831  11.671   4.360  0.2541  1.4267  0.8608
    9FTM     C835316   1.812  11.549   4.271 -1.3177 -0.0306  0.1149
    9FTM     C935317   1.772  11.573   4.115  0.5526 -0.7991  0.2888
    9FTM    C1035318   1.642  11.647   4.061 -0.2765 -0.7693 -0.2865
    9FTM    C1135319   1.828  11.769   4.605  0.4006 -0.9131  0.8610
    9FTM    C1235320   1.684  11.843   4.571  0.0688 -0.5677  0.2634
   10TPM     C135321   2.339  11.318   5.288 -1.3433 -0.1379  0.2466
   10TPM     C235322   2.305  11.229   5.385 -1.5047  0.2389  0.5380
   10TPM     C335323   2.302  11.286   5.518 -0.6969  0.5100  0.4472
   10TPM     C435324   2.335  11.418   5.521  0.0806  0.3395  0.0867
   10TPM     S135325   2.371  11.482   5.356 -0.1492 -0.1800 -0.1681
   11BDD     C135326   2.315  11.502   5.904 -0.3800  0.1252 -0.0161
   11BDD     C235327   2.371  11.614   5.851 -0.2750  0.0781 -0.0045
   11BDD     C335328   2.390  11.607   5.707 -0.1315  0.0113  0.0168
   11BDD     C435329   2.347  11.489   5.653 -0.1293  0.0085  0.0212
   11BDD     S135330   2.281  11.379   5.778 -0.3067  0.0892 -0.0012
   11BDD     C535331   2.411  11.733   5.930 -0.3026  0.0927 -0.0126
   11BDD     C635332   2.449  11.717   5.628 -0.0018 -0.0473  0.0323
   11BDD     O135333   2.465  11.710   5.504  0.1219 -0.1048  0.0508
   11BDD     O235334   2.395  11.739   6.054 -0.4262  0.1502 -0.0312
   11BDD     C735335   2.488  11.835   5.708 -0.0293 -0.0327  0.0240
   11BDD     C835336   2.470  11.843   5.851 -0.1728  0.0341  0.0027
   11BDD     C935337   2.513  11.961   5.905 -0.1750  0.0369 -0.0018
   11BDD     S235338   2.579  12.071   5.780  0.0023 -0.0438  0.0207
   11BDD    C1035339   2.545  11.948   5.654  0.0758 -0.0798  0.0356
   11BDD    C1135340   2.527  11.999   5.519 -0.5115 -1.2211  0.9814
   11BDD    C1235341   2.641  12.070   5.438  0.1233 -1.7309 -1.5853
   11BDD    C1335342   2.656  12.222   5.465 -0.9516 -0.5169  0.0348
   11BDD    C1435343   2.531  12.304   5.431  0.9285 -0.2047 -0.9127
   11BDD    C1535344   2.466  12.377   5.561 -0.1319  0.3233  1.1315
   11BDD    C1635345   2.331  12.439   5.520 -0.0257 -0.3416 -1.3336
   11BDD    C1735346   2.777  12.002   5.433  1.1350  1.4166 -0.1963
   11BDD    C1835347   2.769  11.872   5.361 -0.5928 -1.2992  0.2365
   11BDD    C1935348   2.538  12.019   6.052  0.2652 -0.3982  0.1351
   11BDD    C2035349   2.403  12.032   6.136  0.2175  1.9405 -1.0126
   11BDD    C2135350   2.418  12.040   6.287 -1.6060  0.6231 -0.6688
   11BDD    C2235351   2.527  11.969   6.377  0.6245  0.2450  0.6026
   11BDD    C2335352   2.662  12.043   6.362 -0.3710  0.1067 -0.8950
   11BDD    C2435353   2.800  11.965   6.383 -0.3643  0.0592  1.0677
   11BDD    C2535354   2.310  12.133   6.094  0.9407 -0.3748  0.2312
   11BDD    C2635355   2.351  12.282   6.103 -0.3151 -0.3542 -0.1885
   12TPM     C135356   2.263  11.446   6.030  0.3804  0.0924  0.0402
   12TPM     C235357   2.278  11.510   6.149 -0.1742  0.1344  0.0912
   12TPM     C335358   2.207  11.448   6.258 -0.8223  0.2713 -0.2455
   12TPM     C435359   2.138  11.336   6.221 -0.7620  0.3338 -0.5532
   12TPM     S135360   2.157  11.301   6.045  0.1251  0.2235 -0.4407
   13BDTP    C135361   1.734  10.997   6.556 -0.1050 -0.0408 -0.0231
   13BDTP    C235362   1.736  10.932   6.429  0.1568 -0.1595  0.0401
   13BDTP    C335363   1.808  10.981   6.321  0.4078 -0.2799  0.1507
   13BDTP    C435364   1.882  11.100   6.338  0.4008 -0.2832  0.2019
   13BDTP    C535365   1.880  11.165   6.465  0.1391 -0.1638  0.1388
   13BDTP    C635366   1.808  11.116   6.573 -0.1120 -0.0439  0.0280
   13BDTP    C735367   1.964  11.169   6.241  0.6333 -0.3957  0.3155
   13BDTP    C835368   2.023  11.282   6.288  0.5597 -0.3672  0.3402
   13BDTP    S135369   1.983  11.315   6.462  0.1855 -0.1938  0.2233
   13BDTP    C935370   1.653  10.928   6.653 -0.3375  0.0718 -0.1367
   13BDTP   C1035371   1.594  10.815   6.606 -0.2638  0.0434 -0.1615
   13BDTP    S235372   1.633  10.781   6.432  0.1103 -0.1300 -0.0446
   14FTM     S135373   1.778  10.986   6.039 -0.2515 -0.3916 -0.3517
   14FTM     C135374   1.876  10.854   5.965  0.0819 -0.3923  0.0774
   14FTM     C235375   1.917  10.767   6.061  0.2900  0.0129  0.3608
   14FTM     C335376   1.876  10.797   6.195  0.2050  0.3402  0.2640
   14FTM     C435377   1.801  10.910   6.202 -0.0774  0.1804 -0.1057
   14FTM     F135378   1.994  10.655   6.033  0.5699  0.1113  0.7249
   14FTM     C535379   1.890  10.838   5.817  0.0641  1.0359 -0.7064
   14FTM     C635380   1.993  10.941   5.766 -0.7856  0.7239  0.8208
   14FTM     C735381   2.050  10.902   5.614  1.7941 -1.6546  0.1052
   14FTM     C835382   2.085  10.751   5.574  0.3644 -0.3131 -0.4586
   14FTM     C935383   2.176  10.658   5.667 -1.3111 -0.1103 -0.8468
   14FTM    C1035384   2.135  10.502   5.673  0.4109  0.0720  0.9147
   14FTM    C1135385   1.966  11.093   5.771 -0.4392  0.0105  1.1265
   14FTM    C1235386   1.850  11.155   5.713 -0.3920  1.0511  0.0343
   15FTM     S135387   1.683  11.200   6.818  0.3993 -0.7014  0.1257
   15FTM     C135388   1.792  11.270   6.943  1.0979 -0.6728 -0.4858
   15FTM     C235389   1.920  11.274   6.896  0.8250 -0.5491 -1.2515
   15FTM     C335390   1.940  11.223   6.764  0.0741 -0.4704 -1.4057
   15FTM     C435391   1.824  11.180   6.707 -0.2382 -0.5363 -0.7361
   15FTM     F135392   2.026  11.323   6.971  1.2389 -0.4995 -1.8582
   15FTM     C535393   1.745  11.329   7.069  0.4671  1.2987 -0.3376
   15FTM     C635394   1.596  11.287   7.100 -1.5858  0.2600 -0.3437
   15FTM     C735395   1.492  11.383   7.151  1.3436  0.6119  0.2792
   15FTM     C835396   1.484  11.522   7.092 -0.6242 -0.1466 -1.4151
   15FTM     C935397   1.338  11.571   7.117 -0.3186  0.2318 -0.2669
   15FTM    C1035398   1.223  11.501   7.039 -0.9828 -0.1752  1.0334
   15FTM    C1135399   1.596  11.150   7.170  1.1358  1.3214 -0.3381
   15FTM    C1235400   1.684  11.134   7.304 -0.4823  0.4932  1.3003
   16TPM     C135401   1.503  10.711   6.668 -0.9123 -0.2200 -0.2267
   16TPM     C235402   1.493  10.576   6.653 -0.5844 -0.3374  0.5525
   16TPM     C335403   1.392  10.516   6.737 -0.0776 -0.1898  1.2952
   16TPM     C435404   1.325  10.606   6.814 -0.0191  0.0401  1.0821
   16TPM     S135405   1.385  10.774   6.788 -0.6041  0.0884 -0.0820
   17BDD     C135406   0.989  10.439   6.919  0.5647 -0.2526 -0.2041
   17BDD     C235407   1.036  10.495   7.034  0.3480 -0.1786 -0.1493
   17BDD     C335408   1.161  10.567   7.016  0.1193  0.2425 -0.0603
   17BDD     C435409   1.206  10.566   6.887  0.1648  0.4834 -0.0486
   17BDD     S135410   1.096  10.473   6.779  0.4973  0.1998 -0.1479
   17BDD     C535411   0.970  10.484   7.165  0.3433 -0.4919 -0.1768
   17BDD     C635412   1.230  10.636   7.127 -0.1363  0.3905  0.0097
   17BDD     O135413   1.338  10.698   7.111 -0.3335  0.7536  0.0863
   17BDD     O235414   0.862  10.421   7.181  0.5405 -0.8547 -0.2534
   17BDD     C735415   1.163  10.625   7.258 -0.1409  0.0770 -0.0179
   17BDD     C835416   1.039  10.552   7.276  0.0878 -0.3440 -0.1067
   17BDD     C935417   0.994  10.554   7.405  0.0422 -0.5846 -0.1185
   17BDD     S235418   1.104  10.646   7.513 -0.2902 -0.3009 -0.0193
   17BDD    C1035419   1.211  10.681   7.373 -0.3576  0.1512  0.0370
   17BDD    C1135420   1.342  10.741   7.401 -0.3112 -0.3013 -0.7640
   17BDD    C1235421   1.466  10.676   7.453  0.5833 -1.2600  0.5676
   17BDD    C1335422   1.606  10.748   7.430 -0.3842  0.8695  0.4084
   17BDD    C1435423   1.709  10.720   7.543  1.3327 -0.4890  0.0303
   17BDD    C1535424   1.670  10.767   7.682  0.5106  0.1799  0.7587
   17BDD    C1635425   1.619  10.912   7.721  0.2142  0.9880 -1.0909
   17BDD    C1735426   1.469  10.528   7.444  0.2634 -0.6397  0.2807
   17BDD    C1835427   1.541  10.449   7.321 -0.5050  0.1651  1.0203
   17BDD    C1935428   0.886  10.485   7.487 -0.4288 -0.2059 -0.7017
   17BDD    C2035429   0.922  10.348   7.548  0.3697 -0.3898  0.8262
   17BDD    C2135430   1.025  10.347   7.659 -1.7561  0.6092 -0.8247
   17BDD    C2235431   1.159  10.299   7.613  0.8506  0.6466  1.1662
   17BDD    C2335432   1.254  10.338   7.709 -1.1621  1.1099  0.4361
   17BDD    C2435433   1.359  10.233   7.688  0.1354 -1.8057 -1.2549
   17BDD    C2535434   0.812  10.231   7.577  0.4746 -0.1367 -0.5288
   17BDD    C2635435   0.748  10.145   7.461 -0.7977 -0.8274 -0.9447
   18TPM     C135436   0.880  10.336   6.870 -0.0510  0.0180 -0.5498
   18TPM     C235437   0.909  10.203   6.860 -0.3855 -0.0184 -1.0945
   18TPM     C335438   0.796  10.122   6.824 -0.7563  0.3319 -0.7409
   18TPM     C435439   0.681  10.193   6.806 -0.7046  0.6355  0.0735
   18TPM     S135440   0.707  10.369   6.835 -0.1794  0.5012  0.4599
   19BDTP    C135441   0.179   9.940   6.516  0.2170  0.0267 -0.0497
   19BDTP    C235442   0.143   9.931   6.654  0.0157  0.2494 -0.0863
   19BDTP    C335443   0.226   9.976   6.756 -0.0090  0.1557 -0.0247
   19BDTP    C435444   0.350  10.033   6.721  0.1732 -0.1736  0.0780
   19BDTP    C535445   0.386  10.042   6.583  0.3745 -0.3965  0.1144
   19BDTP    C635446   0.303   9.997   6.481  0.3992 -0.3022  0.0529
   19BDTP    C735447   0.451  10.087   6.809  0.1869 -0.3273  0.1560
   19BDTP    C835448   0.561  10.135   6.745  0.3863 -0.6509  0.2484
   19BDTP    S135449   0.550  10.119   6.564  0.5846 -0.8063  0.2494
   19BDTP    C935450   0.077   9.887   6.428  0.2032  0.1805 -0.1278
   19BDTP   C1035451  -0.032   9.839   6.492  0.0041  0.5038 -0.2202
   19BDTP    S235452  -0.021   9.854   6.673 -0.1943  0.6596 -0.2211
   20FTM     S135453   0.267  10.026   7.039  0.1869 -0.2579  0.5647
   20FTM     C135454   0.122  10.091   7.125  0.1036  0.2738  0.0308
   20FTM     C235455   0.015  10.092   7.040  0.2325 -0.0587 -0.1413
   20FTM     C335456   0.039  10.044   6.908  0.3998 -0.7308  0.1254
   20FTM     C435457   0.168  10.004   6.890  0.3990 -0.9191  0.5140
   20FTM     F135458  -0.110  10.138   7.078  0.2067  0.2260 -0.5502
   20FTM     C535459   0.156  10.128   7.262 -1.1343 -0.2574  0.4171
   20FTM     C635460   0.139  10.032   7.383  1.1428  0.0010  0.3941
   20FTM     C735461   0.183   9.877   7.389 -0.6621  0.8119  0.1389
   20FTM     C835462   0.331   9.859   7.336  0.7009  0.1590  0.5717
   20FTM     C935463   0.395   9.707   7.327 -0.5968 -1.0415  1.5020
   20FTM    C1035464   0.474   9.642   7.436  0.2963 -0.4910 -0.2422
   20FTM    C1135465   0.164  10.129   7.498  0.9603 -0.1793  0.5627
   20FTM    C1235466   0.286  10.107   7.568 -1.0254 -0.8711  0.2856
   21FTM     S135467   0.307   9.844   6.248 -0.6210  0.3849 -0.4416
   21FTM     C135468   0.369   9.919   6.097 -0.9093  0.7771 -0.3677
   21FTM     C235469   0.415  10.045   6.123 -0.6561  0.6282 -0.0858
   21FTM     C335470   0.405  10.088   6.259 -0.2327  0.2100  0.0855
   21FTM     C435471   0.349   9.994   6.340 -0.1593  0.0328 -0.0701
   21FTM     F135472   0.469  10.127   6.025 -0.7926  0.8621  0.0337
   21FTM     C535473   0.384   9.871   5.946  0.6375  0.2238 -0.4073
   21FTM     C635474   0.505   9.815   5.876 -0.0375  0.9581 -0.4739
   21FTM     C735475   0.500   9.854   5.732  0.8024  1.5991 -0.6155
   21FTM     C835476   0.633   9.902   5.649 -0.8927  0.5367  0.4228
   21FTM     C935477   0.712  10.021   5.711  0.4869 -1.1598 -0.4143
   21FTM    C1035478   0.765  10.122   5.598  0.1536  0.6391 -0.2077
   21FTM    C1135479   0.493   9.666   5.918 -0.1250 -0.5344 -0.2797
   21FTM    C1235480   0.537   9.560   5.819 -0.4299 -1.6031 -0.3995
   22TPM     C135481  -0.170   9.797   6.471  0.5597 -0.3301 -0.3214
   22TPM     C235482  -0.247   9.729   6.561  0.6790 -0.0799 -0.0293
   22TPM     C335483  -0.369   9.677   6.506  0.3543  0.2139  0.4059
   22TPM     C435484  -0.386   9.705   6.374 -0.0129  0.1876  0.4457
   22TPM     S135485  -0.248   9.800   6.308  0.0237 -0.2133 -0.0674
   23BDD     C135486  -0.603   9.492   6.124 -0.1797 -0.3983  0.0020
   23BDD     C235487  -0.690   9.537   6.219 -0.1786 -0.5021  0.0532
   23BDD     C335488  -0.629   9.626   6.316 -0.1500 -0.7048  0.2218
   23BDD     C435489  -0.496   9.647   6.294 -0.1299 -0.7522  0.2970
   23BDD     S135490  -0.438   9.557   6.150 -0.1452 -0.5467  0.1618
   23BDD     C535491  -0.834   9.501   6.224 -0.2036 -0.4191 -0.0513
   23BDD     C635492  -0.705   9.687   6.428 -0.1440 -0.8442  0.3024
   23BDD     O135493  -0.652   9.763   6.511 -0.1194 -1.0190  0.4480
   23BDD     O235494  -0.886   9.424   6.140 -0.2284 -0.2446 -0.1968
   23BDD     C735495  -0.848   9.650   6.432 -0.1690 -0.7610  0.1981
   23BDD     C835496  -0.909   9.561   6.335 -0.1976 -0.5584  0.0293
   23BDD     C935497  -1.043   9.540   6.357 -0.2177 -0.5109 -0.0457
   23BDD     S235498  -1.101   9.630   6.501 -0.2026 -0.7168  0.0895
   23BDD    C1035499  -0.935   9.696   6.527 -0.1678 -0.8652  0.2493
   23BDD    C1135500  -0.927   9.804   6.649 -0.1627  0.7148  0.4551
   23BDD    C1235501  -0.939   9.972   6.653 -0.1518  0.2873  1.5059
   23BDD    C1335502  -1.016  10.061   6.555  1.1802  1.0805 -0.7917
   23BDD    C1435503  -1.030  10.078   6.408  0.5282 -2.2434 -0.0074
   23BDD    C1535504  -1.049   9.966   6.313  0.2087  1.5617 -0.7239
   23BDD    C1635505  -1.120   9.977   6.182  0.2192  0.1140  0.5888
   23BDD    C1735506  -0.957  10.027   6.786  1.3472 -0.7243 -0.5359
   23BDD    C1835507  -1.097  10.018   6.835 -0.1856  0.6271 -0.6714
   23BDD    C1935508  -1.147   9.445   6.306  0.5231  0.1527  2.0049
   23BDD    C2035509  -1.304   9.471   6.314  0.7473 -0.6504  1.0144
   23BDD    C2135510  -1.329   9.611   6.257 -0.7879 -0.3760  0.2040
   23BDD    C2235511  -1.442   9.698   6.321  1.4541  1.7138  0.3097
   23BDD    C2335512  -1.438   9.728   6.466 -0.0863  0.2787  0.2350
   23BDD    C2435513  -1.407   9.873   6.514  1.3404  0.2797 -0.1445
   23BDD    C2535514  -1.386   9.352   6.258 -0.8448 -0.0583  0.5643
   23BDD    C2635515  -1.522   9.365   6.312 -0.6222 -0.1539  2.5623
   24TPM     C135516  -0.613   9.404   6.008  0.4746 -0.2655  0.2211
   24TPM     C235517  -0.526   9.300   6.003  0.7110 -0.0613  0.0733
   24TPM     C335518  -0.559   9.201   5.904  0.8795 -0.0458  0.0006
   24TPM     C435519  -0.672   9.230   5.833  0.7716 -0.2378  0.0927
   24TPM     S135520  -0.746   9.386   5.887  0.4464 -0.4549  0.2802
   25BDTP    C135521  -0.973   8.900   5.389 -0.2394  0.0589 -0.2147
   25BDTP    C235522  -0.911   8.800   5.469 -0.2508  0.0312 -0.2404
   25BDTP    C335523  -0.832   8.830   5.579 -0.2918 -0.0067 -0.2000
   25BDTP    C435524  -0.812   8.966   5.611 -0.3235 -0.0184 -0.1312
   25BDTP    C535525  -0.874   9.066   5.530 -0.3123  0.0093 -0.1055
   25BDTP    C635526  -0.953   9.035   5.420 -0.2715  0.0472 -0.1458
   25BDTP    C735527  -0.734   9.022   5.719 -0.3679 -0.0559 -0.0797
   25BDTP    C835528  -0.734   9.157   5.724 -0.3903 -0.0579 -0.0174
   25BDTP    S135529  -0.833   9.233   5.592 -0.3586 -0.0124 -0.0154
   25BDTP    C935530  -1.051   8.844   5.280 -0.1953  0.0963 -0.2663
   25BDTP   C1035531  -1.051   8.709   5.275 -0.1729  0.0982 -0.3285
   25BDTP    S235532  -0.952   8.633   5.407 -0.2044  0.0531 -0.3306
   26FTM     S135533  -0.576   8.749   5.677  0.4566  0.0376  0.1622
   26FTM     C135534  -0.572   8.577   5.731  0.0669 -0.2055 -0.5517
   26FTM     C235535  -0.697   8.523   5.725 -0.1678  0.2847 -0.2178
   26FTM     C335536  -0.801   8.610   5.679 -0.0613  0.8657  0.5939
   26FTM     C435537  -0.754   8.735   5.649  0.2653  0.8183  0.8914
   26FTM     F135538  -0.724   8.392   5.761 -0.4928  0.2370 -0.6274
   26FTM     C535539  -0.462   8.502   5.796 -0.4979 -0.7281 -0.9710
   26FTM     C635540  -0.323   8.550   5.793  0.0083  0.5442 -1.7703
   26FTM     C735541  -0.299   8.679   5.884  0.2428  0.1980  0.4831
   26FTM     C835542  -0.401   8.789   5.927 -1.3290 -0.7845 -0.1849
   26FTM     C935543  -0.333   8.860   6.042  0.9158  1.5209 -1.0948
   26FTM    C1035544  -0.454   8.909   6.118 -1.0302  0.2223 -0.3037
   26FTM    C1135545  -0.213   8.458   5.791 -0.8553  1.2016 -0.3046
   26FTM    C1235546  -0.178   8.345   5.908  1.1579  0.4273  0.8999
   27FTM     S135547  -1.102   9.156   5.193 -0.3051  0.2745  0.4865
   27FTM     C135548  -1.249   9.247   5.244 -0.7552 -0.5295  0.6451
   27FTM     C235549  -1.252   9.257   5.380 -0.9558 -1.0226  0.6802
   27FTM     C335550  -1.143   9.196   5.450 -0.7763 -0.8097  0.5881
   27FTM     C435551  -1.054   9.138   5.366 -0.4269 -0.1320  0.4791
   27FTM     F135552  -1.355   9.321   5.448 -1.3142 -1.6952  0.7976
   27FTM     C535553  -1.335   9.285   5.130  1.7423  0.4126 -0.9760
   27FTM     C635554  -1.342   9.437   5.095  0.5214 -0.2548 -0.4554
   27FTM     C735555  -1.208   9.471   5.043 -0.1002  0.5898  1.4382
   27FTM     C835556  -1.189   9.544   4.911 -0.7969 -0.8647 -0.3465
   27FTM     C935557  -1.271   9.499   4.790 -0.2293  1.2285 -1.0611
   27FTM    C1035558  -1.237   9.575   4.673 -0.0288 -0.4009  1.0104
   27FTM    C1135559  -1.421   9.524   5.208 -0.8001  0.4137  0.6410
   27FTM    C1235560  -1.444   9.663   5.139  1.9700 -0.5802 -0.4736
   28TPM     C135561  -1.105   8.637   5.159  0.2342 -0.4181  0.1500
   28TPM     C235562  -1.134   8.504   5.152  0.9382 -0.5498 -0.5150
   28TPM     C335563  -1.219   8.470   5.040  0.7524 -0.3638 -0.4324
   28TPM     C435564  -1.254   8.577   4.963 -0.0935 -0.0905  0.2960
   28TPM     S135565  -1.182   8.730   5.026 -0.7257 -0.0465  0.9386
   29BDD     C135566  -1.423   8.504   4.620  0.1434 -0.1229  0.0266
   29BDD     C235567  -1.491   8.609   4.674  0.2115 -0.1264  0.1175
   29BDD     C335568  -1.440   8.649   4.804  0.2956 -0.2122  0.1112
   29BDD     C435569  -1.334   8.574   4.847  0.2908 -0.2736  0.0153
   29BDD     S135570  -1.291   8.447   4.727  0.1807 -0.2272 -0.0733
   29BDD     C535571  -1.605   8.677   4.609  0.2010 -0.0508  0.2135
   29BDD     C635572  -1.498   8.761   4.882  0.3777 -0.2313  0.2003
   29BDD     O135573  -1.454   8.795   4.994  0.4504 -0.3057  0.1949
   29BDD     O235574  -1.649   8.642   4.497  0.1283  0.0234  0.2189
   29BDD     C735575  -1.612   8.828   4.817  0.3676 -0.1557  0.2964
   29BDD     C835576  -1.663   8.788   4.687  0.2835 -0.0694  0.3027
   29BDD     C935577  -1.769   8.864   4.644  0.2882 -0.0083  0.3983
   29BDD     S235578  -1.813   8.990   4.764  0.3982 -0.0547  0.4871
   29BDD    C1035579  -1.680   8.934   4.871  0.4356 -0.1588  0.3873
   29BDD    C1135580  -1.670   9.006   4.998  0.0122 -0.2614 -0.8419
   29BDD    C1235581  -1.671   8.927   5.136 -0.7621 -1.8162 -0.5076
   29BDD    C1335582  -1.618   9.040   5.234  1.5515 -1.1241 -0.5696
   29BDD    C1435583  -1.530   8.992   5.350  0.1420  0.2433 -0.0265
   29BDD    C1535584  -1.510   9.072   5.480  0.1786 -1.6450  0.9044
   29BDD    C1635585  -1.435   9.017   5.590  0.6755 -0.1728 -0.5441
   29BDD    C1735586  -1.814   8.871   5.174  0.4003 -0.0048 -1.2550
   29BDD    C1835587  -1.861   8.811   5.309  1.0961  0.3397  0.4194
   29BDD    C1935588  -1.857   8.850   4.512  1.1873 -1.0716 -0.8875
   29BDD    C2035589  -1.802   8.919   4.380 -0.4810 -1.0454 -0.6044
   29BDD    C2135590  -1.899   8.899   4.259 -0.3669  0.3257  0.1167
   29BDD    C2235591  -2.016   9.015   4.251  0.4097  1.6417  0.8330
   29BDD    C2335592  -2.134   9.046   4.338  0.9165 -1.5339 -0.9956
   29BDD    C2435593  -2.154   9.043   4.498  0.4144 -1.0726  0.8202
   29BDD    C2535594  -1.747   9.061   4.405  0.0031 -0.3639  0.7555
   29BDD    C2635595  -1.633   9.110   4.316  0.3537 -0.5359 -0.5283
   30TPM     C135596  -1.434   8.430   4.494  0.6786  0.2963 -0.2152
   30TPM     C235597  -1.556   8.372   4.474  0.3316  1.2171 -0.8743
   30TPM     C335598  -1.550   8.246   4.405 -0.3052  1.4067 -1.2927
   30TPM     C435599  -1.424   8.207   4.373 -0.4442  0.6306 -0.9525
   30TPM     S135600  -1.301   8.328   4.427  0.2245 -0.4081 -0.0707
   31BDTP    C135601  -1.331   7.611   4.221 -0.3741 -0.0663 -0.0404
   31BDTP    C235602  -1.276   7.620   4.352 -0.0923  0.2501 -0.1774
   31BDTP    C335603  -1.274   7.738   4.425 -0.1242  0.3786 -0.3827
   31BDTP    C435604  -1.330   7.853   4.367 -0.4492  0.1861 -0.4565
   31BDTP    C535605  -1.385   7.844   4.236 -0.7310 -0.1304 -0.3195
   31BDTP    C635606  -1.387   7.726   4.163 -0.6991 -0.2587 -0.1143
   31BDTP    C735607  -1.340   7.986   4.423 -0.5447  0.2669 -0.6626
   31BDTP    C835608  -1.399   8.077   4.341 -0.8802  0.0296 -0.6866
   31BDTP    S135609  -1.451   8.006   4.182 -1.1222 -0.3300 -0.4517
   31BDTP    C935610  -1.321   7.478   4.165 -0.2782 -0.1471  0.1656
   31BDTP   C1035611  -1.262   7.388   4.247  0.0570  0.0902  0.1897
   31BDTP    S235612  -1.210   7.458   4.406  0.2991  0.4497 -0.0453
   32FTM     S135613  -1.015   7.728   4.573  0.1020  0.2408  0.4138
   32FTM     C135614  -1.038   7.699   4.749  0.1181  0.2291  0.4141
   32FTM     C235615  -1.171   7.697   4.779  0.1063 -0.2462  0.3468
   32FTM     C335616  -1.261   7.717   4.669  0.0842 -0.6208  0.2924
   32FTM     C435617  -1.194   7.735   4.551  0.0793 -0.4264  0.3189
   32FTM     F135618  -1.219   7.677   4.907  0.1144 -0.3699  0.3307
   32FTM     C535619  -0.903   7.664   4.803  0.5846  0.4074  0.2548
   32FTM     C635620  -0.854   7.517   4.776  0.4482 -0.3067  0.8925
   32FTM     C735621  -0.736   7.518   4.676  0.5993  0.3631 -0.1546
   32FTM     C835622  -0.731   7.386   4.604 -0.6508 -0.4323 -0.3533
   32FTM     C935623  -0.589   7.331   4.561 -0.7741  0.5744  0.4489
   32FTM    C1035624  -0.490   7.292   4.675  0.7059  0.4397  0.0629
   32FTM    C1135625  -0.840   7.425   4.896 -0.3262 -0.6171 -0.8652
   32FTM    C1235626  -0.964   7.377   4.959 -0.3592 -0.3292  0.4103
   33FTM     S135627  -1.521   7.602   3.938  0.0919 -0.4635 -0.0759
   33FTM     C135628  -1.494   7.678   3.777 -0.8520 -0.1617 -0.1035
   33FTM     C235629  -1.406   7.782   3.790 -1.7447  0.6429 -0.2221
   33FTM     C335630  -1.356   7.806   3.922 -1.7490  1.0632 -0.2971
   33FTM     C435631  -1.407   7.719   4.013 -0.8295  0.5645 -0.2335
   33FTM     F135632  -1.366   7.859   3.682 -2.6112  1.0462 -0.2701
   33FTM     C535633  -1.576   7.616   3.669  1.2931 -0.5421  0.2145
   33FTM     C635634  -1.507   7.534   3.568  0.7522 -1.2700  1.7414
   33FTM     C735635  -1.562   7.417   3.484  0.0373  0.3955 -1.5133
   33FTM     C835636  -1.565   7.288   3.586  0.4954  1.6060 -0.0023
   33FTM     C935637  -1.565   7.150   3.502 -1.1353 -1.7194 -1.7460
   33FTM    C1035638  -1.583   7.165   3.350 -0.0506 -1.4717  0.3609
   33FTM    C1135639  -1.407   7.609   3.480  0.3879 -0.0121 -1.2905
   33FTM    C1235640  -1.436   7.693   3.373 -0.6536 -0.9084  0.4062
   34TPM     C135641  -1.252   7.242   4.237 -0.4438  0.2141  0.3247
   34TPM     C235642  -1.177   7.179   4.142 -0.7412  0.1630  0.1191
   34TPM     C335643  -1.144   7.043   4.176 -0.7393  0.1413  0.0310
   34TPM     C435644  -1.195   7.002   4.297 -0.4399  0.1762  0.1698
   34TPM     S135645  -1.288   7.134   4.377 -0.1355  0.2392  0.4243
   35BDD     C135646  -1.319   6.667   4.454  0.4305 -0.0424  0.7673
   35BDD     C235647  -1.199   6.638   4.396  0.3581  0.0392  0.5765
   35BDD     C335648  -1.132   6.754   4.341  0.1233  0.0627  0.3381
   35BDD     C435649  -1.202   6.870   4.358  0.0199 -0.0017  0.3505
   35BDD     S135650  -1.357   6.842   4.444  0.2096 -0.0958  0.6614
   35BDD     C535651  -1.141   6.502   4.389  0.5023  0.0988  0.6067
   35BDD     C635652  -1.001   6.746   4.273  0.0103  0.1478  0.1067
   35BDD     O135653  -0.943   6.847   4.225 -0.1922  0.1680 -0.0989
   35BDD     O235654  -1.198   6.402   4.436  0.7048  0.0787  0.8123
   35BDD     C735655  -0.943   6.611   4.266  0.1545  0.2073  0.1367
   35BDD     C835656  -1.010   6.494   4.321  0.3891  0.1839  0.3752
   35BDD     C935657  -0.939   6.378   4.304  0.4926  0.2482  0.3630
   35BDD     S235658  -0.785   6.407   4.217  0.3029  0.3422  0.0518
   35BDD    C1035659  -0.823   6.582   4.207  0.0823  0.2890 -0.0539
   35BDD    C1135660  -0.716   6.654   4.118  0.5616 -0.7880  0.6441
   35BDD    C1235661  -0.669   6.580   3.989 -0.0963  0.7841 -0.2837
   35BDD    C1335662  -0.564   6.666   3.915 -0.3363  0.2696  0.8324
   35BDD    C1435663  -0.421   6.670   3.987 -0.4359 -1.7364 -2.1651
   35BDD    C1535664  -0.329   6.783   3.949  0.2839  0.3360  0.4903
   35BDD    C1635665  -0.356   6.927   3.914  0.9331 -0.1534  0.3077
   35BDD    C1735666  -0.779   6.525   3.898  0.6540  0.9489  0.5405
   35BDD    C1835667  -0.765   6.436   3.772  1.0975  0.7311  0.8580
   35BDD    C1935668  -0.959   6.232   4.336  0.9815 -0.0871  0.7784
   35BDD    C2035669  -1.017   6.126   4.241  0.5016 -0.0017  0.2662
   35BDD    C2135670  -1.110   6.199   4.167  0.5462 -0.3719  0.5165
   35BDD    C2235671  -1.191   6.108   4.078 -0.0401 -0.7317 -1.0270
   35BDD    C2335672  -1.286   6.187   3.974 -0.3794  0.2414 -0.9137
   35BDD    C2435673  -1.432   6.182   4.021 -0.6327 -0.3952  0.3242
   35BDD    C2535674  -1.077   6.018   4.333  0.3181  1.6505  0.6126
   35BDD    C2635675  -0.983   5.934   4.414 -0.1950 -0.0693  1.8113
   36TPM     C135676  -1.418   6.604   4.529  0.7130 -0.1808  0.9313
   36TPM     C235677  -1.519   6.674   4.589  0.1330 -0.0789 -0.1187
   36TPM     C335678  -1.634   6.594   4.621 -0.5338  0.1366 -1.7742
   36TPM     C435679  -1.622   6.463   4.586 -0.4625  0.1994 -1.9865
   36TPM     S135680  -1.462   6.430   4.509  0.4602 -0.0108 -0.0973
   37BDTP    C135681  -1.959   5.961   4.748  0.1931 -0.0037 -0.0255
   37BDTP    C235682  -2.060   6.049   4.701  0.1962 -0.0405 -0.1016
   37BDTP    C335683  -2.033   6.176   4.653  0.1864 -0.0300 -0.0796
   37BDTP    C435684  -1.900   6.219   4.651  0.1721  0.0192  0.0219
   37BDTP    C535685  -1.798   6.131   4.698  0.1688  0.0560  0.0981
   37BDTP    C635686  -1.825   6.004   4.746  0.1790  0.0457  0.0762
   37BDTP    C735687  -1.847   6.346   4.605  0.1597  0.0391  0.0630
   37BDTP    C835688  -1.713   6.358   4.616  0.1473  0.0885  0.1649
   37BDTP    S135689  -1.633   6.210   4.685  0.1502  0.1168  0.2232
   37BDTP    C935690  -2.011   5.834   4.793  0.2058 -0.0234 -0.0664
   37BDTP   C1035691  -2.145   5.822   4.783  0.2179 -0.0728 -0.1683
   37BDTP    S235692  -2.225   5.970   4.714  0.2155 -0.1012 -0.2266
   38FTM     S135693  -2.164   6.353   4.463 -0.2314 -0.8806 -0.0745
   38FTM     C135694  -2.327   6.410   4.514 -0.0120  0.6950 -1.0000
   38FTM     C235695  -2.358   6.360   4.636 -0.7126  1.9575 -0.6264
   38FTM     C335696  -2.258   6.277   4.697 -1.4451  1.7815  0.3780
   38FTM     C435697  -2.148   6.262   4.619 -1.3006  0.3365  0.7868
   38FTM     F135698  -2.478   6.387   4.701 -0.7324  3.3480 -1.1719
   38FTM     C535699  -2.432   6.477   4.434  0.0054 -0.0188  0.9227
   38FTM     C635700  -2.547   6.401   4.374  0.2893  1.0739 -1.2598
   38FTM     C735701  -2.541   6.244   4.340 -1.2311 -0.3489  0.4774
   38FTM     C835702  -2.480   6.221   4.197  1.1882  0.5061  0.7886
   38FTM     C935703  -2.379   6.099   4.196  1.0379  0.8039  1.0347
   38FTM    C1035704  -2.231   6.127   4.182 -0.5150 -0.5910  0.8843
   38FTM    C1135705  -2.654   6.486   4.310 -2.0758  0.2919  0.1178
   38FTM    C1235706  -2.733   6.614   4.357 -1.0541  0.6362  0.7989
   39FTM     S135707  -1.699   5.736   4.820 -0.0038 -0.3699  0.1904
   39FTM     C135708  -1.580   5.748   4.955  0.6777  0.4485 -0.4613
   39FTM     C235709  -1.570   5.878   4.996  0.7226  0.6685 -1.1379
   39FTM     C335710  -1.652   5.973   4.927  0.2415  0.2246 -1.1896
   39FTM     C435711  -1.728   5.914   4.830 -0.1859 -0.3538 -0.5312
   39FTM     F135712  -1.486   5.918   5.099  1.2019  1.2847 -1.7508
   39FTM     C535713  -1.539   5.615   5.028 -0.6820  1.0771  0.8563
   39FTM     C635714  -1.547   5.599   5.182 -0.4425  1.0928 -0.5122
   39FTM     C735715  -1.474   5.487   5.261  0.3826  0.4564  0.8363
   39FTM     C835716  -1.443   5.360   5.172  1.7342 -0.0797  0.4356
   39FTM     C935717  -1.575   5.282   5.140  0.9991 -0.5620 -0.6720
   39FTM    C1035718  -1.567   5.177   5.019 -0.4361 -0.1909 -0.7285
   39FTM    C1135719  -1.671   5.664   5.238  0.4090  0.1805 -0.1840
   39FTM    C1235720  -1.662   5.730   5.379  0.4627  0.2723 -0.0467
   40TPM     C135721  -2.236   5.717   4.804  0.4214 -0.1877  0.2693
   40TPM     C235722  -2.358   5.728   4.864  0.5300 -0.1285  0.4798
   40TPM     C335723  -2.425   5.602   4.884  0.5534 -0.1068  0.7012
   40TPM     C435724  -2.354   5.495   4.839  0.4626 -0.1491  0.6591
   40TPM     S135725  -2.196   5.545   4.768  0.3398 -0.2202  0.3346
   41BDD     C135726  -2.394   5.139   5.003 -0.2451 -0.0488 -0.2279
   41BDD     C235727  -2.510   5.158   4.933 -0.2475 -0.1464 -0.2517
   41BDD     C335728  -2.514   5.286   4.864 -0.2668 -0.2253 -0.3964
   41BDD     C435729  -2.402   5.362   4.882 -0.2788 -0.1868 -0.4811
   41BDD     S135730  -2.283   5.279   4.987 -0.2673 -0.0492 -0.3852
   41BDD     C535731  -2.620   5.060   4.928 -0.2317 -0.1705 -0.1420
   41BDD     C635732  -2.630   5.328   4.783 -0.2723 -0.3359 -0.4455
   41BDD     O135733  -2.635   5.438   4.723 -0.2890 -0.4039 -0.5703
   41BDD     O235734  -2.616   4.950   4.987 -0.2151 -0.1024 -0.0173
   41BDD     C735735  -2.741   5.230   4.777 -0.2568 -0.3600 -0.3359
   41BDD     C835736  -2.736   5.102   4.846 -0.2375 -0.2812 -0.1912
   41BDD     C935737  -2.848   5.026   4.828 -0.2253 -0.3197 -0.1066
   41BDD     S235738  -2.968   5.109   4.723 -0.2370 -0.4572 -0.2023
   41BDD    C1035739  -2.857   5.249   4.707 -0.2592 -0.4576 -0.3595
   41BDD    C1135740  -2.899   5.348   4.602  1.5229 -1.1882 -0.7957
   41BDD    C1235741  -3.010   5.448   4.640  0.5456  0.8960  0.0781
   41BDD    C1335742  -3.134   5.378   4.686  1.1118  0.2213 -0.0813
   41BDD    C1435743  -3.166   5.444   4.822  0.9161 -0.4415  0.9789
   41BDD    C1535744  -3.229   5.357   4.934  1.2251  0.0106 -0.2803
   41BDD    C1635745  -3.163   5.232   4.970  0.5967  0.8284 -0.2512
   41BDD    C1735746  -3.024   5.581   4.556  0.7777 -0.0241  0.9571
   41BDD    C1835747  -2.879   5.640   4.532  0.7491 -0.3538  0.1267
   41BDD    C1935748  -2.883   4.885   4.862  0.4096 -0.2652  0.7581
   41BDD    C2035749  -3.020   4.849   4.908 -0.2132  1.5943 -0.1261
   41BDD    C2135750  -3.033   4.688   4.900  0.5422 -0.2370  0.4932
   41BDD    C2235751  -3.071   4.653   4.755  0.7672 -0.7018 -0.5542
   41BDD    C2335752  -2.976   4.575   4.670  0.4285  0.1763 -0.5134
   41BDD    C2435753  -3.034   4.600   4.528  0.4504  1.8647 -0.2048
   41BDD    C2535754  -3.012   4.896   5.050 -0.7279 -1.2207 -1.1165
   41BDD    C2635755  -3.137   4.938   5.130  1.4650 -0.2256 -1.6862
   42TPM     C135756  -2.320   5.024   5.070  0.2838  0.4306  0.0224
   42TPM     C235757  -2.339   5.024   5.205  0.3600  0.2899  0.0330
   42TPM     C335758  -2.244   4.943   5.276  0.0541 -0.2421 -0.1515
   42TPM     C435759  -2.153   4.881   5.196 -0.2556 -0.5073 -0.3028
   42TPM     S135760  -2.180   4.921   5.022 -0.1837 -0.1021 -0.2235
   43BDTP    C135761  -1.581   4.680   5.358 -0.1600 -0.0091  0.0999
   43BDTP    C235762  -1.589   4.630   5.224  0.0799  0.0618  0.0577
   43BDTP    C335763  -1.702   4.647   5.145  0.1295 -0.1124 -0.0499
   43BDTP    C435764  -1.812   4.715   5.200 -0.0670 -0.3688 -0.1192
   43BDTP    C535765  -1.804   4.765   5.333 -0.3073 -0.4398 -0.0770
   43BDTP    C635766  -1.691   4.748   5.412 -0.3567 -0.2653  0.0306
   43BDTP    C735767  -1.939   4.744   5.137 -0.0609 -0.5829 -0.2335
   43BDTP    C835768  -2.026   4.813   5.216 -0.2820 -0.8082 -0.2786
   43BDTP    S135769  -1.958   4.850   5.380 -0.5291 -0.7808 -0.1825
   43BDTP    C935770  -1.454   4.650   5.421 -0.1662  0.2052  0.2141
   43BDTP   C1035771  -1.367   4.582   5.342  0.0548  0.4303  0.2592
   43BDTP    S235772  -1.435   4.545   5.177  0.3017  0.4031  0.1632
   44FTM     S135773  -1.556   4.704   4.903 -0.0574  0.3939 -0.2283
   44FTM     C135774  -1.607   4.596   4.768 -0.1326 -0.2724  0.3217
   44FTM     C235775  -1.724   4.534   4.800  0.1593 -0.5300  0.9071
   44FTM     C335776  -1.779   4.565   4.929  0.4525 -0.2316  0.9620
   44FTM     C435777  -1.702   4.655   4.997  0.3825  0.2704  0.4004
   44FTM     F135778  -1.787   4.444   4.716  0.1788 -1.0508  1.4279
   44FTM     C535779  -1.533   4.592   4.631 -0.4969 -0.3498 -0.4968
   44FTM     C635780  -1.383   4.547   4.634 -0.3637  0.8920  0.8074
   44FTM     C735781  -1.368   4.441   4.751 -0.9004 -0.3471  0.6082
   44FTM     C835782  -1.263   4.508   4.838 -0.4912 -0.3329  0.6202
   44FTM     C935783  -1.199   4.386   4.902  0.5889 -1.0172 -0.2314
   44FTM    C1035784  -1.108   4.423   5.016 -1.2083  0.4450  0.9449
   44FTM    C1135785  -1.317   4.519   4.490  0.4296  1.4208 -0.7325
   44FTM    C1235786  -1.371   4.399   4.421 -1.0183 -0.6792  1.1620
   45FTM     S135787  -1.694   4.960   5.635  0.3627 -0.0934  0.1126
   45FTM     C135788  -1.683   4.882   5.797  0.0268  0.2224  0.2880
   45FTM     C235789  -1.671   4.747   5.783  0.1960  0.2071  0.5715
   45FTM     C335790  -1.670   4.697   5.649  0.5879 -0.0451  0.6673
   45FTM     C435791  -1.681   4.797   5.557  0.7223 -0.2289  0.4499
   45FTM     F135792  -1.661   4.661   5.892  0.0064  0.4205  0.7612
   45FTM     C535793  -1.689   4.990   5.907  0.0017  1.5497  0.4316
   45FTM     C635794  -1.596   4.971   6.024  0.3009 -0.9211 -0.1732
   45FTM     C735795  -1.556   4.845   6.100  0.6176  0.1423 -0.2803
   45FTM     C835796  -1.413   4.786   6.111  0.2091  0.5042 -0.3120
   45FTM     C935797  -1.336   4.732   5.989  0.8687  0.6420 -0.4215
   45FTM    C1035798  -1.347   4.805   5.865  0.9965 -0.8544  0.1449
   45FTM    C1135799  -1.581   5.097   6.108  0.4679 -0.8734  0.5835
   45FTM    C1235800  -1.682   5.188   6.169 -0.6589 -0.7792 -0.0297
   46TPM     C135801  -1.228   4.540   5.374  0.9153  1.0708 -0.9531
   46TPM     C235802  -1.162   4.422   5.365  0.8035  1.0340 -1.2932
   46TPM     C335803  -1.042   4.415   5.444  0.5810  0.5481 -0.9859
   46TPM     C435804  -1.017   4.530   5.515  0.5238  0.2146 -0.4112
   46TPM     S135805  -1.144   4.655   5.486  0.7473  0.4902 -0.2120
   47BDD     C135806  -0.701   4.537   5.739 -0.0271 -0.2529 -0.2765
   47BDD     C235807  -0.662   4.588   5.619 -0.0308 -0.1752 -0.2445
   47BDD     C335808  -0.766   4.586   5.518 -0.1299  0.1767 -0.1516
   47BDD     C435809  -0.884   4.533   5.563 -0.2002  0.3625 -0.1140
   47BDD     S135810  -0.872   4.482   5.734 -0.1471  0.1093 -0.1924
   47BDD     C535811  -0.527   4.641   5.592  0.0565 -0.4220 -0.2981
   47BDD     C635812  -0.746   4.637   5.381 -0.1514  0.3160 -0.1035
   47BDD     O135813  -0.836   4.635   5.294 -0.2367  0.6196 -0.0234
   47BDD     O235814  -0.436   4.643   5.679  0.1421 -0.7255 -0.3784
   47BDD     C735815  -0.610   4.690   5.354 -0.0641  0.0695 -0.1571
   47BDD     C835816  -0.506   4.692   5.455  0.0350 -0.2825 -0.2501
   47BDD     C935817  -0.388   4.746   5.410  0.1056 -0.4684 -0.2874
   47BDD     S235818  -0.400   4.797   5.239  0.0523 -0.2152 -0.2089
   47BDD    C1035819  -0.571   4.742   5.234 -0.0677  0.1470 -0.1251
   47BDD    C1135820  -0.619   4.747   5.082 -0.8148  0.6043  0.3438
   47BDD    C1235821  -0.707   4.856   5.020 -0.8073 -0.3089  0.8673
   47BDD    C1335822  -0.831   4.799   4.984  0.7194 -0.8076 -1.2578
   47BDD    C1435823  -0.921   4.894   4.898 -0.0394 -0.2388 -0.2347
   47BDD    C1535824  -1.052   4.966   4.931 -0.1809  1.8522 -0.5146
   47BDD    C1635825  -1.168   4.869   4.993 -0.5527 -0.5913 -0.8217
   47BDD    C1735826  -0.707   5.001   5.068 -0.8605 -0.3288 -0.2783
   47BDD    C1835827  -0.786   5.050   5.183  0.8435  1.8853 -0.7935
   47BDD    C1935828  -0.251   4.802   5.466  0.0059  0.8231 -0.5021
   47BDD    C2035829  -0.124   4.740   5.417 -0.7011  0.5260 -1.0769
   47BDD    C2135830  -0.007   4.833   5.454 -0.9089 -0.0069 -0.5353
   47BDD    C2235831   0.009   4.954   5.370 -0.3561 -0.1620  0.8953
   47BDD    C2335832   0.100   5.070   5.440  0.0243  0.3327  0.5165
   47BDD    C2435833   0.119   5.199   5.371  0.5851  0.4604 -1.0431
   47BDD    C2535834  -0.120   4.598   5.476  0.3866  0.5855  2.0787
   47BDD    C2635835  -0.014   4.490   5.428 -1.0834 -0.4380  0.1226
   48TPM     C135836  -0.647   4.504   5.864 -0.2782  0.6393 -0.6715
   48TPM     C235837  -0.702   4.395   5.925 -0.3853  0.2034 -1.5233
   48TPM     C335838  -0.615   4.332   6.021 -0.7529 -0.1346 -1.4064
   48TPM     C435839  -0.494   4.394   6.034 -0.9252  0.0440 -0.4657
   48TPM     S135840  -0.480   4.536   5.924 -0.6348  0.6572  0.3518
   49BDTP    C135841  -0.172   4.188   6.531 -0.4911  0.1804  0.7398
   49BDTP    C235842  -0.106   4.310   6.497 -0.1998 -0.1172  0.2009
   49BDTP    C335843  -0.143   4.387   6.388 -0.0648 -0.4690 -0.0980
   49BDTP    C435844  -0.249   4.343   6.308 -0.2239 -0.5311  0.1454
   49BDTP    C535845  -0.315   4.221   6.341 -0.5150 -0.2334  0.6846
   49BDTP    C635846  -0.279   4.143   6.450 -0.6504  0.1183  0.9833
   49BDTP    C735847  -0.305   4.406   6.190 -0.1303 -0.8714 -0.0840
   49BDTP    C835848  -0.408   4.338   6.134 -0.3347 -0.8442  0.2527
   49BDTP    S135849  -0.449   4.185   6.222 -0.6742 -0.3837  0.9077
   49BDTP    C935850  -0.117   4.125   6.649 -0.5846  0.5207  0.9692
   49BDTP   C1035851  -0.014   4.192   6.705 -0.3803  0.4934  0.6325
   49BDTP    S235852   0.027   4.346   6.616 -0.0405  0.0330 -0.0223
   50FTM     S135853   0.002   4.595   6.206  0.5505 -0.4253 -0.2639
   50FTM     C135854   0.027   4.747   6.300  0.2103 -0.2276 -0.4893
   50FTM     C235855  -0.011   4.728   6.430 -0.1383  0.0057 -0.5558
   50FTM     C335856  -0.061   4.598   6.463 -0.1612  0.0440 -0.4385
   50FTM     C435857  -0.061   4.514   6.355  0.1807 -0.1669 -0.2766
   50FTM     F135858  -0.004   4.828   6.526 -0.4570  0.1984 -0.7269
   50FTM     C535859   0.117   4.847   6.233 -0.1364 -1.3511 -1.1299
   50FTM     C635860   0.062   4.956   6.138 -0.7311  0.5701  1.8572
   50FTM     C735861   0.160   5.004   6.027  0.8940 -0.5190 -0.3901
   50FTM     C835862   0.175   4.913   5.904 -0.2075  0.5421  0.2029
   50FTM     C935863   0.102   4.792   5.886  0.3372  1.0680 -0.4899
   50FTM    C1035864   0.170   4.658   5.842  0.6269 -0.2551  0.5865
   50FTM    C1135865  -0.014   5.078   6.169  2.6961 -0.1513  0.0799
   50FTM    C1235866  -0.165   5.038   6.194 -0.5725 -0.4397  1.1095
   51FTM     S135867  -0.416   3.949   6.615  0.8137  0.4564 -0.1926
   51FTM     C135868  -0.426   3.783   6.544 -0.1966  0.6344 -0.4939
   51FTM     C235869  -0.373   3.783   6.419 -0.6716  0.6388 -0.7031
   51FTM     C335870  -0.321   3.908   6.372 -0.2885  0.5072 -0.6434
   51FTM     C435871  -0.336   4.008   6.464  0.5061  0.3984 -0.3798
   51FTM     F135872  -0.367   3.669   6.340 -1.4818  0.7624 -0.9612
   51FTM     C535873  -0.489   3.674   6.604 -0.0783 -0.3315 -0.5317
   51FTM     C635874  -0.436   3.522   6.613 -0.0932  0.5529 -0.7191
   51FTM     C735875  -0.554   3.424   6.614  0.2592 -0.4606 -0.3227
   51FTM     C835876  -0.611   3.391   6.472 -0.3725 -0.6247 -0.8039
   51FTM     C935877  -0.718   3.288   6.456  0.5321 -0.2192 -1.0029
   51FTM    C1035878  -0.737   3.256   6.302 -0.3645  0.4132  1.4113
   51FTM    C1135879  -0.292   3.499   6.679  0.1203  1.5045  0.5013
   51FTM    C1235880  -0.239   3.363   6.753 -0.0198 -0.2734 -0.9698
   52TPM     C135881   0.091   4.179   6.807  1.1249  1.1212  0.0321
   52TPM     C235882   0.109   4.264   6.912  1.4902  0.7477  0.2766
   52TPM     C335883   0.197   4.212   7.014  0.8894 -0.1458  0.3723
   52TPM     C435884   0.248   4.089   6.985  0.0661 -0.4536  0.2010
   52TPM     S135885   0.186   4.027   6.827 -0.0151  0.3673 -0.0971
   53BDD     C135886   0.538   3.841   7.065  0.2010  0.4192 -0.0879
   53BDD     C235887   0.516   3.906   7.183  0.0744  0.5089 -0.1600
   53BDD     C335888   0.413   4.008   7.175  0.2426  0.6582 -0.4008
   53BDD     C435889   0.359   4.021   7.050  0.4950  0.6800 -0.5087
   53BDD     S135890   0.433   3.905   6.934  0.5395  0.5154 -0.3165
   53BDD     C535891   0.587   3.875   7.309 -0.2058  0.4607 -0.0103
   53BDD     C635892   0.373   4.090   7.291  0.1468  0.7735 -0.5151
   53BDD     O135893   0.285   4.179   7.283  0.2918  0.9022 -0.7226
   53BDD     O235894   0.675   3.786   7.316 -0.3508  0.3321  0.1974
   53BDD     C735895   0.445   4.060   7.416 -0.1334  0.7254 -0.3654
   53BDD     C835896   0.547   3.957   7.425 -0.3016  0.5760 -0.1246
   53BDD     C935897   0.601   3.945   7.550 -0.5540  0.5541 -0.0166
   53BDD     S235898   0.527   4.061   7.665 -0.5984  0.7190 -0.2088
   53BDD    C1035899   0.422   4.124   7.535 -0.2600  0.8150 -0.4375
   53BDD    C1135900   0.345   4.256   7.569  0.6752  1.2913  0.5579
   53BDD    C1235901   0.191   4.243   7.594 -0.7045  0.3985  0.4705
   53BDD    C1335902   0.128   4.380   7.621 -0.0097  0.1225 -0.1113
   53BDD    C1435903  -0.031   4.379   7.607 -0.5602  0.2915  1.4917
   53BDD    C1535904  -0.085   4.520   7.611  0.7035  0.7134  2.0856
   53BDD    C1635905  -0.074   4.601   7.728  0.8470 -0.6192 -1.2763
   53BDD    C1735906   0.155   4.122   7.685  0.1403  0.0145  1.1074
   53BDD    C1835907   0.205   4.149   7.827 -0.5048  0.0101 -1.5669
   53BDD    C1935908   0.713   3.859   7.597  0.0011  0.1379 -0.2759
   53BDD    C2035909   0.669   3.735   7.680 -0.9579 -0.4185 -0.8919
   53BDD    C2135910   0.580   3.751   7.808  0.4626  0.5118  0.2729
   53BDD    C2235911   0.619   3.857   7.908  0.8064 -2.0649  0.3294
   53BDD    C2335912   0.560   3.802   8.042  0.0257 -0.5797  0.0109
   53BDD    C2435913   0.599   3.906   8.157  0.7618  0.2640 -1.4025
   53BDD    C2535914   0.670   3.595   7.623 -0.6711  0.6156 -0.6390
   53BDD    C2635915   0.795   3.516   7.683 -0.2714 -0.1906 -0.0290
   54TPM     C135916   0.637   3.740   7.027 -0.1578 -0.0150  0.2688
   54TPM     C235917   0.570   3.624   7.002 -0.0921 -0.1316  0.6157
   54TPM     C335918   0.647   3.505   7.027  0.2848  0.0030  0.1254
   54TPM     C435919   0.773   3.531   7.072  0.5065  0.2221 -0.5952
   54TPM     S135920   0.804   3.708   7.086  0.2545  0.2760 -0.7115
   55BDTP    C135921   1.019   2.978   7.200  0.3075 -0.2972  0.0472
   55BDTP    C235922   1.042   2.997   7.060  0.1491 -0.1125  0.0451
   55BDTP    C335923   1.012   3.116   6.995  0.0352 -0.0393  0.2275
   55BDTP    C435924   0.957   3.221   7.070  0.0794 -0.1535  0.4210
   55BDTP    C535925   0.934   3.202   7.209  0.2377 -0.3382  0.4232
   55BDTP    C635926   0.964   3.084   7.275  0.3516 -0.4114  0.2409
   55BDTP    C735927   0.918   3.353   7.024 -0.0178 -0.1083  0.6301
   55BDTP    C835928   0.868   3.433   7.121  0.0589 -0.2484  0.7869
   55BDTP    S135929   0.862   3.353   7.284  0.2651 -0.4573  0.6921
   55BDTP    C935930   1.057   2.847   7.246  0.4047 -0.3424 -0.1616
   55BDTP   C1035931   1.108   2.766   7.149  0.3279 -0.2023 -0.3185
   55BDTP    S235932   1.113   2.847   6.986  0.1218  0.0066 -0.2237
   56FTM     S135933   0.947   2.975   6.742 -0.1024 -0.1231 -0.4809
   56FTM     C135934   0.936   3.085   6.600  0.5968 -0.1698 -0.5786
   56FTM     C235935   0.965   3.213   6.638  1.0504 -0.2586 -0.6163
   56FTM     C335936   0.997   3.232   6.776  0.8859 -0.2951 -0.5728
   56FTM     C435937   0.992   3.116   6.847  0.2867 -0.2320 -0.4993
   56FTM     F135938   0.965   3.319   6.549  1.6415 -0.3123 -0.6926
   56FTM     C535939   0.905   3.040   6.466  0.9157 -0.0276  0.1161
   56FTM     C635940   0.913   2.894   6.426  0.2529  0.1322 -0.6330
   56FTM     C735941   0.979   2.879   6.290  0.2704  0.3461  0.1641
   56FTM     C835942   1.113   2.903   6.216  0.1698  0.6562 -1.6445
   56FTM     C935943   1.234   2.918   6.310 -0.4696 -0.8071 -0.9315
   56FTM    C1035944   1.348   2.979   6.245  0.1410 -1.2169 -0.5664
   56FTM    C1135945   0.781   2.821   6.456 -0.8471 -0.0776  0.4139
   56FTM    C1235946   0.773   2.672   6.442  0.5503  0.3183 -1.2121
   57FTM     S135947   0.968   3.125   7.562 -0.5871  0.1778 -0.0337
   57FTM     C135948   0.847   3.027   7.652 -0.3358 -0.2121 -0.1167
   57FTM     C235949   0.768   2.959   7.564 -0.0267 -0.5115 -0.1702
   57FTM     C335950   0.796   2.980   7.425  0.0323 -0.4572 -0.1506
   57FTM     C435951   0.900   3.065   7.405 -0.2407 -0.1048 -0.0796
   57FTM     F135952   0.665   2.875   7.604  0.2213 -0.8525 -0.2404
   57FTM     C535953   0.827   3.036   7.799 -1.2371 -0.6582 -0.4742
   57FTM     C635954   0.843   3.154   7.889  0.6259 -1.1272 -0.0662
   57FTM     C735955   0.710   3.232   7.879  0.0496  0.2129 -0.6492
   57FTM     C835956   0.654   3.284   8.007  0.0204 -1.5489  0.0303
   57FTM     C935957   0.509   3.247   8.000 -0.7455 -0.6292 -1.2681
   57FTM    C1035958   0.418   3.304   8.109  1.0850 -0.7794  0.1966
   57FTM    C1135959   0.966   3.245   7.868  0.8688 -1.0620 -0.3649
   57FTM    C1235960   1.102   3.190   7.912 -0.2893  0.3546  1.0548
   58TPM     C135961   1.155   2.632   7.170  0.5878  0.6858  0.0144
   58TPM     C235962   1.130   2.536   7.076  0.5767  1.1433 -0.4593
   58TPM     C335963   1.222   2.425   7.080  0.1263  0.7623 -0.5211
   58TPM     C435964   1.316   2.436   7.178 -0.2059  0.0143 -0.0946
   58TPM     S135965   1.297   2.589   7.272  0.0259 -0.2691  0.4220
   59BDD     C135966   1.576   2.140   7.193 -0.1227  0.0407 -0.0346
   59BDD     C235967   1.480   2.107   7.284 -0.0649 -0.0575 -0.0082
   59BDD     C335968   1.373   2.205   7.292 -0.1486 -0.1529  0.0401
   59BDD     C435969   1.389   2.310   7.207 -0.2690 -0.1261  0.0501
   59BDD     S135970   1.540   2.295   7.110 -0.2859  0.0204 -0.0007
   59BDD     C535971   1.483   1.985   7.367  0.0693 -0.0672 -0.0266
   59BDD     C635972   1.258   2.190   7.384 -0.1060 -0.2671  0.0747
   59BDD     O135973   1.166   2.274   7.391 -0.1782 -0.3493  0.1165
   59BDD     O235974   1.575   1.901   7.360  0.1415  0.0150 -0.0683
   59BDD     C735975   1.261   2.068   7.467  0.0283 -0.2768  0.0564
   59BDD     C835976   1.368   1.970   7.459  0.1119 -0.1814  0.0079
   59BDD     C935977   1.352   1.865   7.545  0.2323 -0.2083 -0.0019
   59BDD     S235978   1.202   1.880   7.641  0.2492 -0.3547  0.0488
   59BDD    C1035979   1.165   2.035   7.559  0.0861 -0.3750  0.0827
   59BDD    C1135980   1.040   2.110   7.630  0.1596 -0.8875 -0.2907
   59BDD    C1235981   0.904   2.029   7.658  0.2166  0.7245 -1.0214
   59BDD    C1335982   0.862   1.947   7.525  2.2021  0.4009 -0.4189
   59BDD    C1435983   0.853   2.037   7.400  0.7616 -0.0017  0.8017
   59BDD    C1535984   0.839   1.953   7.283 -0.1538 -0.4318  1.1398
   59BDD    C1635985   0.832   2.044   7.162  0.1596  2.0691 -0.3390
   59BDD    C1735986   0.789   2.112   7.717  0.2194  1.1885  0.1011
   59BDD    C1835987   0.812   2.219   7.819  0.1283 -0.6073  0.3271
   59BDD    C1935988   1.448   1.758   7.581  0.7402 -0.2888  0.1189
   59BDD    C2035989   1.548   1.797   7.697 -0.5385  0.5406 -0.1889
   59BDD    C2135990   1.679   1.724   7.700 -0.7247  0.1494  0.2960
   59BDD    C2235991   1.769   1.740   7.572  0.8201 -1.1332 -0.0468
   59BDD    C2335992   1.870   1.633   7.570 -0.4071 -0.8296  1.4634
   59BDD    C2435993   1.905   1.581   7.428  0.8315  0.9619 -0.4769
   59BDD    C2535994   1.494   1.803   7.845 -0.1982  1.2438  0.6284
   59BDD    C2635995   1.507   1.949   7.899  1.8065  0.1228  0.2455
   60TPM     C135996   1.685   2.064   7.140  0.1908 -0.5298  0.6295
   60TPM     C235997   1.806   2.059   7.203  0.1324 -1.1523  0.7063
   60TPM     C335998   1.902   1.973   7.138 -0.1270 -1.3004  0.5164
   60TPM     C435999   1.854   1.913   7.026 -0.2663 -0.7908  0.2946
   60TPM     S136000   1.683   1.960   6.993 -0.0793 -0.0788  0.3087
    1BDTP    C136001   6.778  11.039   1.347 -0.0118 -0.3259 -0.5037
    1BDTP    C236002   6.759  11.178   1.373 -0.0271 -0.3581 -0.3421
    1BDTP    C336003   6.859  11.272   1.355 -0.0787 -0.3071 -0.3644
    1BDTP    C436004   6.984  11.227   1.309 -0.1173 -0.2198 -0.5550
    1BDTP    C536005   7.003  11.088   1.283 -0.1023 -0.1872 -0.7167
    1BDTP    C636006   6.903  10.994   1.300 -0.0503 -0.2384 -0.6943
    1BDTP    C736007   7.103  11.306   1.283 -0.1734 -0.1547 -0.6142
    1BDTP    C836008   7.209  11.234   1.239 -0.2006 -0.0758 -0.8101
    1BDTP    S136009   7.173  11.056   1.224 -0.1590 -0.0727 -0.9470
    1BDTP    C936010   6.659  10.960   1.373  0.0442 -0.3910 -0.4445
    1BDTP   C1036011   6.553  11.032   1.417  0.0715 -0.4699 -0.2486
    1BDTP    S236012   6.589  11.210   1.432  0.0298 -0.4728 -0.1117
    2FTM     S136013   6.792  11.514   1.211 -0.6513 -0.4560 -0.4184
    2FTM     C136014   6.678  11.614   1.307  0.2862  0.4643 -0.2252
    2FTM     C236015   6.676  11.570   1.436  0.3632  0.6668 -0.1546
    2FTM     C336016   6.761  11.459   1.467 -0.2863  0.1317 -0.2441
    2FTM     C436017   6.830  11.416   1.358 -0.8803 -0.5013 -0.3880
    2FTM     F136018   6.597  11.628   1.534  1.0266  1.3488 -0.0046
    2FTM     C536019   6.590  11.726   1.258  0.6962  0.5951 -0.4451
    2FTM     C636020   6.621  11.801   1.125  1.5244 -0.4536  0.1546
    2FTM     C736021   6.564  11.759   0.994  1.7436 -0.8478  0.5458
    2FTM     C836022   6.487  11.625   0.950  0.4563 -0.4412  0.8185
    2FTM     C936023   6.537  11.487   0.994 -0.3399 -0.5740  1.7397
    2FTM    C1036024   6.606  11.395   0.888 -0.6267 -0.2120 -0.8748
    2FTM    C1136025   6.718  11.922   1.114 -0.4243  0.3778 -0.8405
    2FTM    C1236026   6.790  11.967   1.244 -0.6648 -0.3113 -0.9042
    3FTM     S136027   6.893  10.732   1.183 -0.4861  0.3260  0.3849
    3FTM     C136028   6.977  10.598   1.267 -0.4820  0.1241  0.0627
    3FTM     C236029   7.030  10.642   1.384  0.0646 -0.0021 -0.1303
    3FTM     C336030   7.009  10.781   1.415  0.5028  0.0489 -0.0415
    3FTM     C436031   6.937  10.844   1.318  0.2848  0.2195  0.2283
    3FTM     F136032   7.101  10.560   1.471  0.2003 -0.1714 -0.3988
    3FTM     C536033   6.996  10.462   1.219 -0.6947  1.7920 -0.1362
    3FTM     C636034   6.907  10.325   1.254  0.0539 -0.3381  0.2411
    3FTM     C736035   6.946  10.207   1.330  0.1868  0.1819  0.4395
    3FTM     C836036   7.068  10.131   1.281 -0.3652 -0.2685  0.4089
    3FTM     C936037   7.097  10.008   1.364 -0.3341 -0.2774 -0.7389
    3FTM    C1036038   7.241   9.954   1.331  0.7394 -1.1061  0.7324
    3FTM    C1136039   6.771  10.360   1.219  0.3660  0.4174 -0.1442
    3FTM    C1236040   6.674  10.246   1.170  0.9665  0.1473 -0.4322
    4TPM     C136041   6.419  10.980   1.447  0.2314 -0.9479 -0.7346
    4TPM     C236042   6.333  11.055   1.520  1.1216 -0.8128  0.2193
    4TPM     C336043   6.198  11.005   1.520  0.9400 -0.3777  1.3366
    4TPM     C436044   6.181  10.892   1.447 -0.0890 -0.1810  1.2348
    4TPM     S136045   6.336  10.838   1.371 -0.9145 -0.5333 -0.2921
    5BDD     C136046   5.814  10.758   1.393  0.1269  0.0932 -0.2538
    5BDD     C236047   5.880  10.665   1.467  0.1037  0.0806 -0.2488
    5BDD     C336048   6.018  10.700   1.493  0.1160  0.0420 -0.2611
    5BDD     C436049   6.056  10.820   1.439  0.1482  0.0257 -0.2753
    5BDD     S136050   5.920  10.897   1.351  0.1656  0.0572 -0.2743
    5BDD     C536051   5.819  10.540   1.517  0.0695  0.1037 -0.2326
    5BDD     C636052   6.109  10.613   1.572  0.0952  0.0226 -0.2584
    5BDD     O136053   6.228  10.643   1.594  0.1057 -0.0105 -0.2690
    5BDD     O236054   5.699  10.510   1.494  0.0590  0.1371 -0.2220
    5BDD     C736055   6.048  10.488   1.621  0.0612  0.0460 -0.2422
    5BDD     C836056   5.909  10.453   1.595  0.0489  0.0846 -0.2299
    5BDD     C936057   5.872  10.333   1.650  0.0167  0.1009 -0.2157
    5BDD     S236058   6.008  10.256   1.738 -0.0006  0.0692 -0.2167
    5BDD    C1036059   6.114  10.394   1.695  0.0381  0.0334 -0.2372
    5BDD    C1136060   6.267  10.384   1.738 -0.2499  0.6956  0.7086
    5BDD    C1236061   6.335  10.420   1.873 -0.6055 -0.5081  0.3456
    5BDD    C1336062   6.300  10.556   1.932  0.4333  0.9519  1.0924
    5BDD    C1436063   6.406  10.674   1.919 -1.1834  0.8434  0.4255
    5BDD    C1536064   6.440  10.721   1.789 -1.9158 -0.2195 -0.8414
    5BDD    C1636065   6.546  10.832   1.775  0.1714 -0.9806  0.3308
    5BDD    C1736066   6.485  10.361   1.895  0.4389  0.8418 -0.7738
    5BDD    C1836067   6.562  10.279   1.797  0.0904  0.0713 -0.5060
    5BDD    C1936068   5.750  10.252   1.682  0.3564 -0.3503 -0.8228
    5BDD    C2036069   5.655  10.230   1.565 -0.3778  1.0991  0.2933
    5BDD    C2136070   5.709  10.173   1.435 -1.4394  0.6360 -1.1403
    5BDD    C2236071   5.612  10.128   1.330 -0.7468  0.2934 -0.0894
    5BDD    C2336072   5.642  10.052   1.202  0.0254  0.7484  0.5286
    5BDD    C2436073   5.694   9.910   1.223  1.3451 -0.1868 -1.4876
    5BDD    C2536074   5.533  10.142   1.603  1.2744  0.4331 -0.3155
    5BDD    C2636075   5.434  10.211   1.703 -0.2304 -1.5351  0.0214
    6TPM     C136076   5.667  10.781   1.348  0.1512  0.0189  0.2018
    6TPM     C236077   5.631  10.868   1.248 -0.1060 -0.0889  0.2010
    6TPM     C336078   5.490  10.895   1.244 -0.1440 -0.2470  0.4138
    6TPM     C436079   5.418  10.829   1.340  0.0844 -0.2596  0.5768
    6TPM     S136080   5.525  10.727   1.444  0.3670 -0.0714  0.4734
    7BDTP    C136081   4.794  10.815   1.425 -0.1348  0.1907  0.2304
    7BDTP    C236082   4.844  10.732   1.530 -0.1236 -0.1769 -0.0606
    7BDTP    C336083   4.979  10.707   1.547 -0.1287 -0.3140 -0.2195
    7BDTP    C436084   5.070  10.765   1.457 -0.1460 -0.0782 -0.0856
    7BDTP    C536085   5.020  10.848   1.352 -0.1572  0.2892  0.2053
    7BDTP    C636086   4.884  10.873   1.335 -0.1519  0.4264  0.3643
    7BDTP    C736087   5.214  10.753   1.454 -0.1543 -0.1582 -0.2067
    7BDTP    C836088   5.274  10.822   1.354 -0.1712  0.1278 -0.0230
    7BDTP    S136089   5.156  10.911   1.249 -0.1787  0.5386  0.3291
    7BDTP    C936090   4.649  10.827   1.427 -0.1265  0.2708  0.3515
    7BDTP   C1036091   4.589  10.758   1.528 -0.1096 -0.0150  0.1678
    7BDTP    S236092   4.707  10.669   1.633 -0.1021 -0.4259 -0.1843
    8FTM     S136093   5.130  10.635   1.788 -0.0226 -0.6499 -0.5095
    8FTM     C136094   5.078  10.474   1.851 -0.4232 -0.3249  0.0070
    8FTM     C236095   4.987  10.419   1.767 -0.7943 -0.2344  0.3459
    8FTM     C336096   4.952  10.496   1.652 -0.7894 -0.4077  0.2275
    8FTM     C436097   5.019  10.614   1.647 -0.4023 -0.6388 -0.2166
    8FTM     F136098   4.929  10.295   1.790 -1.1600  0.0112  0.7836
    8FTM     C536099   5.132  10.413   1.983 -0.5471 -0.2375  0.2848
    8FTM     C636100   5.141  10.499   2.107 -0.3777 -2.3594 -1.1803
    8FTM     C736101   5.005  10.534   2.155  1.0533  0.1590  0.5299
    8FTM     C836102   4.911  10.660   2.142 -0.0147 -1.6871 -0.3176
    8FTM     C936103   4.971  10.786   2.207 -0.6786  1.0239  0.3091
    8FTM    C1036104   5.080  10.862   2.120  0.1084 -0.7194 -0.0596
    8FTM    C1136105   5.260  10.448   2.204  1.4054 -0.4986  0.4045
    8FTM    C1236106   5.310  10.552   2.293  0.5925 -0.2513 -0.1934
    9FTM     S136107   4.850  11.148   1.239 -0.4527  0.1417 -0.0330
    9FTM     C136108   4.807  11.167   1.065  0.1843  0.3461 -0.1735
    9FTM     C236109   4.779  11.045   1.011  0.3836  0.4089 -0.4229
    9FTM     C336110   4.789  10.933   1.099  0.0613  0.3047 -0.5177
    9FTM     C436111   4.826  10.969   1.225 -0.4002  0.1569 -0.3349
    9FTM     F136112   4.742  11.029   0.878  0.8699  0.5648 -0.5803
    9FTM     C536113   4.791  11.307   0.995 -0.3708  1.5855 -1.4788
    9FTM     C636114   4.661  11.346   0.923  1.3129 -0.3247  0.6161
    9FTM     C736115   4.640  11.265   0.782  1.3849 -0.8469 -1.4157
    9FTM     C836116   4.655  11.366   0.673 -0.4749  0.0782 -1.0024
    9FTM     C936117   4.540  11.448   0.633 -1.0779  0.7784 -0.6368
    9FTM    C1036118   4.569  11.539   0.515 -0.0010  0.3672 -0.3664
    9FTM    C1136119   4.526  11.346   1.014 -0.6104  0.5407  1.5513
    9FTM    C1236120   4.474  11.212   1.065  1.0468  1.8849 -0.7915
   10TPM     C136121   4.456  10.747   1.564  0.0827 -0.0218  0.0177
   10TPM     C236122   4.381  10.826   1.646  0.1544 -0.7405  0.8006
   10TPM     C336123   4.240  10.800   1.639  0.1893 -1.0200  1.0845
   10TPM     C436124   4.207  10.701   1.551  0.1444 -0.5144  0.5182
   10TPM     S136125   4.353  10.632   1.470  0.0537  0.3607 -0.4250
   11BDD     C136126   3.843  10.554   1.532  0.6738 -0.7918 -0.3551
   11BDD     C236127   3.862  10.617   1.412  0.4972 -0.5198 -0.2428
   11BDD     C336128   3.990  10.685   1.403  0.2428 -0.0024 -0.0631
   11BDD     C436129   4.067  10.672   1.516  0.2288  0.1125 -0.0410
   11BDD     S136130   3.984  10.575   1.641  0.5334 -0.4191 -0.2435
   11BDD     C536131   3.764  10.617   1.302  0.5561 -0.7255 -0.2966
   11BDD     C636132   4.032  10.759   1.282  0.0225  0.3595  0.0801
   11BDD     O136133   4.143  10.817   1.274 -0.1968  0.8059  0.2350
   11BDD     O236134   3.653  10.559   1.310  0.7755 -1.1718 -0.4515
   11BDD     C736135   3.934  10.759   1.172  0.0814  0.1540  0.0263
   11BDD     C836136   3.806  10.691   1.181  0.3359 -0.3633 -0.1534
   11BDD     C936137   3.729  10.704   1.069  0.3498 -0.4780 -0.1755
   11BDD     S236138   3.813  10.801   0.943  0.0453  0.0540  0.0270
   11BDD    C1036139   3.953  10.822   1.052 -0.0951  0.4265  0.1386
   11BDD    C1136140   4.064  10.911   1.005  0.3958 -0.7603  0.8885
   11BDD    C1236141   4.127  10.893   0.856  0.5690 -0.3328  0.4231
   11BDD    C1336142   4.146  10.750   0.802 -0.8334 -0.2936  0.2528
   11BDD    C1436143   4.191  10.718   0.659 -0.9966  0.3382  0.7537
   11BDD    C1536144   4.315  10.798   0.639  0.0101  0.1198  0.8429
   11BDD    C1636145   4.441  10.725   0.587 -1.2234  0.3068  0.5781
   11BDD    C1736146   4.077  11.007   0.773  2.3207 -0.1892 -0.0769
   11BDD    C1836147   4.118  11.149   0.789  0.0109  0.2748 -1.0086
   11BDD    C1936148   3.582  10.664   1.032  0.9133  0.9130 -1.1345
   11BDD    C2036149   3.560  10.543   0.938 -1.4610 -0.1333  1.9511
   11BDD    C2136150   3.679  10.462   0.890  0.0042  1.3499  0.2358
   11BDD    C2236151   3.762  10.497   0.775 -2.0863 -0.1133  0.1337
   11BDD    C2336152   3.736  10.570   0.641  1.0466  0.1600 -0.5350
   11BDD    C2436153   3.778  10.517   0.507  0.0278 -0.1301  0.4199
   11BDD    C2536154   3.436  10.458   0.941 -0.1972  0.4507 -1.0888
   11BDD    C2636155   3.304  10.518   0.987  0.0858 -0.9307 -0.4656
   12TPM     C136156   3.706  10.504   1.588 -0.0970  0.0473  0.0583
   12TPM     C236157   3.647  10.552   1.701 -0.5690  0.5076 -0.3749
   12TPM     C336158   3.527  10.482   1.739 -0.9635  0.9253 -0.8034
   12TPM     C436159   3.495  10.379   1.656 -0.7922  0.7841 -0.6968
   12TPM     S136160   3.614  10.364   1.521 -0.1141  0.1064 -0.0420
   13BDTP    C136161   2.997  10.004   1.737  0.1724 -0.0246  0.0202
   13BDTP    C236162   3.098   9.907   1.711  0.1102 -0.0236 -0.2353
   13BDTP    C336163   3.230   9.942   1.683  0.0582 -0.0250 -0.4828
   13BDTP    C436164   3.263  10.078   1.680  0.0681 -0.0272 -0.4789
   13BDTP    C536165   3.162  10.175   1.705  0.1304 -0.0279 -0.2234
   13BDTP    C636166   3.031  10.141   1.734  0.1822 -0.0267  0.0242
   13BDTP    C736167   3.393  10.138   1.653  0.0217 -0.0286 -0.7088
   13BDTP    C836168   3.393  10.273   1.657  0.0458 -0.0308 -0.6392
   13BDTP    S136169   3.231  10.344   1.695  0.1306 -0.0312 -0.2726
   13BDTP    C936170   2.868   9.945   1.764  0.2188 -0.0234  0.2502
   13BDTP   C1036171   2.867   9.809   1.760  0.1947 -0.0212  0.1805
   13BDTP    S236172   3.030   9.738   1.721  0.1099 -0.0207 -0.1861
   14FTM     S136173   3.510   9.852   1.678  0.3027 -0.1237  0.0715
   14FTM     C136174   3.542   9.693   1.601  0.2531 -0.1280  0.0596
   14FTM     C236175   3.426   9.642   1.552  0.2325 -0.1011  0.0796
   14FTM     C336176   3.308   9.722   1.571  0.2535 -0.0758  0.1048
   14FTM     C436177   3.335   9.838   1.637  0.2915 -0.0839  0.1040
   14FTM     F136178   3.419   9.519   1.487  0.1935 -0.0973  0.0764
   14FTM     C536179   3.683   9.649   1.596 -0.2360 -0.0556  0.6252
   14FTM     C636180   3.728   9.522   1.524  0.4322 -0.7305  0.4878
   14FTM     C736181   3.718   9.390   1.606 -0.5343 -1.0719 -0.2247
   14FTM     C836182   3.749   9.374   1.761  0.7710 -0.0414  0.1106
   14FTM     C936183   3.895   9.347   1.787 -0.1572 -0.0409 -0.0160
   14FTM    C1036184   3.919   9.367   1.931  0.8298 -0.3966  0.2038
   14FTM    C1136185   3.691   9.519   1.378  0.6768  0.0157  0.7559
   14FTM    C1236186   3.753   9.413   1.286  0.8034  0.3764 -0.7659
   15FTM     S136187   2.914  10.414   1.697  0.5171  0.0406 -0.1048
   15FTM     C136188   2.804  10.461   1.832  0.1318 -0.2425 -0.3140
   15FTM     C236189   2.795  10.360   1.922 -0.3105 -0.5226 -0.6633
   15FTM     C336190   2.871  10.242   1.893 -0.3752 -0.5336 -0.7867
   15FTM     C436191   2.940  10.253   1.776  0.0309 -0.2531 -0.5232
   15FTM     F136192   2.717  10.368   2.037 -0.6832 -0.7851 -0.8922
   15FTM     C536193   2.742  10.603   1.835  0.0480  0.8132 -0.1445
   15FTM     C636194   2.810  10.716   1.898  0.3608 -0.7602  0.3079
   15FTM     C736195   2.952  10.748   1.852  0.7774  0.4739 -1.1809
   15FTM     C836196   3.070  10.677   1.933 -0.0350 -0.4103 -1.1459
   15FTM     C936197   3.194  10.757   1.912  0.0229  0.0840 -1.7485
   15FTM    C1036198   3.305  10.736   1.829 -0.8273 -0.8188  0.1510
   15FTM    C1136199   2.707  10.830   1.871 -1.0897  0.3866  0.0757
   15FTM    C1236200   2.720  10.972   1.944 -0.7154 -0.0560 -0.0317
   16TPM     C136201   2.754   9.730   1.735  0.4478 -0.1585 -0.1584
   16TPM     C236202   2.741   9.600   1.697  0.2827 -0.0806 -0.3733
   16TPM     C336203   2.605   9.559   1.674  0.1698 -0.0567  0.2262
   16TPM     C436204   2.514   9.658   1.695  0.2488 -0.1166  0.8983
   16TPM     S136205   2.593   9.812   1.745  0.4735 -0.2081  0.8255
   17BDD     C136206   2.155   9.603   1.834  0.0620 -0.1765  0.3254
   17BDD     C236207   2.150   9.571   1.701 -0.0388 -0.0792  0.3059
   17BDD     C336208   2.279   9.581   1.634 -0.1435  0.2606  0.1472
   17BDD     C436209   2.380   9.619   1.718 -0.1211  0.4169  0.0482
   17BDD     S136210   2.321   9.646   1.885  0.0327  0.1497  0.1466
   17BDD     C536211   2.026   9.531   1.630 -0.0426 -0.2944  0.4322
   17BDD     C636212   2.296   9.551   1.491 -0.2621  0.4177  0.0997
   17BDD     O136213   2.407   9.559   1.433 -0.3524  0.7105 -0.0371
   17BDD     O236214   1.915   9.523   1.687  0.0477 -0.5872  0.5690
   17BDD     C736215   2.173   9.511   1.420 -0.2659  0.2024  0.2261
   17BDD     C836216   2.044   9.502   1.486 -0.1612 -0.1373  0.3847
   17BDD     C936217   1.943   9.463   1.403 -0.1836 -0.2940  0.4838
   17BDD     S236218   2.002   9.436   1.236 -0.3374 -0.0266  0.3854
   17BDD    C1036219   2.168   9.480   1.287 -0.3667  0.2997  0.2066
   17BDD    C1136220   2.259   9.508   1.169 -0.7038 -0.5332  0.3230
   17BDD    C1236221   2.386   9.429   1.148 -1.1911  1.2934  0.4836
   17BDD    C1336222   2.473   9.525   1.054 -0.4423  0.3624 -1.3033
   17BDD    C1436223   2.616   9.479   1.040  0.8978  0.0207  0.2891
   17BDD    C1536224   2.735   9.467   1.142 -0.5213 -0.4062 -0.6906
   17BDD    C1636225   2.688   9.410   1.272 -0.7563  0.0246 -0.6838
   17BDD    C1736226   2.376   9.285   1.099  0.0325 -1.4166 -0.9259
   17BDD    C1836227   2.267   9.186   1.153 -0.3177 -0.2623  0.4022
   17BDD    C1936228   1.812   9.395   1.427  0.5100  0.5671 -0.0359
   17BDD    C2036229   1.704   9.435   1.332  0.1091 -1.3954  1.1468
   17BDD    C2136230   1.601   9.329   1.297 -0.8931 -0.2002  0.2655
   17BDD    C2236231   1.668   9.224   1.229  1.3101  0.9355 -0.6114
   17BDD    C2336232   1.630   9.188   1.086 -0.9362  0.3372  0.9842
   17BDD    C2436233   1.658   9.310   0.987 -0.5228 -0.0393  0.1048
   17BDD    C2536234   1.646   9.582   1.377 -0.3997  0.5939  1.9151
   17BDD    C2636235   1.586   9.585   1.512  0.0532 -1.0512 -0.5189
   18TPM     C136236   2.061   9.595   1.935 -0.0513  0.3097 -0.0133
   18TPM     C236237   2.037   9.698   2.020  0.0536  0.0939  0.2807
   18TPM     C336238   1.946   9.666   2.127  0.2792 -0.2124  0.3801
   18TPM     C436239   1.901   9.537   2.123  0.3464 -0.2302  0.1620
   18TPM     S136240   1.970   9.447   1.983  0.1282  0.1414 -0.1887
   19BDTP    C136241   1.507   9.300   2.556  0.3684 -0.2286 -0.4860
   19BDTP    C236242   1.525   9.435   2.599  0.2210 -0.2396 -0.3910
   19BDTP    C336243   1.606   9.525   2.532  0.1132 -0.1001 -0.3341
   19BDTP    C436244   1.673   9.481   2.417  0.1523  0.0579 -0.3726
   19BDTP    C536245   1.656   9.346   2.374  0.2997  0.0691 -0.4677
   19BDTP    C636246   1.575   9.255   2.441  0.4075 -0.0705 -0.5246
   19BDTP    C736247   1.762   9.556   2.331  0.0597  0.2197 -0.3273
   19BDTP    C836248   1.812   9.485   2.227  0.1295  0.3505 -0.3830
   19BDTP    S136249   1.753   9.313   2.223  0.3224  0.2868 -0.5007
   19BDTP    C936250   1.418   9.224   2.642  0.4610 -0.3903 -0.5313
   19BDTP   C1036251   1.369   9.295   2.747  0.3912 -0.5209 -0.4756
   19BDTP    S236252   1.427   9.467   2.750  0.1982 -0.4573 -0.3579
   20FTM     S136253   1.525   9.802   2.537 -0.1022  0.1284 -0.2944
   20FTM     C136254   1.637   9.907   2.633 -0.7141 -0.0855  0.6893
   20FTM     C236255   1.732   9.830   2.693 -1.3513 -0.2632  1.4915
   20FTM     C336256   1.723   9.689   2.670 -1.4013 -0.2444  1.3925
   20FTM     C436257   1.619   9.656   2.589 -0.7822 -0.0458  0.4850
   20FTM     F136258   1.832   9.883   2.773 -1.9270 -0.4535  2.3630
   20FTM     C536259   1.602  10.047   2.672  1.2229  0.3700  1.6411
   20FTM     C636260   1.563  10.146   2.560 -0.7300  1.4675  0.2873
   20FTM     C736261   1.585  10.285   2.607  0.6353 -0.1930  0.8082
   20FTM     C836262   1.721  10.361   2.670  0.6642  0.2878 -0.2986
   20FTM     C936263   1.867  10.338   2.616 -0.1228 -0.0459  1.5133
   20FTM    C1036264   1.900  10.361   2.467  0.7894  0.3136 -1.9053
   20FTM    C1136265   1.444  10.125   2.482 -0.2140  0.6585 -0.2941
   20FTM    C1236266   1.396  10.232   2.376 -1.4339  1.1343  0.1278
   21FTM     S136267   1.471   9.102   2.208  0.0596  0.1822 -0.3991
   21FTM     C136268   1.520   8.929   2.207 -0.0967  0.1374 -0.5826
   21FTM     C236269   1.581   8.898   2.325 -0.2623 -0.0825 -0.5529
   21FTM     C336270   1.593   9.005   2.420 -0.2773 -0.2263 -0.3893
   21FTM     C436271   1.539   9.121   2.374 -0.1180 -0.1125 -0.2907
   21FTM     F136272   1.631   8.772   2.353 -0.4102 -0.1671 -0.6718
   21FTM     C536273   1.480   8.854   2.082  0.0518  0.7181  0.1469
   21FTM     C636274   1.533   8.857   1.923  0.7524 -0.8963 -0.3245
   21FTM     C736275   1.675   8.803   1.937  0.3345  0.0312  1.0536
   21FTM     C836276   1.785   8.827   1.824 -0.0142 -0.0162  1.0565
   21FTM     C936277   1.828   8.976   1.811 -0.5870  1.3575  0.6727
   21FTM    C1036278   1.854   9.061   1.928 -0.7575  0.2316 -0.3511
   21FTM    C1136279   1.459   8.767   1.835 -0.7097 -0.7597 -0.6616
   21FTM    C1236280   1.309   8.787   1.809  0.2610  0.4635 -0.8643
   22TPM     C136281   1.279   9.256   2.858 -0.3795  0.9660 -0.7779
   22TPM     C236282   1.196   9.147   2.859 -1.0596  1.4396 -1.6283
   22TPM     C336283   1.121   9.133   2.982 -1.0453  0.8879 -1.6769
   22TPM     C436284   1.147   9.231   3.073 -0.3543 -0.0068 -0.8634
   22TPM     S136285   1.268   9.350   3.011  0.3373 -0.2231  0.0340
   23BDD     C136286   0.891   9.390   3.326  0.0049 -0.0571 -0.2068
   23BDD     C236287   0.900   9.259   3.364  0.0457 -0.0286 -0.1172
   23BDD     C336288   0.996   9.183   3.286  0.0659 -0.0534 -0.0686
   23BDD     C436289   1.058   9.258   3.189  0.0402 -0.1009 -0.1217
   23BDD     S136290   1.001   9.428   3.190 -0.0110 -0.1173 -0.2364
   23BDD     C536291   0.822   9.199   3.474  0.0675  0.0226 -0.0731
   23BDD     C636292   1.023   9.040   3.309  0.1099 -0.0293  0.0288
   23BDD     O136293   1.105   8.975   3.241  0.1273 -0.0508  0.0707
   23BDD     O236294   0.739   9.264   3.542  0.0501  0.0443 -0.1150
   23BDD     C736295   0.944   8.979   3.419  0.1317  0.0219  0.0730
   23BDD     C836296   0.849   9.055   3.497  0.1115  0.0470  0.0243
   23BDD     C936297   0.787   8.981   3.594  0.1372  0.0939  0.0774
   23BDD     S236298   0.844   8.811   3.593  0.1884  0.1107  0.1921
   23BDD    C1036299   0.954   8.848   3.457  0.1725  0.0505  0.1624
   23BDD    C1136300   1.066   8.738   3.426 -0.1628 -0.6376  0.2280
   23BDD    C1236301   1.014   8.625   3.343  0.6336 -1.1831  0.3781
   23BDD    C1336302   1.105   8.503   3.330  0.1345 -0.6653 -0.0283
   23BDD    C1436303   1.177   8.444   3.457 -0.1553  0.2799 -0.4389
   23BDD    C1536304   1.099   8.404   3.570  0.5213  0.3354 -0.2502
   23BDD    C1636305   1.082   8.261   3.579 -0.8178 -0.8181  1.2739
   23BDD    C1736306   0.955   8.678   3.211 -0.1956  0.0126  0.3980
   23BDD    C1836307   0.827   8.599   3.158 -0.9793  0.7599 -0.0425
   23BDD    C1936308   0.709   9.033   3.718  0.2167 -0.2120 -0.1403
   23BDD    C2036309   0.564   8.969   3.715  0.3325  1.5388  0.1008
   23BDD    C2136310   0.527   8.890   3.838  0.3104  0.2802  0.1010
   23BDD    C2236311   0.458   8.765   3.832  0.8218  0.2335  0.8322
   23BDD    C2336312   0.380   8.714   3.957 -0.0309 -1.2340  1.0510
   23BDD    C2436313   0.306   8.591   3.917  1.5045  0.4525 -0.5705
   23BDD    C2536314   0.454   9.025   3.629 -1.0839 -0.5847 -0.4103
   23BDD    C2636315   0.386   9.150   3.684 -0.9418 -0.7635 -0.1093
   24TPM     C136316   0.836   9.513   3.387  0.5923  0.3534 -0.6414
   24TPM     C236317   0.911   9.624   3.412  0.3722  0.4616 -0.4435
   24TPM     C336318   0.834   9.740   3.448  0.1363  0.2589 -0.2888
   24TPM     C436319   0.700   9.718   3.450  0.1766 -0.0036 -0.3687
   24TPM     S136320   0.660   9.547   3.407  0.5181 -0.0152 -0.6478
   25BDTP    C136321   0.283  10.145   3.662  0.1757 -0.3097  0.2522
   25BDTP    C236322   0.207  10.024   3.668  0.1676 -0.3064  0.2095
   25BDTP    C336323   0.259   9.901   3.630  0.1460 -0.2902  0.1268
   25BDTP    C436324   0.391   9.896   3.584  0.1317 -0.2756  0.0842
   25BDTP    C536325   0.467  10.016   3.577  0.1398 -0.2787  0.1271
   25BDTP    C636326   0.416  10.139   3.616  0.1614 -0.2953  0.2097
   25BDTP    C736327   0.466   9.780   3.539  0.1086 -0.2576 -0.0015
   25BDTP    C836328   0.593   9.807   3.500  0.0992 -0.2468 -0.0247
   25BDTP    S136329   0.636   9.983   3.514  0.1182 -0.2587  0.0587
   25BDTP    C936330   0.209  10.260   3.707  0.1987 -0.3281  0.3380
   25BDTP   C1036331   0.082  10.233   3.746  0.2082 -0.3386  0.3611
   25BDTP    S236332   0.039  10.057   3.731  0.1892 -0.3270  0.2779
   26FTM     S136333   0.118   9.736   3.813  0.3234  0.1793  0.0262
   26FTM     C136334   0.037   9.591   3.742 -0.1979  0.5275 -0.1011
   26FTM     C236335   0.064   9.584   3.609 -0.5603  0.7682 -0.1910
   26FTM     C336336   0.147   9.688   3.555 -0.4573  0.6981 -0.1670
   26FTM     C436337   0.185   9.778   3.650 -0.0010  0.3940 -0.0550
   26FTM     F136338   0.015   9.483   3.527 -1.0068  1.0662 -0.3004
   26FTM     C536339  -0.060   9.516   3.813 -0.7189 -0.7794 -0.8698
   26FTM     C636340  -0.160   9.589   3.891  0.8683  2.9145  0.0745
   26FTM     C736341  -0.280   9.631   3.800  0.6742 -0.9144  0.7533
   26FTM     C836342  -0.365   9.750   3.811  0.0103 -0.7645 -1.2473
   26FTM     C936343  -0.366   9.854   3.932 -0.5314  1.1574  1.2956
   26FTM    C1036344  -0.280   9.972   3.912  0.2312  0.2702  1.1955
   26FTM    C1136345  -0.195   9.511   4.025 -0.9528 -0.9951  0.4069
   26FTM    C1236346  -0.236   9.372   4.039 -0.4197 -1.0803  0.0641
   27FTM     S136347   0.646  10.282   3.717 -0.3006 -0.1636 -0.0440
   27FTM     C136348   0.661  10.450   3.655 -0.4043 -0.1599 -0.0590
   27FTM     C236349   0.558  10.478   3.571 -0.4974 -0.1843  0.0473
   27FTM     C336350   0.463  10.372   3.550 -0.4938 -0.2067  0.1446
   27FTM     C436351   0.495  10.260   3.621 -0.3948 -0.1995  0.1117
   27FTM     F136352   0.542  10.600   3.508 -0.5913 -0.1879  0.0629
   27FTM     C536353   0.781  10.516   3.702 -1.5812  0.9678 -0.3303
   27FTM     C636354   0.917  10.481   3.648 -0.4305  1.4661  0.9642
   27FTM     C736355   1.046  10.559   3.679  1.2481  0.3455  0.4792
   27FTM     C836356   1.114  10.553   3.810  0.0588  0.7733  1.3634
   27FTM     C936357   1.231  10.648   3.834 -0.2955 -0.2409 -0.1676
   27FTM    C1036358   1.284  10.645   3.976 -0.9748  0.6738  0.9642
   27FTM    C1136359   0.904  10.433   3.499  0.3287  1.1684  0.5311
   27FTM    C1236360   1.015  10.416   3.413 -0.0737  0.6171  1.1228
   28TPM     C136361  -0.003  10.332   3.813 -0.2428  0.0852 -0.8730
   28TPM     C236362  -0.131  10.312   3.854  0.0169 -0.0098 -0.0682
   28TPM     C336363  -0.197  10.432   3.899  0.3321 -0.1295  0.7401
   28TPM     C436364  -0.118  10.543   3.893  0.3126 -0.1262  0.5518
   28TPM     S136365   0.046  10.505   3.828 -0.1082  0.0299 -0.6706
   29BDD     C136366  -0.346  10.832   4.043 -0.1274  0.2082 -0.2961
   29BDD     C236367  -0.221  10.886   4.031 -0.0379  0.0336 -0.1600
   29BDD     C336368  -0.126  10.798   3.965 -0.1016 -0.0782 -0.1044
   29BDD     C436369  -0.180  10.678   3.928 -0.2387  0.0124 -0.1986
   29BDD     S136370  -0.353  10.667   3.972 -0.2973  0.2437 -0.3636
   29BDD     C536371  -0.185  11.021   4.080  0.1097 -0.0358 -0.0765
   29BDD     C636372   0.015  10.837   3.942 -0.0238 -0.2706  0.0404
   29BDD     O136373   0.097  10.761   3.885 -0.0789 -0.3669  0.0885
   29BDD     O236374  -0.267  11.096   4.137  0.1645  0.0603 -0.1247
   29BDD     C736375   0.051  10.971   3.991  0.1233 -0.3402  0.1240
   29BDD     C836376  -0.044  11.059   4.057  0.1872 -0.2284  0.0682
   29BDD     C936377   0.010  11.179   4.095  0.3245 -0.3192  0.1625
   29BDD     S236378   0.183  11.191   4.050  0.3833 -0.5509  0.3274
   29BDD    C1036379   0.176  11.026   3.980  0.2131 -0.5147  0.2599
   29BDD    C1136380   0.298  10.994   3.890 -0.3813  0.8236 -0.1597
   29BDD    C1236381   0.396  10.868   3.913  1.3885 -1.2523 -0.2438
   29BDD    C1336382   0.470  10.852   3.782 -0.2914 -1.0518 -0.6570
   29BDD    C1436383   0.614  10.928   3.780  0.5175  0.7129 -0.2821
   29BDD    C1536384   0.675  10.907   3.647  0.0851  0.0869  0.4268
   29BDD    C1636385   0.826  10.900   3.648 -0.0512  1.3235 -0.8950
   29BDD    C1736386   0.449  10.870   4.066 -0.1690  0.1147 -0.0302
   29BDD    C1836387   0.442  10.739   4.141 -0.0348  0.9282  0.1181
   29BDD    C1936388  -0.072  11.301   4.147  0.9002 -0.1035  1.3620
   29BDD    C2036389  -0.057  11.378   4.278 -0.6249 -0.4332  0.6908
   29BDD    C2136390   0.076  11.425   4.335 -0.2067  0.0284  0.6402
   29BDD    C2236391   0.177  11.513   4.265  0.1843 -1.4815  0.3369
   29BDD    C2336392   0.130  11.628   4.177  0.0525 -0.1513 -0.2625
   29BDD    C2436393   0.225  11.743   4.204 -0.6067  0.6074  0.3631
   29BDD    C2536394  -0.186  11.413   4.347 -0.1907 -0.7159 -0.0738
   29BDD    C2636395  -0.247  11.549   4.336  0.2885 -1.3996  0.4067
   30TPM     C136396  -0.463  10.862   4.121  0.6659 -0.2271  0.3480
   30TPM     C236397  -0.582  10.901   4.066  0.5653 -0.8793  0.0854
   30TPM     C336398  -0.689  10.911   4.161  0.3445 -1.2698 -0.1171
   30TPM     C436399  -0.653  10.880   4.289  0.2759 -0.9154 -0.0089
   30TPM     S136400  -0.478  10.835   4.299  0.4877 -0.0543  0.3600
   31BDTP    C136401  -0.993  10.748   4.799 -0.0296 -0.2658 -0.3738
   31BDTP    C236402  -0.858  10.736   4.846 -0.0236 -0.2203 -0.3794
   31BDTP    C336403  -0.749  10.765   4.765 -0.0372 -0.1678 -0.3793
   31BDTP    C436404  -0.773  10.807   4.633 -0.0577 -0.1602 -0.3734
   31BDTP    C536405  -0.907  10.818   4.587 -0.0629 -0.2058 -0.3676
   31BDTP    C636406  -1.017  10.789   4.667 -0.0498 -0.2581 -0.3678
   31BDTP    C736407  -0.675  10.842   4.532 -0.0741 -0.1104 -0.3720
   31BDTP    C836408  -0.729  10.879   4.413 -0.0920 -0.1161 -0.3656
   31BDTP    S136409  -0.911  10.874   4.413 -0.0899 -0.1857 -0.3606
   31BDTP    C936410  -1.090  10.712   4.901 -0.0126 -0.3157 -0.3752
   31BDTP   C1036411  -1.036  10.676   5.019  0.0050 -0.3099 -0.3814
   31BDTP    S236412  -0.854  10.681   5.019  0.0031 -0.2401 -0.3864
   32FTM     S136413  -0.528  10.846   4.932 -0.1460  0.2140 -0.1540
   32FTM     C136414  -0.376  10.757   4.894 -0.5440 -0.5274 -0.0431
   32FTM     C236415  -0.401  10.661   4.800 -1.0448 -0.7675  0.3245
   32FTM     C336416  -0.536  10.651   4.754 -1.1470 -0.3989  0.5378
   32FTM     C436417  -0.617  10.743   4.814 -0.7102  0.1416  0.3260
   32FTM     F136418  -0.302  10.576   4.751 -1.4405 -1.3359  0.4902
   32FTM     C536419  -0.241  10.820   4.924 -0.0809 -0.1996 -0.8977
   32FTM     C636420  -0.196  10.968   4.917 -0.9955 -1.1233  0.8966
   32FTM     C736421  -0.155  11.023   4.773  0.1346 -0.3342  0.0268
   32FTM     C836422  -0.030  10.951   4.736 -0.1811 -0.2590  0.5398
   32FTM     C936423  -0.004  10.970   4.579  0.7095 -1.4113 -0.4747
   32FTM    C1036424  -0.091  10.943   4.454 -0.1445  0.5215 -0.8453
   32FTM    C1136425  -0.252  11.078   5.007 -0.5431 -0.6396 -0.5783
   32FTM    C1236426  -0.290  11.069   5.152 -1.0960 -0.3747  0.0518
   33FTM     S136427  -1.298  10.881   4.641  0.3480 -0.1270 -0.4024
   33FTM     C136428  -1.397  10.777   4.533  0.1844 -0.2266 -0.1585
   33FTM     C236429  -1.319  10.681   4.476  0.0517 -0.4289 -0.0010
   33FTM     C336430  -1.180  10.683   4.513  0.0679 -0.5171 -0.0590
   33FTM     C436431  -1.151  10.783   4.600  0.2188 -0.3777 -0.2679
   33FTM     F136432  -1.368  10.586   4.388 -0.0927 -0.5465  0.2050
   33FTM     C536433  -1.532  10.817   4.493  1.1184 -0.4632 -0.7556
   33FTM     C636434  -1.667  10.795   4.586 -0.2210 -0.4116 -0.1405
   33FTM     C736435  -1.789  10.757   4.506  0.3032 -0.4165  0.3406
   33FTM     C836436  -1.841  10.873   4.420 -1.0430  1.0389 -0.8356
   33FTM     C936437  -1.896  10.827   4.281  0.7442 -0.1924  0.0262
   33FTM    C1036438  -2.033  10.763   4.278  0.6049  1.2343 -0.5382
   33FTM    C1136439  -1.655  10.809   4.739  2.2388 -0.5539  0.2649
   33FTM    C1236440  -1.777  10.875   4.793  0.7377 -0.2382  0.7184
   34TPM     C136441  -1.108  10.615   5.124 -0.3306  0.0708 -0.3715
   34TPM     C236442  -1.067  10.590   5.252 -0.2413  0.1061 -0.3935
   34TPM     C336443  -1.172  10.547   5.340 -0.1729  0.0947 -0.3167
   34TPM     C436444  -1.294  10.538   5.279 -0.2103  0.0511 -0.2359
   34TPM     S136445  -1.285  10.585   5.105 -0.3355  0.0202 -0.2511
   35BDD     C136446  -1.544  10.374   5.542  0.1149 -0.0072  0.3851
   35BDD     C236447  -1.600  10.493   5.509  0.0839 -0.0277  0.3651
   35BDD     C336448  -1.526  10.566   5.407 -0.0830 -0.1514  0.1527
   35BDD     C436449  -1.414  10.500   5.365 -0.1767 -0.2235  0.0138
   35BDD     S136450  -1.393  10.343   5.449 -0.0625 -0.1419  0.1394
   35BDD     C536451  -1.725  10.546   5.568  0.2067  0.0660  0.5405
   35BDD     C636452  -1.569  10.698   5.356 -0.1431 -0.1931  0.0951
   35BDD     O136453  -1.504  10.760   5.268 -0.2868 -0.2997 -0.0880
   35BDD     O236454  -1.789  10.483   5.656  0.3505  0.1726  0.7236
   35BDD     C736455  -1.693  10.750   5.416 -0.0205 -0.0994  0.2706
   35BDD     C836456  -1.768  10.678   5.517  0.1462  0.0243  0.4830
   35BDD     C936457  -1.880  10.743   5.559  0.2406  0.0963  0.6219
   35BDD     S236458  -1.900  10.900   5.475  0.1264  0.0149  0.4964
   35BDD    C1036459  -1.750  10.870   5.382 -0.0510 -0.1197  0.2507
   35BDD    C1136460  -1.705  10.986   5.286 -1.0192 -0.5630 -1.3525
   35BDD    C1236461  -1.675  11.108   5.377  0.4001  0.1237  0.3140
   35BDD    C1336462  -1.571  11.094   5.480 -0.9593  0.2309 -0.5151
   35BDD    C1436463  -1.426  11.096   5.468 -0.8702  0.6265 -0.8705
   35BDD    C1536464  -1.382  11.171   5.600 -0.6019  1.3630 -0.7504
   35BDD    C1636465  -1.325  11.098   5.729 -1.0027 -0.1348 -1.4192
   35BDD    C1736466  -1.704  11.237   5.295 -0.3116 -0.3504  0.6770
   35BDD    C1836467  -1.723  11.387   5.374  0.9445 -0.4205  0.9505
   35BDD    C1936468  -1.995  10.703   5.647 -1.7631 -0.0222  0.6005
   35BDD    C2036469  -1.988  10.768   5.778  1.3484  0.6370 -1.8250
   35BDD    C2136470  -2.068  10.895   5.783 -0.1506  0.1943  0.4522
   35BDD    C2236471  -1.998  11.018   5.850  0.6772  0.8582  1.3873
   35BDD    C2336472  -1.986  11.141   5.752  0.8037  0.4400 -0.3912
   35BDD    C2436473  -1.853  11.201   5.727 -1.0068  0.0325 -0.6677
   35BDD    C2536474  -1.953  10.702   5.917 -0.2207  1.6117 -0.0342
   35BDD    C2636475  -1.969  10.540   5.939 -0.4018 -0.4992  0.1504
   36TPM     C136476  -1.576  10.261   5.629  0.6045  0.8185 -0.3349
   36TPM     C236477  -1.701  10.212   5.649  0.3037  1.4660 -0.5860
   36TPM     C336478  -1.704  10.077   5.700 -0.4926  1.5450 -0.3901
   36TPM     C436479  -1.580  10.024   5.719 -0.7997  0.9579  0.0104
   36TPM     S136480  -1.450  10.140   5.673 -0.1006  0.2540  0.1723
   37BDTP    C136481  -1.520   9.414   5.854 -0.0715  0.2279  0.0228
   37BDTP    C236482  -1.385   9.460   5.856 -0.0627  0.2129 -0.1782
   37BDTP    C336483  -1.351   9.593   5.836 -0.0861  0.2294 -0.1085
   37BDTP    C436484  -1.454   9.685   5.814 -0.1204  0.2627  0.1725
   37BDTP    C536485  -1.589   9.640   5.811 -0.1292  0.2775  0.3732
   37BDTP    C636486  -1.624   9.507   5.831 -0.1056  0.2609  0.3036
   37BDTP    C736487  -1.443   9.828   5.791 -0.1493  0.2849  0.2938
   37BDTP    C836488  -1.561   9.891   5.772 -0.1793  0.3154  0.5727
   37BDTP    S136489  -1.704   9.778   5.780 -0.1748  0.3204  0.7204
   37BDTP    C936490  -1.532   9.271   5.877 -0.0424  0.2058 -0.0989
   37BDTP   C1036491  -1.413   9.209   5.896 -0.0124  0.1750 -0.3777
   37BDTP    S236492  -1.271   9.321   5.887 -0.0170  0.1701 -0.5254
   38FTM     S136493  -1.109   9.627   5.671 -0.1284 -0.2220 -0.2991
   38FTM     C136494  -0.968   9.697   5.758 -0.4348  0.4795 -0.3503
   38FTM     C236495  -1.003   9.725   5.887 -0.7246  0.9818 -0.5337
   38FTM     C336496  -1.138   9.695   5.924 -0.7269  0.8550 -0.6430
   38FTM     C436497  -1.209   9.642   5.820 -0.4285  0.2352 -0.5398
   38FTM     F136498  -0.914   9.780   5.978 -1.0054  1.5862 -0.6136
   38FTM     C536499  -0.834   9.735   5.701  1.0151  1.1311 -0.4749
   38FTM     C636500  -0.806   9.869   5.633  0.8014 -0.1809  0.3792
   38FTM     C736501  -0.909   9.879   5.511  0.2546  0.8795 -0.7834
   38FTM     C836502  -0.899   9.782   5.388  0.0309  0.0560 -1.0341
   38FTM     C936503  -0.934   9.890   5.281  1.2060  0.8911  0.8192
   38FTM    C1036504  -0.962   9.824   5.143 -0.2349  0.0966 -0.2380
   38FTM    C1136505  -0.840   9.983   5.732  0.1912  0.5746 -0.2267
   38FTM    C1236506  -0.836  10.142   5.692 -0.0950  1.4316  1.4289
   39FTM     S136507  -1.805   9.318   5.735 -0.1766  0.6079  0.2091
   39FTM     C136508  -1.943   9.270   5.840 -0.3477  0.4475 -0.0845
   39FTM     C236509  -1.951   9.354   5.947 -0.6130  0.3777 -0.0485
   39FTM     C336510  -1.853   9.458   5.953 -0.6967  0.4437  0.2036
   39FTM     C436511  -1.767   9.454   5.847 -0.4897  0.5675  0.3659
   39FTM     F136512  -2.047   9.341   6.046 -0.7949  0.2503 -0.2418
   39FTM     C536513  -2.038   9.150   5.814 -1.7966 -0.5522 -0.7293
   39FTM     C636514  -1.969   9.048   5.726  0.3358 -0.7373  0.9084
   39FTM     C736515  -2.073   8.951   5.656 -1.3934  1.4435  0.2340
   39FTM     C836516  -2.163   8.998   5.552  0.3967 -0.3368  0.0832
   39FTM     C936517  -2.139   9.120   5.470 -0.3314 -0.9281 -0.1504
   39FTM    C1036518  -2.018   9.108   5.377  0.7735 -0.5888 -0.1930
   39FTM    C1136519  -1.842   8.983   5.772  0.5171  0.6867  0.1264
   39FTM    C1236520  -1.804   8.839   5.715 -0.2954  0.5743 -0.3178
   40TPM     C136521  -1.408   9.071   5.938 -0.4528  0.2596  0.3445
   40TPM     C236522  -1.509   8.980   5.941 -0.2539  0.0298  0.1309
   40TPM     C336523  -1.466   8.846   5.974  0.0906 -0.0298 -0.5186
   40TPM     C436524  -1.332   8.836   5.997  0.1547  0.1542 -0.8000
   40TPM     S136525  -1.249   8.994   5.978 -0.2180  0.4198 -0.2626
   41BDD     C136526  -1.233   8.457   6.010 -0.3141  0.4044  0.0041
   41BDD     C236527  -1.169   8.515   6.115 -0.2680  0.3088  0.0287
   41BDD     C336528  -1.190   8.658   6.124  0.0134  0.3552 -0.0312
   41BDD     C436529  -1.270   8.707   6.025  0.1779  0.4856 -0.1006
   41BDD     S136530  -1.325   8.578   5.914 -0.0083  0.5593 -0.0956
   41BDD     C536531  -1.085   8.440   6.212 -0.4814  0.1714  0.1081
   41BDD     C636532  -1.130   8.741   6.231  0.1092  0.2682 -0.0175
   41BDD     O136533  -1.148   8.865   6.239  0.3519  0.3080 -0.0693
   41BDD     O236534  -1.067   8.317   6.205 -0.7243  0.1316  0.1597
   41BDD     C736535  -1.046   8.667   6.328 -0.1042  0.1311  0.0620
   41BDD     C836536  -1.025   8.523   6.319 -0.3858  0.0846  0.1218
   41BDD     C936537  -0.945   8.474   6.418 -0.5505 -0.0455  0.1913
   41BDD     S236538  -0.890   8.604   6.529 -0.3642 -0.1194  0.1863
   41BDD    C1036539  -0.982   8.725   6.433 -0.0582  0.0353  0.0865
   41BDD    C1136540  -0.991   8.867   6.506 -0.4216  0.0998 -1.7865
   41BDD    C1236541  -0.870   8.957   6.531  1.1747 -0.4465 -0.9977
   41BDD    C1336542  -0.900   9.111   6.506 -0.0272  0.1054  0.4274
   41BDD    C1436543  -0.929   9.156   6.364  0.1399  1.3105  0.3207
   41BDD    C1536544  -0.848   9.097   6.248  0.3529 -2.8423  0.8220
   41BDD    C1636545  -0.920   9.099   6.117  0.4584  0.2640  0.3914
   41BDD    C1736546  -0.737   8.878   6.520  1.4486 -0.7852 -0.2881
   41BDD    C1836547  -0.625   8.934   6.616 -0.8063  0.6451  0.0771
   41BDD    C1936548  -0.914   8.332   6.477  0.4380 -2.3081 -0.1109
   41BDD    C2036549  -0.801   8.274   6.405 -0.0612 -0.2277 -0.3277
   41BDD    C2136550  -0.663   8.351   6.392 -0.8229 -0.6541 -0.2945
   41BDD    C2236551  -0.558   8.371   6.513  0.4095 -0.4600  0.1766
   41BDD    C2336552  -0.458   8.482   6.490 -0.5692  0.3348 -0.9340
   41BDD    C2436553  -0.350   8.491   6.603  1.0032 -0.4657  0.9344
   41BDD    C2536554  -0.782   8.140   6.455  0.9307 -0.0052 -0.0303
   41BDD    C2636555  -0.736   8.027   6.369  0.6910  0.6658  0.3252
   42TPM     C136556  -1.241   8.321   5.964 -0.4778  0.7136  0.5043
   42TPM     C236557  -1.188   8.276   5.846 -0.4165  0.8821  0.4679
   42TPM     C336558  -1.214   8.137   5.820 -0.4783  0.9406  0.2141
   42TPM     C436559  -1.286   8.075   5.918 -0.5874  0.8168  0.0569
   42TPM     S136560  -1.327   8.189   6.052 -0.6197  0.6153  0.2186
   43BDTP    C136561  -1.223   7.453   5.882  0.0474  0.1484 -0.5065
   43BDTP    C236562  -1.255   7.473   6.019 -0.0761 -0.0100 -0.5120
   43BDTP    C336563  -1.284   7.598   6.073 -0.2038 -0.0821 -0.4103
   43BDTP    C436564  -1.281   7.709   5.986 -0.2105  0.0061 -0.2977
   43BDTP    C536565  -1.249   7.689   5.849 -0.0868  0.1645 -0.2924
   43BDTP    C636566  -1.220   7.564   5.796  0.0410  0.2365 -0.3941
   43BDTP    C736567  -1.307   7.848   6.018 -0.3306 -0.0434 -0.1801
   43BDTP    C836568  -1.297   7.932   5.913 -0.3037  0.0689 -0.0881
   43BDTP    S136569  -1.252   7.848   5.758 -0.1223  0.2528 -0.1374
   43BDTP    C936570  -1.197   7.314   5.850  0.1678  0.1978 -0.6242
   43BDTP   C1036571  -1.207   7.230   5.955  0.1409  0.0857 -0.7162
   43BDTP    S236572  -1.252   7.314   6.110 -0.0405 -0.0984 -0.6671
   44FTM     S136573  -1.195   7.687   6.341  0.1403 -0.5162 -0.4380
   44FTM     C136574  -1.334   7.697   6.455 -0.3283  0.1499 -1.0513
   44FTM     C236575  -1.446   7.649   6.395 -0.4966  1.4377 -1.8271
   44FTM     C336576  -1.431   7.604   6.260 -0.2766  1.9720 -1.9879
   44FTM     C436577  -1.303   7.617   6.215  0.0715  1.0638 -1.3133
   44FTM     F136578  -1.570   7.644   6.458 -0.8597  2.2089 -2.4376
   44FTM     C536579  -1.325   7.772   6.579 -0.2163  0.2143 -1.7789
   44FTM     C636580  -1.226   7.879   6.597  0.1466 -0.1784  1.1920
   44FTM     C736581  -1.213   7.995   6.491 -1.0410  1.3933 -0.2064
   44FTM     C836582  -1.328   8.083   6.468  0.6953 -0.7573  1.0958
   44FTM     C936583  -1.299   8.219   6.534  0.0270  0.0976  1.1998
   44FTM    C1036584  -1.346   8.238   6.675  0.1559 -0.0517  0.4630
   44FTM    C1136585  -1.142   7.859   6.724  1.1668 -0.8598  0.0601
   44FTM    C1236586  -1.067   7.982   6.774  0.0053 -0.9592  0.2229
   45FTM     S136587  -1.363   7.564   5.558  0.2323 -0.1377  0.0439
   45FTM     C136588  -1.275   7.531   5.405  0.0191  0.8992 -0.3230
   45FTM     C236589  -1.143   7.509   5.431  0.1147  1.0192 -0.6943
   45FTM     C336590  -1.104   7.517   5.568  0.3538  0.3285 -0.7155
   45FTM     C436591  -1.209   7.546   5.650  0.4446 -0.3420 -0.3484
   45FTM     F136592  -1.051   7.480   5.331 -0.0088  1.7614 -1.0368
   45FTM     C536593  -1.329   7.522   5.267  1.4047  0.3901 -0.0993
   45FTM     C636594  -1.465   7.608   5.253 -0.6941  0.1221 -0.8381
   45FTM     C736595  -1.598   7.552   5.247 -0.5855 -0.5181 -0.2920
   45FTM     C836596  -1.628   7.503   5.097 -0.3648 -0.6367  0.0734
   45FTM     C936597  -1.731   7.586   5.012  0.4701  0.3645 -0.9954
   45FTM    C1036598  -1.759   7.531   4.872 -0.5326 -0.9361  0.1866
   45FTM    C1136599  -1.462   7.759   5.231 -1.3555  0.0740  0.0145
   45FTM    C1236600  -1.376   7.821   5.114  1.3656  0.3895 -0.5505
   46TPM     C136601  -1.186   7.087   5.944 -0.2819 -0.0311  0.3674
   46TPM     C236602  -1.059   7.038   5.937 -0.2143  0.0072  1.1638
   46TPM     C336603  -1.052   6.894   5.933 -0.1459  0.0094  1.1958
   46TPM     C436604  -1.174   6.834   5.937 -0.1616 -0.0272  0.4240
   46TPM     S136605  -1.308   6.954   5.946 -0.2644 -0.0676 -0.4098
   47BDD     C136606  -1.284   6.482   6.046  0.0475  0.3584  0.1881
   47BDD     C236607  -1.189   6.457   5.951  0.0689  0.2156  0.2460
   47BDD     C336608  -1.135   6.577   5.891  0.3197  0.1353  0.3111
   47BDD     C436609  -1.189   6.692   5.942  0.4863  0.2181  0.3022
   47BDD     S136610  -1.312   6.658   6.068  0.3402  0.4022  0.2112
   47BDD     C536611  -1.146   6.322   5.911 -0.1409  0.1477  0.2437
   47BDD     C636612  -1.031   6.574   5.786  0.3858 -0.0207  0.3804
   47BDD     O136613  -0.984   6.678   5.735  0.6022 -0.0899  0.4364
   47BDD     O236614  -1.193   6.218   5.963 -0.3572  0.2170  0.1875
   47BDD     C736615  -0.987   6.439   5.746  0.1757 -0.0887  0.3778
   47BDD     C836616  -1.042   6.318   5.806 -0.0753 -0.0083  0.3127
   47BDD     C936617  -0.988   6.203   5.756 -0.2420 -0.0911  0.3217
   47BDD     S236618  -0.865   6.238   5.630 -0.0960 -0.2752  0.4127
   47BDD    C1036619  -0.892   6.414   5.651  0.1969 -0.2315  0.4357
   47BDD    C1136620  -0.795   6.512   5.574 -0.2956 -0.6338  0.6075
   47BDD    C1236621  -0.759   6.510   5.423  0.0333 -0.4186 -0.9150
   47BDD    C1336622  -0.730   6.380   5.370 -0.5642  0.3438  0.6923
   47BDD    C1436623  -0.690   6.383   5.222 -0.4940  0.4559  0.3710
   47BDD    C1536624  -0.555   6.447   5.164 -1.3453  0.4218 -0.0721
   47BDD    C1636625  -0.540   6.377   5.027 -0.2127 -0.8637 -0.4750
   47BDD    C1736626  -0.887   6.562   5.363 -0.8361 -1.3971 -0.1512
   47BDD    C1836627  -0.857   6.721   5.321  0.6372 -0.0717  0.5257
   47BDD    C1936628  -1.002   6.044   5.791 -0.2648  0.3122  0.7677
   47BDD    C2036629  -1.058   5.961   5.667 -1.0503 -0.3065  0.4601
   47BDD    C2136630  -1.153   6.013   5.555  0.7092 -0.2534  0.5055
   47BDD    C2236631  -1.150   6.131   5.470 -0.2135  0.3569  0.4912
   47BDD    C2336632  -1.247   6.111   5.362 -0.3117  0.4915 -0.8076
   47BDD    C2436633  -1.171   6.145   5.239 -0.3828  0.5926  1.2213
   47BDD    C2536634  -1.073   5.823   5.675 -0.5699  1.1618 -0.6820
   47BDD    C2636635  -1.183   5.775   5.757 -0.8206  0.4939 -0.8335
   48TPM     C136636  -1.374   6.398   6.131 -0.8348  0.0827 -0.3144
   48TPM     C236637  -1.392   6.443   6.258 -0.5023  0.3725 -0.3667
   48TPM     C336638  -1.448   6.344   6.347  0.2098  0.4048  0.1358
   48TPM     C436639  -1.473   6.224   6.288  0.4206  0.1395  0.5714
   48TPM     S136640  -1.427   6.226   6.113 -0.2691 -0.1742  0.3792
   49BDTP    C136641  -1.745   5.715   6.534  0.0069 -0.1593 -0.1298
   49BDTP    C236642  -1.733   5.683   6.396  0.2320 -0.2192 -0.0969
   49BDTP    C336643  -1.677   5.771   6.303  0.3593 -0.2490 -0.0488
   49BDTP    C436644  -1.631   5.895   6.349  0.2604 -0.2183 -0.0319
   49BDTP    C536645  -1.643   5.927   6.487  0.0355 -0.1585 -0.0646
   49BDTP    C636646  -1.699   5.840   6.580 -0.0919 -0.1286 -0.1129
   49BDTP    C736647  -1.570   6.002   6.272  0.3594 -0.2399  0.0163
   49BDTP    C836648  -1.535   6.111   6.345  0.2213 -0.1997  0.0213
   49BDTP    S136649  -1.576   6.094   6.521 -0.0532 -0.1290 -0.0343
   49BDTP    C936650  -1.806   5.609   6.611 -0.0918 -0.1377 -0.1780
   49BDTP   C1036651  -1.840   5.500   6.538  0.0463 -0.1777 -0.1830
   49BDTP    S236652  -1.799   5.517   6.362  0.3208 -0.2487 -0.1274
   50FTM     S136653  -1.564   5.616   6.071  0.2943  0.5166 -0.2364
   50FTM     C136654  -1.610   5.675   5.907 -0.0101  0.3351 -0.2162
   50FTM     C236655  -1.703   5.775   5.919 -0.9267 -0.4869 -0.1978
   50FTM     C336656  -1.742   5.810   6.052 -1.4362 -1.0133 -0.1981
   50FTM     C436657  -1.677   5.736   6.146 -0.8917 -0.5800 -0.2175
   50FTM     F136658  -1.757   5.839   5.809 -1.3590 -0.8118 -0.1793
   50FTM     C536659  -1.537   5.619   5.790  0.7224 -1.7452 -0.3288
   50FTM     C636660  -1.546   5.481   5.739  0.3108 -0.1596  0.2292
   50FTM     C736661  -1.527   5.369   5.839 -0.6837  0.1985 -0.7078
   50FTM     C836662  -1.384   5.336   5.870  0.8799  0.0458  0.1897
   50FTM     C936663  -1.314   5.266   5.757  0.8048 -0.3391  0.3532
   50FTM    C1036664  -1.196   5.198   5.772 -0.9748  0.2288 -1.4317
   50FTM    C1136665  -1.646   5.460   5.628  0.4550 -0.8294 -0.0833
   50FTM    C1236666  -1.660   5.335   5.569  0.6376  0.5716  0.6320
   51FTM     S136667  -1.844   6.034   6.718  0.0865  0.0885  0.0105
   51FTM     C136668  -1.880   5.994   6.890 -0.3088 -0.0733 -0.1072
   51FTM     C236669  -1.817   5.879   6.925 -0.1793  0.0318  0.0044
   51FTM     C336670  -1.738   5.817   6.822  0.2258  0.2395  0.1841
   51FTM     C436671  -1.742   5.886   6.705  0.4120  0.2953  0.2108
   51FTM     F136672  -1.826   5.824   7.051 -0.4196 -0.0538 -0.0496
   51FTM     C536673  -1.978   6.090   6.974  0.2403  0.6154  0.2144
   51FTM     C636674  -1.941   6.237   7.016 -0.9034 -0.5049  0.4312
   51FTM     C736675  -1.814   6.260   7.124 -0.4266  0.2568  1.2351
   51FTM     C836676  -1.799   6.149   7.237 -1.9544  0.7067  0.6872
   51FTM     C936677  -1.814   6.228   7.361  0.2250  0.4045 -1.1346
   51FTM    C1036678  -1.804   6.145   7.488  0.0607 -0.5005 -0.0077
   51FTM    C1136679  -1.922   6.333   6.885 -0.8024 -1.0493  0.3134
   51FTM    C1236680  -2.048   6.374   6.798 -0.2270 -0.0952 -0.5893
   52TPM     C136681  -1.870   5.361   6.590  0.6224  0.6242  0.8734
   52TPM     C236682  -1.783   5.256   6.585  0.5898  0.6268  0.0651
   52TPM     C336683  -1.807   5.156   6.685  0.4048 -0.2737 -0.8527
   52TPM     C436684  -1.912   5.184   6.767  0.2971 -0.9631 -0.7441
   52TPM     S136685  -1.990   5.341   6.723  0.4211 -0.5248  0.5357
   53BDD     C136686  -2.171   4.960   6.971  0.4498 -0.2607 -0.0626
   53BDD     C236687  -2.048   4.928   7.021  0.4187 -0.1804  0.0669
   53BDD     C336688  -1.938   4.995   6.952  0.4385  0.0062  0.2791
   53BDD     C436689  -1.980   5.077   6.851  0.4845  0.0658  0.3085
   53BDD     S136690  -2.159   5.076   6.835  0.5062 -0.1079  0.0725
   53BDD     C536691  -2.026   4.834   7.133  0.3693 -0.2725  0.0000
   53BDD     C636692  -1.797   4.975   6.989  0.4110  0.1186  0.4451
   53BDD     O136693  -1.703   5.032   6.930  0.4282  0.2794  0.6281
   53BDD     O236694  -2.120   4.776   7.192  0.3521 -0.4333 -0.1830
   53BDD     C736695  -1.775   4.881   7.102  0.3622  0.0265  0.3784
   53BDD     C836696  -1.884   4.814   7.170  0.3421 -0.1600  0.1661
   53BDD     C936697  -1.843   4.732   7.271  0.2961 -0.2193  0.1366
   53BDD     S236698  -1.664   4.733   7.288  0.2748 -0.0459  0.3727
   53BDD    C1036699  -1.652   4.849   7.152  0.3309  0.1067  0.5077
   53BDD    C1136700  -1.506   4.895   7.113 -1.0274 -0.2776 -0.7269
   53BDD    C1236701  -1.436   5.027   7.125 -0.2732 -0.0756 -0.1757
   53BDD    C1336702  -1.414   5.048   7.270  1.3549 -0.7664 -0.1434
   53BDD    C1436703  -1.321   4.945   7.357 -1.2590 -0.1836  0.3702
   53BDD    C1536704  -1.173   4.960   7.305  0.3216 -0.4077 -0.1058
   53BDD    C1636705  -1.126   5.073   7.392  0.6949 -0.1204 -0.2321
   53BDD    C1736706  -1.474   5.173   7.063  0.6543  0.1661 -0.0835
   53BDD    C1836707  -1.360   5.225   6.984  0.4580 -0.6750 -0.0349
   53BDD    C1936708  -1.931   4.655   7.380 -0.6691  0.4058 -0.4354
   53BDD    C2036709  -1.946   4.507   7.343 -0.6453  0.2665 -1.3233
   53BDD    C2136710  -2.030   4.445   7.449 -0.4083  0.7169  0.3083
   53BDD    C2236711  -1.995   4.444   7.598 -1.0108  0.0328  0.0087
   53BDD    C2336712  -2.103   4.354   7.670  0.5023  0.6984  0.1504
   53BDD    C2436713  -2.097   4.206   7.641  0.2406  0.6003  0.1827
   53BDD    C2536714  -1.825   4.422   7.278  1.0174  0.2763  0.0124
   53BDD    C2636715  -1.700   4.402   7.358 -0.1281 -0.1683  1.1592
   54TPM     C136716  -2.303   4.898   6.980 -0.0104  1.2347  0.0677
   54TPM     C236717  -2.368   4.915   7.099 -0.0536  1.0853  0.0660
   54TPM     C336718  -2.511   4.914   7.087 -0.0634  0.2811  0.1271
   54TPM     C436719  -2.556   4.896   6.960 -0.0279 -0.1827  0.1752
   54TPM     S136720  -2.419   4.879   6.843  0.0212  0.3645  0.1470
   55BDTP    C136721  -3.152   4.751   6.811  0.5493 -0.1557 -0.3437
   55BDTP    C236722  -3.147   4.888   6.771  0.3021 -0.0805 -0.1252
   55BDTP    C336723  -3.032   4.965   6.782  0.1571  0.1183  0.0190
   55BDTP    C436724  -2.916   4.904   6.835  0.2606  0.2494 -0.0556
   55BDTP    C536725  -2.921   4.767   6.875  0.5081  0.1743 -0.2743
   55BDTP    C636726  -3.037   4.691   6.864  0.6531 -0.0246 -0.4183
   55BDTP    C736727  -2.786   4.964   6.856  0.1462  0.4611  0.0637
   55BDTP    C836728  -2.694   4.879   6.909  0.2942  0.5473 -0.0535
   55BDTP    S136729  -2.760   4.713   6.940  0.5987  0.3726 -0.3312
   55BDTP    C936730  -3.282   4.692   6.791  0.6633 -0.3674 -0.4629
   55BDTP   C1036731  -3.374   4.776   6.738  0.5157 -0.4536 -0.3457
   55BDTP    S236732  -3.308   4.943   6.707  0.2112 -0.2789 -0.0681
   56FTM     S136733  -3.046   5.216   6.937  0.3312  0.0495  0.1033
   56FTM     C136734  -3.020   5.366   6.841  0.3001 -0.0542 -0.0688
   56FTM     C236735  -3.003   5.335   6.710  0.1531 -0.1893 -0.0571
   56FTM     C336736  -3.008   5.196   6.677  0.0575 -0.2196  0.0830
   56FTM     C436737  -3.030   5.118   6.786  0.1343 -0.1040  0.1819
   56FTM     F136738  -2.981   5.431   6.612  0.0958 -0.2934 -0.1731
   56FTM     C536739  -3.035   5.501   6.907 -1.4388  0.2582 -0.4275
   56FTM     C636740  -3.156   5.569   6.974  0.2840 -1.3477 -0.7494
   56FTM     C736741  -3.118   5.716   7.023  0.5132 -0.0530  0.0860
   56FTM     C836742  -3.106   5.814   6.908 -0.6086  0.1350 -0.6745
   56FTM     C936743  -2.963   5.843   6.867 -0.6681  0.8466  1.1593
   56FTM    C1036744  -2.896   5.953   6.954 -0.1419 -0.0358  0.2349
   56FTM    C1136745  -3.304   5.584   6.912 -0.6516  0.7186 -0.9074
   56FTM    C1236746  -3.356   5.478   6.811 -0.2255  1.0269  0.0142
   57FTM     S136747  -2.996   4.528   7.085  0.1193 -0.0862 -0.1392
   57FTM     C136748  -2.966   4.355   7.048 -1.4286 -0.4416  0.0984
   57FTM     C236749  -2.978   4.333   6.914 -2.0671 -0.6223  0.1818
   57FTM     C336750  -3.012   4.448   6.835 -1.4076 -0.4985  0.0689
   57FTM     C436751  -3.026   4.560   6.910 -0.2255 -0.2138 -0.1069
   57FTM     F136752  -2.960   4.209   6.856 -3.2866 -0.9108  0.3655
   57FTM     C536753  -2.934   4.264   7.162  0.0506 -0.6127  0.2223
   57FTM     C636754  -3.027   4.281   7.302  0.7215  0.3629  1.0108
   57FTM     C736755  -2.996   4.172   7.402 -0.6035 -0.8962 -0.2630
   57FTM     C836756  -3.015   4.025   7.370 -0.1334  0.6315  0.2245
   57FTM     C936757  -3.015   3.940   7.494  0.8888  0.3065 -0.0962
   57FTM    C1036758  -3.057   3.812   7.439 -0.2781 -0.1265  0.4618
   57FTM    C1136759  -3.046   4.410   7.377 -0.0914 -0.1105 -0.6330
   57FTM    C1236760  -2.918   4.453   7.466 -1.2481 -0.8097 -0.0192
   58TPM     C136761  -3.506   4.754   6.720  0.6365 -0.8783 -0.0236
   58TPM     C236762  -3.563   4.761   6.596  1.2717 -1.7819 -0.3921
   58TPM     C336763  -3.701   4.720   6.594  1.1873 -1.4952 -0.7265
   58TPM     C436764  -3.749   4.681   6.716  0.4876 -0.3729 -0.6129
   58TPM     S136765  -3.622   4.694   6.843 -0.1236  0.4148 -0.0708
   59BDD     C136766  -4.060   4.505   6.878  0.0828  0.2544  0.1490
   59BDD     C236767  -4.095   4.527   6.748  0.0503  0.1069  0.1326
   59BDD     C336768  -3.996   4.603   6.673  0.0442 -0.0005  0.0144
   59BDD     C436769  -3.887   4.637   6.748  0.0721  0.0664 -0.0577
   59BDD     S136770  -3.900   4.577   6.916  0.1080  0.2688  0.0175
   59BDD     C536771  -4.221   4.479   6.687  0.0238  0.0595  0.2251
   59BDD     C636772  -4.014   4.638   6.531  0.0112 -0.1661 -0.0230
   59BDD     O136773  -3.929   4.703   6.467  0.0060 -0.2587 -0.1251
   59BDD     O236774  -4.306   4.413   6.752  0.0288  0.1522  0.3270
   59BDD     C736775  -4.140   4.590   6.470 -0.0156 -0.2134  0.0694
   59BDD     C836776  -4.239   4.514   6.545 -0.0097 -0.1060  0.1876
   59BDD     C936777  -4.348   4.479   6.470 -0.0374 -0.1730  0.2595
   59BDD     S236778  -4.335   4.539   6.302 -0.0732 -0.3754  0.1843
   59BDD    C1036779  -4.175   4.612   6.340 -0.0479 -0.3610  0.0528
   59BDD    C1136780  -4.128   4.713   6.231  0.7624 -0.0344  0.8126
   59BDD    C1236781  -4.039   4.656   6.109  2.6032 -1.4210 -1.8446
   59BDD    C1336782  -3.893   4.661   6.142 -0.5922  0.0616 -0.0581
   59BDD    C1436783  -3.779   4.650   6.034  0.2431  0.4753  0.7420
   59BDD    C1536784  -3.822   4.589   5.894  0.2751 -0.1175  0.9422
   59BDD    C1636785  -3.710   4.601   5.796 -0.2982  1.4352 -0.2274
   59BDD    C1736786  -4.111   4.548   6.018 -0.0901  1.0315 -0.8431
   59BDD    C1836787  -4.069   4.406   6.030  0.3597 -0.2986 -0.7771
   59BDD    C1936788  -4.479   4.404   6.478 -0.8161 -0.8346 -1.4290
   59BDD    C2036789  -4.615   4.486   6.476  0.6497  0.1631  0.1047
   59BDD    C2136790  -4.746   4.405   6.473 -0.6008  1.2717  0.0310
   59BDD    C2236791  -4.831   4.411   6.594  0.8015  1.7872  0.3491
   59BDD    C2336792  -4.799   4.295   6.683 -0.9860 -0.9206 -0.4601
   59BDD    C2436793  -4.781   4.155   6.629  0.7721  0.5593 -0.1613
   59BDD    C2536794  -4.635   4.603   6.376  0.0101 -0.4987 -0.6367
   59BDD    C2636795  -4.759   4.702   6.369 -1.0757  1.2757  0.0022
   60TPM     C136796  -4.104   4.403   6.983 -0.1249 -0.1560 -0.0502
   60TPM     C236797  -4.142   4.437   7.109  0.0831  0.1326 -0.0633
   60TPM     C336798  -4.202   4.329   7.183 -0.1366  0.4002  0.1540
   60TPM     C436799  -4.211   4.212   7.112 -0.5118  0.3155  0.3331
   60TPM     S136800  -4.142   4.230   6.946 -0.6177 -0.1119  0.2405
    1BDTP    C136801   2.688   3.966   7.415 -0.3733  0.4410 -0.2654
    1BDTP    C236802   2.761   4.046   7.508 -0.1847  0.2147 -0.2151
    1BDTP    C336803   2.761   4.185   7.502  0.0383  0.2218 -0.0532
    1BDTP    C436804   2.686   4.248   7.401  0.0775  0.4629  0.0650
    1BDTP    C536805   2.613   4.167   7.309 -0.1110  0.6891  0.0148
    1BDTP    C636806   2.613   4.028   7.314 -0.3341  0.6820 -0.1471
    1BDTP    C736807   2.671   4.389   7.375  0.2932  0.5182  0.2397
    1BDTP    C836808   2.592   4.419   7.270  0.2760  0.7714  0.3219
    1BDTP    S136809   2.524   4.271   7.188 -0.0160  0.9760  0.1899
    1BDTP    C936810   2.703   3.824   7.441 -0.5890  0.3858 -0.4399
    1BDTP   C1036811   2.782   3.795   7.547 -0.5717  0.1323 -0.5223
    1BDTP    S236812   2.850   3.942   7.628 -0.2797 -0.0721 -0.3901
    2FTM     S136813   2.870   4.212   7.777 -0.2941  0.4232 -0.0022
    2FTM     C136814   2.988   4.347   7.791 -0.0769  0.1899  0.4595
    2FTM     C236815   2.989   4.420   7.677  0.5062  0.1998  0.4654
    2FTM     C336816   2.901   4.376   7.573  0.8123  0.3849  0.1196
    2FTM     C436817   2.829   4.266   7.610  0.4517  0.5216 -0.1602
    2FTM     F136818   3.071   4.531   7.658  0.7975  0.0418  0.7843
    2FTM     C536819   3.093   4.347   7.892 -0.0902 -2.2656 -0.1661
    2FTM     C636820   3.122   4.467   7.976 -0.2360 -0.1822 -1.8644
    2FTM     C736821   3.276   4.489   7.980 -0.1109  0.5315  0.0236
    2FTM     C836822   3.363   4.558   7.879  0.2987 -0.0203  0.8766
    2FTM     C936823   3.495   4.637   7.916 -0.6931 -0.1039 -0.8160
    2FTM    C1036824   3.583   4.568   8.027  0.1694 -0.6693  0.8149
    2FTM    C1136825   3.058   4.483   8.122 -0.6187 -0.2133  0.2494
    2FTM    C1236826   3.107   4.425   8.257  0.4946  0.7203  0.7308
    3FTM     S136827   2.505   3.782   7.202 -1.2294  0.6945  0.5960
    3FTM     C136828   2.499   3.784   7.022  0.4852  0.0509  0.4927
    3FTM     C236829   2.535   3.907   6.975  2.4972 -0.5519  0.2600
    3FTM     C336830   2.569   4.004   7.074  2.8204 -0.5500  0.1504
    3FTM     C436831   2.558   3.955   7.201  0.9963  0.0744  0.3043
    3FTM     F136832   2.539   3.937   6.840  4.1658 -1.1410  0.1324
    3FTM     C536833   2.458   3.650   6.952  1.1149 -0.8447 -0.6864
    3FTM     C636834   2.340   3.564   7.019  0.5132 -0.7364  0.0803
    3FTM     C736835   2.201   3.600   6.969  0.2518 -0.6307 -0.6614
    3FTM     C836836   2.115   3.700   7.040  0.3630  0.6669  0.1604
    3FTM     C936837   1.983   3.740   6.977  0.3583  0.5254  0.2280
    3FTM    C1036838   1.850   3.672   7.022 -0.4697  1.4401  0.1115
    3FTM    C1136839   2.340   3.492   7.162  0.4639  0.0366 -0.0753
    3FTM    C1236840   2.462   3.390   7.163  0.8199 -0.0201  0.6019
    4TPM     C136841   2.833   3.651   7.592  0.8604 -0.2671  0.0966
    4TPM     C236842   2.909   3.560   7.523  0.7949 -0.4671  0.2854
    4TPM     C336843   2.946   3.445   7.601  0.2452 -0.5994  0.3631
    4TPM     C436844   2.899   3.448   7.729 -0.1085 -0.5005  0.2334
    4TPM     S136845   2.803   3.597   7.761  0.2279 -0.2302  0.0011
    5BDD     C136846   3.174   3.349   7.999 -0.0470 -0.1225  0.2452
    5BDD     C236847   3.139   3.230   7.941 -0.0781 -0.0883  0.1935
    5BDD     C336848   3.035   3.243   7.841  0.0522  0.0083  0.0701
    5BDD     C436849   2.992   3.372   7.824  0.1807  0.0464  0.0297
    5BDD     S136850   3.079   3.486   7.932  0.1475 -0.0361  0.1432
    5BDD     C536851   3.200   3.100   7.976 -0.2289 -0.1432  0.2555
    5BDD     C636852   2.982   3.128   7.766  0.0443  0.0594 -0.0033
    5BDD     O136853   2.893   3.139   7.679  0.1567  0.1427 -0.1097
    5BDD     O236854   3.290   3.089   8.063 -0.3413 -0.2264  0.3624
    5BDD     C736855   3.044   2.998   7.801 -0.1063  0.0045  0.0588
    5BDD     C836856   3.148   2.985   7.901 -0.2366 -0.0921  0.1825
    5BDD     C936857   3.191   2.856   7.918 -0.3653 -0.1302  0.2227
    5BDD     S236858   3.104   2.742   7.810 -0.3320 -0.0478  0.1092
    5BDD    C1036859   3.009   2.879   7.743 -0.1374  0.0386  0.0070
    5BDD    C1136860   2.902   2.846   7.644 -0.4587 -0.8768 -1.1030
    5BDD    C1236861   2.806   2.727   7.672  0.1641  0.0234  0.5287
    5BDD    C1336862   2.705   2.700   7.560  0.3768 -0.4081  0.1084
    5BDD    C1436863   2.610   2.800   7.502 -1.0029 -0.3351  0.7164
    5BDD    C1536864   2.479   2.859   7.553 -0.2036  0.3104  0.2992
    5BDD    C1636865   2.366   2.760   7.531  0.5091  0.8385 -1.2287
    5BDD    C1736866   2.732   2.714   7.806  1.9408  1.3173  0.2544
    5BDD    C1836867   2.648   2.827   7.876  0.1284  0.5466 -0.0674
    5BDD    C1936868   3.318   2.805   7.994  0.7441  0.1768  1.0133
    5BDD    C2036869   3.299   2.708   8.106 -0.2228  0.1550  0.7367
    5BDD    C2136870   3.262   2.759   8.248  1.0869 -0.4391 -0.4050
    5BDD    C2236871   3.368   2.843   8.331  1.5679  0.7368  1.3519
    5BDD    C2336872   3.310   2.916   8.458 -0.7057  0.1877  0.5533
    5BDD    C2436873   3.422   2.947   8.548  0.9005 -0.4618 -0.2727
    5BDD    C2536874   3.419   2.598   8.103  0.3807  0.0308 -0.1108
    5BDD    C2636875   3.394   2.460   8.167 -0.4476  0.0084 -0.0226
    6TPM     C136876   3.279   3.396   8.090 -0.3409  0.5706  0.1597
    6TPM     C236877   3.266   3.385   8.226 -0.5419  0.5565  0.1400
    6TPM     C336878   3.364   3.460   8.299 -0.3276  0.1359  0.2880
    6TPM     C436879   3.452   3.529   8.221  0.0369 -0.1707  0.4206
    6TPM     S136880   3.417   3.503   8.045  0.1384  0.0497  0.3678
    7BDTP    C136881   3.928   3.901   8.371 -0.1349 -0.1928 -0.1035
    7BDTP    C236882   3.968   3.842   8.248 -0.2232 -0.2688 -0.0956
    7BDTP    C336883   3.889   3.751   8.179 -0.3603 -0.1580 -0.0854
    7BDTP    C436884   3.764   3.717   8.235 -0.4130  0.0368 -0.0820
    7BDTP    C536885   3.724   3.776   8.358 -0.3247  0.1128 -0.0899
    7BDTP    C636886   3.804   3.867   8.427 -0.1875  0.0020 -0.1003
    7BDTP    C736887   3.665   3.625   8.182 -0.5513  0.1793 -0.0713
    7BDTP    C836888   3.554   3.613   8.259 -0.5710  0.3563 -0.0708
    7BDTP    S136889   3.560   3.716   8.409 -0.4169  0.3674 -0.0834
    7BDTP    C936890   4.027   3.993   8.424  0.0036 -0.3352 -0.1140
    7BDTP   C1036891   4.138   4.005   8.348  0.0231 -0.5121 -0.1147
    7BDTP    S236892   4.133   3.902   8.198 -0.1309 -0.5232 -0.1023
    8FTM     S136893   3.833   3.685   7.915 -0.2346 -0.2215 -0.4039
    8FTM     C136894   3.953   3.573   7.840  0.6164  0.2117  0.2865
    8FTM     C236895   4.053   3.547   7.929  0.1464  0.4895  0.9133
    8FTM     C336896   4.042   3.611   8.057 -0.8793  0.3849  0.8955
    8FTM     C436897   3.930   3.688   8.067 -1.2053  0.0150  0.2335
    8FTM     F136898   4.160   3.464   7.899  0.6170  0.8548  1.5405
    8FTM     C536899   3.933   3.511   7.712  0.2532 -0.0143 -0.2152
    8FTM     C636900   4.034   3.503   7.613 -0.1577 -1.1534  0.9530
    8FTM     C736901   4.053   3.623   7.509  0.1458  0.4823 -0.0086
    8FTM     C836902   4.161   3.722   7.545 -0.7363  0.1547 -1.1306
    8FTM     C936903   4.246   3.721   7.687  0.7271 -0.4377 -1.5894
    8FTM    C1036904   4.389   3.700   7.671 -0.7969  0.1939 -0.0519
    8FTM    C1136905   4.055   3.365   7.550 -0.4100  0.2864 -0.4036
    8FTM    C1236906   4.063   3.226   7.618 -0.4305  0.1318 -0.1978
    9FTM     S136907   3.733   4.075   8.618  0.2233  0.4110 -0.0656
    9FTM     C136908   3.711   4.012   8.785 -0.0815  0.8497  0.0636
    9FTM     C236909   3.737   3.878   8.788 -0.3612  0.8004  0.4055
    9FTM     C336910   3.774   3.818   8.664 -0.3558  0.4277  0.5836
    9FTM     C436911   3.777   3.909   8.562 -0.0622  0.1835  0.3710
    9FTM     F136912   3.728   3.803   8.904 -0.6388  1.0899  0.5779
    9FTM     C536913   3.650   4.087   8.902  0.4183 -1.3216  0.0421
    9FTM     C636914   3.744   4.188   8.982  0.0581  0.7081  1.1209
    9FTM     C736915   3.688   4.288   9.089  0.2643 -0.8639 -0.1330
    9FTM     C836916   3.576   4.226   9.188  1.7061  0.7313  0.0381
    9FTM     C936917   3.470   4.319   9.251 -0.3998 -0.4588  1.1591
    9FTM    C1036918   3.395   4.403   9.158  0.8012 -0.2563  1.1968
    9FTM    C1136919   3.878   4.106   9.022 -0.6700  1.1704  0.2841
    9FTM    C1236920   3.983   4.191   9.101 -0.4928 -0.5957  1.0411
   10TPM     C136921   4.259   4.069   8.374 -0.3751 -0.1507  0.6862
   10TPM     C236922   4.386   4.019   8.370 -0.3760 -0.1472  0.6075
   10TPM     C336923   4.487   4.120   8.386 -0.3558 -0.0825  0.1078
   10TPM     C436924   4.438   4.246   8.402 -0.3396 -0.0364 -0.1945
   10TPM     S136925   4.258   4.247   8.398 -0.3485 -0.0716  0.1310
   11BDD     C136926   4.765   4.470   8.354 -0.2467  0.0869 -0.1292
   11BDD     C236927   4.662   4.554   8.320 -0.2517  0.1129 -0.0496
   11BDD     C336928   4.531   4.492   8.329 -0.2538  0.1200 -0.0329
   11BDD     C436929   4.535   4.362   8.370 -0.2509  0.0993 -0.0998
   11BDD     S136930   4.704   4.307   8.399 -0.2447  0.0697 -0.1881
   11BDD     C536931   4.681   4.695   8.279 -0.2543  0.1318  0.0136
   11BDD     C636932   4.407   4.565   8.298 -0.2589  0.1467  0.0484
   11BDD     O136933   4.294   4.512   8.305 -0.2608  0.1529  0.0627
   11BDD     O236934   4.794   4.748   8.271 -0.2525  0.1259 -0.0007
   11BDD     C736935   4.426   4.706   8.256 -0.2618  0.1659  0.1118
   11BDD     C836936   4.557   4.768   8.247 -0.2595  0.1588  0.0954
   11BDD     C936937   4.553   4.898   8.207 -0.2626  0.1796  0.1624
   11BDD     S236938   4.384   4.953   8.178 -0.2686  0.2092  0.2506
   11BDD    C1036939   4.323   4.790   8.223 -0.2664  0.1919  0.1915
   11BDD    C1136940   4.179   4.786   8.183 -0.4584  1.1888 -0.9989
   11BDD    C1236941   4.105   4.884   8.072  1.6179 -0.1673 -1.5898
   11BDD    C1336942   4.115   4.863   7.926 -0.5814  0.0557  0.1579
   11BDD    C1436943   4.110   4.719   7.865 -1.1597 -0.3023  1.1357
   11BDD    C1536944   4.249   4.671   7.841  0.2934 -0.7734  0.2325
   11BDD    C1636945   4.264   4.527   7.788  0.0969  0.7676  0.3487
   11BDD    C1736946   4.060   5.030   8.110  0.6265  0.2301  1.7078
   11BDD    C1836947   3.962   5.060   8.217  0.7289  0.4977  0.7984
   11BDD    C1936948   4.644   5.018   8.232  0.1752 -0.0206  0.8165
   11BDD    C2036949   4.781   5.010   8.141  0.2209  0.2318 -0.3197
   11BDD    C2136950   4.874   5.129   8.160  0.3008 -0.4876 -0.0858
   11BDD    C2236951   4.922   5.170   8.299  0.9601 -0.3193 -0.9745
   11BDD    C2336952   4.985   5.304   8.296 -1.0932 -0.6347 -0.3735
   11BDD    C2436953   5.067   5.367   8.416  0.3076 -0.1126  0.0962
   11BDD    C2536954   4.758   4.959   7.993  0.6978  0.3794  0.6613
   11BDD    C2636955   4.884   4.960   7.898  0.2001  0.5063  0.0382
   12TPM     C136956   4.911   4.487   8.371  0.2295  0.0781 -0.8387
   12TPM     C236957   4.955   4.589   8.451 -0.0874  0.5647 -1.2741
   12TPM     C336958   5.097   4.588   8.474 -0.2058  0.5502 -0.5021
   12TPM     C436959   5.162   4.485   8.413  0.0208  0.0526  0.5228
   12TPM     S136960   5.047   4.381   8.319  0.4042 -0.4401  0.5923
   13BDTP    C136961   5.727   4.336   8.632 -0.0923 -0.1192  0.3288
   13BDTP    C236962   5.642   4.237   8.690 -0.0443 -0.2420  0.1929
   13BDTP    C336963   5.506   4.230   8.664 -0.0058 -0.3942  0.0312
   13BDTP    C436964   5.450   4.324   8.576 -0.0149 -0.4271  0.0017
   13BDTP    C536965   5.535   4.423   8.517 -0.0627 -0.3043  0.1371
   13BDTP    C636966   5.671   4.430   8.543 -0.1012 -0.1521  0.2992
   13BDTP    C736967   5.312   4.336   8.534  0.0193 -0.5756 -0.1554
   13BDTP    C836968   5.289   4.438   8.447 -0.0002 -0.5704 -0.1442
   13BDTP    S136969   5.439   4.533   8.407 -0.0648 -0.3765  0.0672
   13BDTP    C936970   5.865   4.324   8.674 -0.1264  0.0293  0.4859
   13BDTP   C1036971   5.888   4.222   8.760 -0.1068  0.0240  0.4742
   13BDTP    S236972   5.738   4.127   8.801 -0.0422 -0.1699  0.2634
   14FTM     S136973   5.329   4.106   8.870  0.0451 -0.1330 -0.4316
   14FTM     C136974   5.241   3.963   8.807  0.2528 -0.3828 -0.1604
   14FTM     C236975   5.283   3.935   8.680  0.6640 -0.8770  0.0763
   14FTM     C336976   5.383   4.021   8.626  0.8385 -1.0866  0.0618
   14FTM     C436977   5.420   4.119   8.714  0.5512 -0.7414 -0.1944
   14FTM     F136978   5.232   3.829   8.606  0.9069 -1.1690  0.3200
   14FTM     C536979   5.136   3.888   8.897  0.3733 -0.4209 -0.1550
   14FTM     C636980   5.005   3.954   8.955 -1.1985  0.2515  1.1276
   14FTM     C736981   4.921   3.960   8.817 -0.6428 -0.4235 -0.1757
   14FTM     C836982   4.770   3.944   8.866 -0.8385 -1.0991  0.6169
   14FTM     C936983   4.657   3.964   8.762  0.9261  0.3818  1.1122
   14FTM    C1036984   4.704   4.011   8.618 -0.1980  0.2545 -0.3315
   14FTM    C1136985   5.008   4.089   9.036 -0.0442 -0.1134 -0.0694
   14FTM    C1236986   5.094   4.096   9.162  0.4195 -0.2819 -0.1950
   15FTM     S136987   5.881   4.617   8.520  0.2000 -0.0375 -0.6323
   15FTM     C136988   5.919   4.663   8.350 -1.2422 -0.2503 -1.0434
   15FTM     C236989   5.838   4.596   8.264 -1.8009 -0.5693 -0.2844
   15FTM     C336990   5.742   4.507   8.324 -1.1569 -0.6653  0.6394
   15FTM     C436991   5.752   4.505   8.460 -0.0700 -0.4116  0.5871
   15FTM     F136992   5.844   4.611   8.126 -2.9283 -0.7932 -0.3824
   15FTM     C536993   6.012   4.785   8.336 -1.0216  0.1656 -0.2422
   15FTM     C636994   5.982   4.929   8.294  0.0395  1.2806  0.0499
   15FTM     C736995   5.883   5.000   8.391  1.2761 -0.0584 -0.6507
   15FTM     C836996   5.805   5.127   8.341  1.1442  1.5094  0.2642
   15FTM     C936997   5.709   5.201   8.442 -1.2814 -0.2343 -0.8067
   15FTM    C1036998   5.725   5.353   8.408  0.4797 -0.7856  0.4467
   15FTM    C1136999   5.976   4.970   8.152 -1.2856 -0.1641  0.0756
   15FTM    C1237000   5.871   4.922   8.060  0.8630  0.4673 -1.2180
   16TPM     C137001   6.014   4.202   8.834 -0.0372  0.2895 -0.0382
   16TPM     C237002   6.039   4.107   8.928 -0.0050 -0.0787 -0.4153
   16TPM     C337003   6.165   4.125   8.997  0.2135 -0.5822 -0.6695
   16TPM     C437004   6.235   4.234   8.955  0.3480 -0.5981 -0.4864
   16TPM     S137005   6.147   4.324   8.825  0.2080  0.0266  0.0252
   17BDD     C137006   6.568   4.409   9.098  0.1631  0.0885 -0.0160
   17BDD     C237007   6.607   4.282   9.063  0.0099  0.0273  0.0322
   17BDD     C337008   6.500   4.202   9.007 -0.2060 -0.0225  0.5066
   17BDD     C437009   6.381   4.268   9.000 -0.2144  0.0016  0.8125
   17BDD     S137010   6.394   4.436   9.062  0.0474  0.0881  0.5286
   17BDD     C537011   6.745   4.231   9.081  0.0566  0.0123 -0.3557
   17BDD     C637012   6.520   4.062   8.964 -0.3960 -0.0920  0.6385
   17BDD     O137013   6.428   3.993   8.915 -0.5822 -0.1349  1.0474
   17BDD     O237014   6.837   4.300   9.130  0.2427  0.0553 -0.7646
   17BDD     C737015   6.658   4.011   8.981 -0.3494 -0.1068  0.2511
   17BDD     C837016   6.765   4.091   9.038 -0.1334 -0.0572 -0.2234
   17BDD     C937017   6.884   4.025   9.045 -0.1251 -0.0812 -0.5295
   17BDD     S237018   6.871   3.857   8.983 -0.3869 -0.1678 -0.2455
   17BDD    C1037019   6.697   3.884   8.947 -0.5025 -0.1683  0.2995
   17BDD    C1137020   6.634   3.756   8.904  0.0877 -0.1569 -1.0664
   17BDD    C1237021   6.572   3.668   8.996  0.6512 -0.5696 -0.9671
   17BDD    C1337022   6.646   3.661   9.120  0.1669 -0.5414 -0.2667
   17BDD    C1437023   6.604   3.586   9.235  0.8612 -0.3718  0.4233
   17BDD    C1537024   6.716   3.533   9.333 -0.0303 -1.0669 -0.0394
   17BDD    C1637025   6.772   3.621   9.438  0.6374 -0.7388  0.1815
   17BDD    C1737026   6.535   3.536   8.922 -1.0435 -0.2244 -0.9077
   17BDD    C1837027   6.491   3.521   8.778 -0.9967  0.4374 -0.4255
   17BDD    C1937028   7.023   4.066   9.096 -0.2898 -1.1900  0.0455
   17BDD    C2037029   7.049   3.983   9.226  0.3135 -1.0744 -0.0881
   17BDD    C2137030   7.195   3.976   9.286 -0.9273 -0.7844 -1.8322
   17BDD    C2237031   7.249   3.853   9.351 -1.1532  0.5436  2.1600
   17BDD    C2337032   7.294   3.767   9.232 -1.1915 -0.0974 -1.1526
   17BDD    C2437033   7.355   3.634   9.251  0.5697  0.1533  0.4119
   17BDD    C2537034   6.942   3.948   9.346 -0.0646 -0.3699 -0.4771
   17BDD    C2637035   6.914   4.063   9.440 -1.5563  0.2836  0.7642
   18TPM     C137036   6.635   4.535   9.132 -0.3398  0.1953 -0.1508
   18TPM     C237037   6.698   4.568   9.248 -0.0967  0.0652 -0.2456
   18TPM     C337038   6.760   4.698   9.245  0.2853 -0.1136 -0.3839
   18TPM     C437039   6.743   4.764   9.127  0.3337 -0.1200 -0.3942
   18TPM     S137040   6.647   4.667   9.009 -0.1030  0.1011 -0.2295
   19BDTP    C137041   7.056   5.278   8.972 -0.3076 -0.3301  0.2060
   19BDTP    C237042   6.941   5.290   8.889 -0.2342 -0.4108  0.0911
   19BDTP    C337043   6.839   5.195   8.888 -0.1117 -0.5430 -0.0982
   19BDTP    C437044   6.852   5.084   8.973 -0.0587 -0.5981 -0.1783
   19BDTP    C537045   6.968   5.072   9.056 -0.1318 -0.5172 -0.0637
   19BDTP    C637046   7.069   5.167   9.056 -0.2545 -0.3852  0.1254
   19BDTP    C737047   6.760   4.973   8.990  0.0664 -0.7320 -0.3708
   19BDTP    C837048   6.800   4.880   9.079  0.0902 -0.7557 -0.4055
   19BDTP    S137049   6.960   4.920   9.156 -0.0424 -0.6112 -0.1998
   19BDTP    C937050   7.149   5.389   8.955 -0.4325 -0.1960  0.3982
   19BDTP   C1037051   7.108   5.482   8.865 -0.4561 -0.1725  0.4332
   19BDTP    S237052   6.948   5.443   8.789 -0.3237 -0.3171  0.2271
   20FTM     S137053   6.554   5.143   8.807 -0.2724 -0.0455  0.2073
   20FTM     C137054   6.507   5.221   8.652  0.1079 -0.2309 -0.0028
   20FTM     C237055   6.616   5.279   8.595  0.1804  0.0020  0.3676
   20FTM     C337056   6.739   5.267   8.667 -0.0502  0.3308  0.8261
   20FTM     C437057   6.725   5.197   8.783 -0.3073  0.3505  0.8061
   20FTM     F137058   6.610   5.347   8.474  0.4593 -0.0689  0.3135
   20FTM     C537059   6.368   5.255   8.621  0.5977  0.2900 -1.1728
   20FTM     C637060   6.291   5.168   8.520  0.0205 -0.7954  0.6712
   20FTM     C737061   6.306   5.011   8.504 -0.0719 -0.1033 -0.0227
   20FTM     C837062   6.313   4.918   8.627  0.0906  1.2507  0.3138
   20FTM     C937063   6.264   4.768   8.628 -0.6918 -0.3126 -1.0158
   20FTM    C1037064   6.356   4.648   8.594 -1.4461 -0.2692  1.0024
   20FTM    C1137065   6.266   5.233   8.380  1.4733  1.1530 -0.1271
   20FTM    C1237066   6.355   5.269   8.250  1.3224  0.5006 -0.4835
   21FTM     S137067   7.192   5.100   9.309 -0.3921  0.0986  0.1125
   21FTM     C137068   7.352   5.019   9.295 -0.6979 -0.5830  0.4570
   21FTM     C237069   7.396   5.024   9.167 -0.7228 -1.4074  0.4053
   21FTM     C337070   7.309   5.090   9.073 -0.5107 -1.5558  0.1018
   21FTM     C437071   7.196   5.136   9.132 -0.3172 -0.8210 -0.0849
   21FTM     F137072   7.517   4.970   9.126 -0.9390 -2.0765  0.6299
   21FTM     C537073   7.399   4.968   9.427  1.4049  0.0071 -0.6542
   21FTM     C637074   7.534   4.904   9.448 -1.3606  0.1017 -0.8928
   21FTM     C737075   7.675   4.994   9.437 -0.2609 -0.0351  0.0140
   21FTM     C837076   7.674   5.145   9.465  0.5008  0.7122  0.2215
   21FTM     C937077   7.629   5.209   9.341 -0.7508  1.3834 -0.2583
   21FTM    C1037078   7.563   5.347   9.361  0.3517  0.6459 -0.1564
   21FTM    C1137079   7.562   4.812   9.579  1.2225 -0.3227 -0.5073
   21FTM    C1237080   7.472   4.686   9.597 -0.3138  0.1647 -0.7698
   22TPM     C137081   7.178   5.607   8.849 -0.3667  0.2077  0.2826
   22TPM     C237082   7.312   5.618   8.828 -0.3831 -0.5536 -0.2916
   22TPM     C337083   7.354   5.748   8.782  0.1382 -0.8464 -0.6704
   22TPM     C437084   7.251   5.836   8.767  0.5519 -0.3082 -0.3852
   22TPM     S137085   7.093   5.762   8.812  0.3132  0.6170  0.3904
   23BDD     C137086   7.413   6.134   8.571 -0.1222  0.2636 -0.0863
   23BDD     C237087   7.321   6.078   8.487 -0.1788  0.2853 -0.0389
   23BDD     C337088   7.247   5.969   8.547 -0.3582  0.4739  0.0865
   23BDD     C437089   7.283   5.943   8.676 -0.4357  0.5932  0.1327
   23BDD     S137090   7.413   6.054   8.731 -0.2896  0.4778  0.0226
   23BDD     C537091   7.297   6.123   8.348 -0.0700  0.1334 -0.1066
   23BDD     C637092   7.142   5.894   8.474 -0.4460  0.5288  0.1559
   23BDD     O137093   7.078   5.799   8.526 -0.6007  0.6915  0.2637
   23BDD     O237094   7.361   6.217   8.296  0.0846 -0.0292 -0.2148
   23BDD     C737095   7.119   5.939   8.335 -0.3372  0.3768  0.0877
   23BDD     C837096   7.193   6.048   8.275 -0.1578  0.1882 -0.0374
   23BDD     C937097   7.156   6.074   8.146 -0.0803  0.0688 -0.0839
   23BDD     S237098   7.026   5.963   8.091 -0.2264  0.1843  0.0262
   23BDD    C1037099   7.027   5.883   8.251 -0.3939  0.3985  0.1349
   23BDD    C1137100   6.939   5.757   8.276 -0.1571 -0.2136  0.0708
   23BDD    C1237101   6.857   5.708   8.153 -0.6480  2.0750 -0.6783
   23BDD    C1337102   6.720   5.657   8.207  0.8541  0.5930  0.1182
   23BDD    C1437103   6.636   5.758   8.272  0.5884  1.2226 -0.5815
   23BDD    C1537104   6.608   5.889   8.204 -1.1263  0.0726  1.1296
   23BDD    C1637105   6.545   5.976   8.304  0.0949 -0.0650 -0.6512
   23BDD    C1737106   6.922   5.599   8.062 -1.1053  0.5868 -0.4073
   23BDD    C1837107   6.969   5.468   8.121  0.5481  0.2369  0.2557
   23BDD    C1937108   7.201   6.187   8.048  1.2416  0.1934  0.0413
   23BDD    C2037109   7.085   6.294   8.008 -0.1579  0.6293 -1.1853
   23BDD    C2137110   6.989   6.326   8.124 -0.0354 -0.2627  0.0203
   23BDD    C2237111   7.056   6.407   8.254  0.4128  1.6367  0.5901
   23BDD    C2337112   7.003   6.340   8.385 -1.3313  0.5315 -0.1995
   23BDD    C2437113   7.018   6.425   8.514  0.0892  0.4922  1.1631
   23BDD    C2537114   7.018   6.263   7.874  1.0386 -1.3228  1.0667
   23BDD    C2637115   7.102   6.210   7.744 -0.4616 -0.9275 -1.9715
   24TPM     C137116   7.516   6.244   8.554 -0.5835  0.5017 -0.1958
   24TPM     C237117   7.536   6.337   8.652 -0.4470  0.2769 -0.0086
   24TPM     C337118   7.664   6.403   8.644 -0.1428 -0.2487  0.4239
   24TPM     C437119   7.741   6.360   8.540 -0.0470 -0.4248  0.5663
   24TPM     S137120   7.658   6.233   8.443 -0.3363  0.0637  0.1629
   25BDTP    C137121   8.368   6.434   8.478  0.2019  0.0492  0.4768
   25BDTP    C237122   8.318   6.497   8.361  0.1595 -0.1857  0.3679
   25BDTP    C337123   8.183   6.506   8.333  0.1471 -0.1996  0.4225
   25BDTP    C437124   8.092   6.451   8.425  0.1783  0.0288  0.5925
   25BDTP    C537125   8.142   6.388   8.543  0.2210  0.2637  0.7019
   25BDTP    C637126   8.278   6.379   8.571  0.2334  0.2775  0.6470
   25BDTP    C737127   7.947   6.448   8.417  0.1731  0.0620  0.6778
   25BDTP    C837128   7.887   6.387   8.522  0.2093  0.3073  0.8435
   25BDTP    S137129   8.005   6.324   8.645  0.2549  0.5307  0.9148
   25BDTP    C937130   8.513   6.437   8.486  0.2072  0.0159  0.3917
   25BDTP   C1037131   8.573   6.498   8.381  0.1709 -0.2295  0.2260
   25BDTP    S237132   8.455   6.561   8.258  0.1254 -0.4528  0.1551
   26FTM     S137133   8.222   6.452   8.059  0.0105  0.0021 -0.4864
   26FTM     C137134   8.107   6.527   7.942 -0.8218  0.0369  0.3287
   26FTM     C237135   8.019   6.607   8.007 -0.7350 -0.4319  1.0369
   26FTM     C337136   8.035   6.615   8.150 -0.0334 -0.8367  0.9897
   26FTM     C437137   8.139   6.539   8.194  0.4328 -0.6726  0.2203
   26FTM     F137138   7.919   6.677   7.943 -1.2861 -0.5220  1.7695
   26FTM     C537139   8.105   6.488   7.791 -1.6668 -0.0503 -1.1768
   26FTM     C637140   8.087   6.343   7.743  1.1121  0.0445  0.8512
   26FTM     C737141   8.099   6.309   7.597  0.3215  0.0233  0.7858
   26FTM     C837142   8.210   6.395   7.519 -0.5217  0.8800 -0.5919
   26FTM     C937143   8.325   6.296   7.467  0.4502 -0.5560 -0.3188
   26FTM    C1037144   8.425   6.391   7.397  0.1182  1.2086 -1.0361
   26FTM    C1137145   7.966   6.255   7.797 -0.1613 -0.0152 -0.4886
   26FTM    C1237146   7.823   6.289   7.830 -0.3658  0.3225  0.7639
   27FTM     S137147   8.251   6.375   8.854  0.0696  0.4642 -0.2773
   27FTM     C137148   8.345   6.249   8.942 -0.3629  0.2249 -0.1471
   27FTM     C237149   8.423   6.180   8.855 -0.6068 -0.1444 -0.0775
   27FTM     C337150   8.414   6.220   8.717 -0.4754 -0.2607 -0.1197
   27FTM     C437151   8.327   6.322   8.699 -0.1195  0.0287 -0.2256
   27FTM     F137152   8.507   6.077   8.894 -0.9637 -0.3988  0.0293
   27FTM     C537153   8.346   6.228   9.088  0.5334 -1.0497  0.3272
   27FTM     C637154   8.457   6.280   9.181 -0.6335  1.1600 -0.0496
   27FTM     C737155   8.566   6.401   9.142  0.0880  0.6660 -0.9264
   27FTM     C837156   8.628   6.439   9.013  0.0696  1.7859 -0.2067
   27FTM     C937157   8.723   6.338   8.933  0.3425 -1.4058  0.2197
   27FTM    C1037158   8.789   6.403   8.811  0.6427 -0.3739 -0.3502
   27FTM    C1137159   8.512   6.186   9.293  0.5584  0.1368 -0.9410
   27FTM    C1237160   8.395   6.132   9.369  0.7072 -0.3914 -0.5331
   28TPM     C137161   8.705   6.459   8.357  0.1717 -0.2466 -0.2752
   28TPM     C237162   8.816   6.496   8.427  0.3200  0.5374 -0.8965
   28TPM     C337163   8.939   6.443   8.373  0.3862  1.2188 -1.4505
   28TPM     C437164   8.922   6.366   8.263  0.2887  0.9539 -1.2517
   28TPM     S137165   8.747   6.353   8.217  0.1040 -0.1848 -0.3420
   29BDD     C137166   9.259   6.482   8.098 -0.5189  0.0853 -0.3072
   29BDD     C237167   9.248   6.349   8.069 -0.4141  0.0501 -0.1853
   29BDD     C337168   9.121   6.291   8.109 -0.2685 -0.0741  0.1025
   29BDD     C437169   9.037   6.381   8.168 -0.2643 -0.1316  0.1960
   29BDD     S137170   9.110   6.544   8.178 -0.4420 -0.0342 -0.0699
   29BDD     C537171   9.354   6.270   8.003 -0.4442  0.1289 -0.3293
   29BDD     C637172   9.088   6.149   8.087 -0.1392 -0.1314  0.2739
   29BDD     O137173   8.978   6.099   8.122 -0.0136 -0.2385  0.5219
   29BDD     O237174   9.464   6.320   7.969 -0.5696  0.2360 -0.5773
   29BDD     C737175   9.194   6.070   8.021 -0.1690 -0.0523  0.1304
   29BDD     C837176   9.321   6.128   7.981 -0.3145  0.0718 -0.1575
   29BDD     C937177   9.405   6.038   7.922 -0.3185  0.1291 -0.2511
   29BDD     S237178   9.332   5.875   7.912 -0.1408  0.0317  0.0145
   29BDD    C1037179   9.183   5.937   7.992 -0.0641 -0.0880  0.2518
   29BDD    C1137180   9.063   5.842   7.984  0.5678  0.4712 -0.1945
   29BDD    C1237181   9.078   5.709   8.072 -0.1859 -0.5060  1.3288
   29BDD    C1337182   8.988   5.596   8.024 -0.5829 -0.4866  0.3069
   29BDD    C1437183   8.836   5.643   8.027  1.0846  0.4300  0.2799
   29BDD    C1537184   8.759   5.568   7.926  0.9804 -1.9525  0.2115
   29BDD    C1637185   8.608   5.615   7.922 -0.2268 -0.0792  0.2045
   29BDD    C1737186   9.102   5.731   8.232 -0.1252  0.0450  1.6410
   29BDD    C1837187   9.129   5.614   8.321  0.5567 -0.3117  0.9232
   29BDD    C1937188   9.551   6.041   7.899 -0.1244 -0.0735 -0.2194
   29BDD    C2037189   9.638   5.945   7.972 -0.7852 -0.7222  0.1210
   29BDD    C2137190   9.649   5.796   7.927  0.4909 -1.1566  0.5016
   29BDD    C2237191   9.678   5.682   8.019  0.1038 -0.3598  1.2360
   29BDD    C2337192   9.569   5.656   8.118 -0.9043  0.1477  1.2601
   29BDD    C2437193   9.626   5.625   8.257  0.6495 -0.3562  0.1460
   29BDD    C2537194   9.773   6.001   8.030 -0.4941  0.2695 -0.1613
   29BDD    C2637195   9.858   6.076   7.930 -0.1865  1.0644  0.0701
   30TPM     C137196   9.375   6.578   8.096  0.0740 -0.7243  0.6043
   30TPM     C237197   9.488   6.583   8.020  0.1535 -1.0656  0.6940
   30TPM     C337198   9.574   6.695   8.051  0.2103 -1.0273  0.4110
   30TPM     C437199   9.526   6.774   8.152  0.1736 -0.6569  0.1059
   30TPM     S137200   9.368   6.714   8.214  0.0640 -0.3251  0.1525
   31BDTP    C137201   9.660   7.329   8.421 -0.1500  0.1576  0.1352
   31BDTP    C237202   9.783   7.258   8.434 -0.1674  0.1148  0.0720
   31BDTP    C337203   9.798   7.126   8.392 -0.1702  0.1816 -0.1364
   31BDTP    C437204   9.687   7.063   8.333 -0.1545  0.2956 -0.2906
   31BDTP    C537205   9.565   7.134   8.319 -0.1369  0.3384 -0.2275
   31BDTP    C637206   9.550   7.266   8.362 -0.1344  0.2716 -0.0189
   31BDTP    C737207   9.679   6.928   8.281 -0.1537  0.3811 -0.5161
   31BDTP    C837208   9.558   6.895   8.230 -0.1369  0.4842 -0.6239
   31BDTP    S137209   9.437   7.031   8.240 -0.1192  0.4880 -0.4549
   31BDTP    C937210   9.669   7.465   8.472 -0.1504  0.0722  0.3610
   31BDTP   C1037211   9.790   7.497   8.524 -0.1674 -0.0310  0.4687
   31BDTP    S237212   9.910   7.362   8.513 -0.1853 -0.0348  0.2995
   32FTM     S137213  10.045   7.065   8.297 -0.4771  0.2801  0.0623
   32FTM     C137214  10.143   6.954   8.399 -0.1482  0.2305 -0.3062
   32FTM     C237215  10.078   6.927   8.515  0.1104 -0.0280 -0.2182
   32FTM     C337216   9.950   6.989   8.531  0.0696 -0.1990  0.1326
   32FTM     C437217   9.916   7.067   8.424 -0.2304 -0.0675  0.3193
   32FTM     F137218  10.130   6.844   8.613  0.3996 -0.1251 -0.4499
   32FTM     C537219  10.289   6.900   8.377 -0.2370 -1.0939  0.0823
   32FTM     C637220  10.400   6.994   8.338  1.0751 -0.7188 -0.6377
   32FTM     C737221  10.426   7.114   8.440  0.6151 -0.2881  0.5883
   32FTM     C837222  10.450   7.070   8.569 -0.2382  1.2515  0.3837
   32FTM     C937223  10.399   7.147   8.678  0.6383  0.3605  0.1325
   32FTM    C1037224  10.464   7.104   8.820  1.5277 -0.6400  0.8138
   32FTM    C1137225  10.430   7.026   8.192 -0.1876  0.1267 -0.4247
   32FTM    C1237226  10.330   7.111   8.111 -0.2601 -0.5510  0.4799
   33FTM     S137227   9.258   7.264   8.350  0.0457  0.2611  0.1967
   33FTM     C137228   9.180   7.421   8.309  0.2753  0.3500  0.1015
   33FTM     C237229   9.276   7.517   8.290  0.4158  0.1919  0.0110
   33FTM     C337230   9.412   7.474   8.306  0.3555 -0.0032  0.0100
   33FTM     C437231   9.421   7.342   8.339  0.1620  0.0058  0.1027
   33FTM     F137232   9.246   7.648   8.257  0.6073  0.2143 -0.0768
   33FTM     C537233   9.029   7.439   8.302  0.5233  0.5725  0.0546
   33FTM     C637234   8.931   7.413   8.425 -0.4121  0.0473 -0.7113
   33FTM     C737235   8.951   7.482   8.561 -0.3407 -1.2046 -0.3961
   33FTM     C837236   8.997   7.632   8.551  0.7676 -0.0054 -1.1757
   33FTM     C937237   9.086   7.658   8.687  0.3016  0.7751  0.0029
   33FTM    C1037238   9.156   7.789   8.682  1.2892 -1.0912  1.2514
   33FTM    C1137239   8.909   7.264   8.446 -0.1696  0.0424 -0.0643
   33FTM    C1237240   8.856   7.175   8.323 -0.7163 -0.5885 -0.7655
   34TPM     C137241   9.846   7.625   8.556  0.6179 -0.1313 -0.0505
   34TPM     C237242   9.978   7.660   8.552  0.6082 -0.1203 -0.3235
   34TPM     C337243  10.007   7.783   8.621  0.7277 -0.0730 -0.4590
   34TPM     C437244   9.898   7.842   8.677  0.8274 -0.0474 -0.2890
   34TPM     S137245   9.748   7.746   8.647  0.7790 -0.0817  0.0579
   35BDD     C137246   9.989   8.130   8.929  0.1589 -0.3051 -0.2218
   35BDD     C237247   9.871   8.168   8.872  0.1478 -0.2918 -0.1898
   35BDD     C337248   9.822   8.075   8.772  0.2329 -0.1645 -0.3512
   35BDD     C437249   9.904   7.967   8.754  0.3077 -0.0829 -0.5043
   35BDD     S137250  10.048   7.974   8.861  0.2763 -0.1594 -0.4566
   35BDD     C537251   9.798   8.292   8.908  0.0587 -0.3955 -0.0095
   35BDD     C637252   9.695   8.097   8.699  0.2367 -0.1287 -0.3481
   35BDD     O137253   9.653   8.016   8.613  0.3102 -0.0191 -0.4873
   35BDD     O237254   9.841   8.372   8.994 -0.0145 -0.5054  0.1297
   35BDD     C737255   9.623   8.220   8.735  0.1481 -0.2322 -0.1676
   35BDD     C837256   9.672   8.313   8.835  0.0629 -0.3598 -0.0062
   35BDD     C937257   9.590   8.421   8.853 -0.0114 -0.4413  0.1469
   35BDD     S237258   9.446   8.414   8.746  0.0195 -0.3647  0.0990
   35BDD    C1037259   9.504   8.259   8.678  0.1371 -0.2189 -0.1354
   35BDD    C1137260   9.409   8.196   8.584 -1.7116  0.9282  1.4109
   35BDD    C1237261   9.317   8.276   8.486  1.2607  0.8569  0.5179
   35BDD    C1337262   9.182   8.322   8.540  1.5461 -1.3994 -1.7112
   35BDD    C1437263   9.065   8.231   8.589  0.3549 -0.1302 -0.1609
   35BDD    C1537264   8.975   8.300   8.684 -1.4860 -0.6103 -0.9868
   35BDD    C1637265   9.044   8.326   8.825 -0.0728  1.8036  0.2583
   35BDD    C1737266   9.385   8.373   8.391  0.7861 -0.7695 -0.3298
   35BDD    C1837267   9.317   8.454   8.279 -0.9956  0.0907  0.1911
   35BDD    C1937268   9.591   8.553   8.933 -1.3601 -0.1295 -0.2453
   35BDD    C2037269   9.461   8.595   9.010 -0.8382  1.1818 -0.0535
   35BDD    C2137270   9.427   8.511   9.132 -0.2349 -0.4313 -1.0931
   35BDD    C2237271   9.395   8.371   9.094 -0.3388  0.4430 -1.3278
   35BDD    C2337272   9.354   8.273   9.210  0.1495  0.3423  0.3558
   35BDD    C2437273   9.276   8.150   9.160  0.6525  0.2674 -0.1568
   35BDD    C2537274   9.455   8.740   9.043 -0.7563  1.4366 -0.2972
   35BDD    C2637275   9.567   8.808   9.123 -0.4936  0.9793 -1.4658
   36TPM     C137276  10.076   8.190   9.029  0.2594 -0.0371 -0.0448
   36TPM     C237277  10.090   8.146   9.158  0.1929  0.7970  0.2575
   36TPM     C337278  10.182   8.225   9.236  0.1476  1.3185 -0.1967
   36TPM     C437279  10.238   8.328   9.168  0.1800  0.8815 -0.8458
   36TPM     S137280  10.180   8.334   8.997  0.2701 -0.2303 -0.9341
   37BDTP    C137281  10.695   8.715   9.367 -0.0968  0.3283 -0.1256
   37BDTP    C237282  10.734   8.693   9.231 -0.0880  0.2987 -0.1187
   37BDTP    C337283  10.660   8.613   9.145 -0.0796  0.2766 -0.1049
   37BDTP    C437284  10.544   8.551   9.194 -0.0808  0.2832 -0.0975
   37BDTP    C537285  10.505   8.574   9.330 -0.0894  0.3128 -0.1051
   37BDTP    C637286  10.579   8.654   9.416 -0.0976  0.3352 -0.1189
   37BDTP    C737287  10.452   8.464   9.124 -0.0730  0.2639 -0.0831
   37BDTP    C837288  10.348   8.421   9.199 -0.0761  0.2770 -0.0794
   37BDTP    S137289  10.351   8.484   9.370 -0.0882  0.3161 -0.0939
   37BDTP    C937290  10.787   8.802   9.437 -0.1040  0.3476 -0.1407
   37BDTP   C1037291  10.891   8.846   9.362 -0.1013  0.3345 -0.1440
   37BDTP    S237292  10.887   8.783   9.192 -0.0890  0.2953 -0.1301
   38FTM     S137293  10.848   8.465   9.004 -0.5240  0.1301  0.3335
   38FTM     C137294  10.845   8.462   8.824  0.4507 -0.3444  0.3096
   38FTM     C237295  10.741   8.537   8.779  0.5350 -0.6692 -0.4480
   38FTM     C337296  10.659   8.599   8.879 -0.1364 -0.5717 -1.0414
   38FTM     C437297  10.702   8.571   9.005 -0.7555 -0.1585 -0.7283
   38FTM     F137298  10.713   8.554   8.644  1.2259 -1.0750 -0.6485
   38FTM     C537299  10.959   8.404   8.764 -0.8663 -0.1435 -0.7688
   38FTM     C637300  10.992   8.364   8.616  0.0074 -0.3010  0.5455
   38FTM     C737301  10.890   8.331   8.507  0.5755  0.6557 -1.3851
   38FTM     C837302  10.799   8.223   8.562  0.8676 -0.9459 -0.7634
   38FTM     C937303  10.756   8.116   8.464  0.2292 -1.2882 -0.3016
   38FTM    C1037304  10.689   8.007   8.528  1.3513  0.1945  0.0117
   38FTM    C1137305  11.120   8.269   8.624  1.8972 -1.1506  1.1214
   38FTM    C1237306  11.221   8.290   8.505  1.5650 -1.0645  0.4066
   39FTM     S137307  10.616   8.602   9.713  0.1567  0.2489 -0.2348
   39FTM     C137308  10.529   8.728   9.807  0.6293  0.5194 -0.1501
   39FTM     C237309  10.453   8.804   9.723  0.3657  0.4072 -0.0179
   39FTM     C337310  10.459   8.770   9.584 -0.2060  0.1109  0.0243
   39FTM     C437311  10.542   8.664   9.561 -0.3862 -0.0071 -0.0785
   39FTM     F137312  10.375   8.909   9.768  0.6261  0.5658  0.0720
   39FTM     C537313  10.557   8.723   9.945 -1.2355  0.6119 -0.5999
   39FTM     C637314  10.657   8.820   9.996  0.0891 -0.5676  0.1152
   39FTM     C737315  10.637   8.848  10.150  0.6901  0.2276 -0.5688
   39FTM     C837316  10.511   8.924  10.193  2.2184  1.3056  0.0084
   39FTM     C937317  10.530   9.077  10.193  0.0646  0.6207 -1.8702
   39FTM    C1037318  10.452   9.191  10.263  0.5818 -1.2771 -0.0630
   39FTM    C1137319  10.773   8.861   9.912 -1.1149 -0.9195  0.1752
   39FTM    C1237320  10.859   8.990   9.953 -0.2134  0.1368  0.7639
   40TPM     C137321  10.995   8.930   9.400 -1.1701 -0.0407  0.4614
   40TPM     C237322  11.098   8.984   9.328 -1.3680  0.0782  0.2644
   40TPM     C337323  11.174   9.083   9.401 -0.9358 -0.3121  0.3550
   40TPM     C437324  11.129   9.104   9.528 -0.4086 -0.7286  0.6212
   40TPM     S137325  10.986   9.000   9.566 -0.4170 -0.6597  0.7792
   41BDD     C137326  11.417   9.224   9.752  0.3057  0.3462  0.0791
   41BDD     C237327  11.312   9.303   9.790  0.2730  0.2720  0.1435
   41BDD     C337328  11.191   9.277   9.715  0.1996  0.0753  0.3262
   41BDD     C437329  11.205   9.179   9.620  0.1771  0.0020  0.3987
   41BDD     S137330  11.371   9.112   9.620  0.2464  0.1745  0.2429
   41BDD     C537331  11.319   9.404   9.897  0.3085  0.3793  0.0398
   41BDD     C637332  11.065   9.351   9.739  0.1540 -0.0329  0.4225
   41BDD     O137333  10.960   9.329   9.674  0.0906 -0.2024  0.5798
   41BDD     O237334  11.424   9.426   9.962  0.3719  0.5488 -0.1178
   41BDD     C737335  11.072   9.453   9.846  0.1895  0.0744  0.3185
   41BDD     C837336  11.194   9.478   9.921  0.2630  0.2713  0.1357
   41BDD     C937337  11.179   9.576  10.016  0.2854  0.3445  0.0637
   41BDD     S237338  11.013   9.643  10.016  0.2162  0.1721  0.2188
   41BDD    C1037339  10.967   9.531   9.884  0.1566  0.0007  0.3829
   41BDD    C1137340  10.834   9.505   9.847 -0.1272 -0.4262  1.0296
   41BDD    C1237341  10.752   9.641   9.808  0.8744  2.0690  0.0874
   41BDD    C1337342  10.721   9.719   9.935 -0.1309 -0.6058 -1.1053
   41BDD    C1437343  10.683   9.865   9.909 -0.3296 -0.5331 -1.0185
   41BDD    C1537344  10.561   9.924   9.995  0.1593 -0.2706 -0.1746
   41BDD    C1637345  10.516  10.039   9.930  0.8301 -1.0038  0.4903
   41BDD    C1737346  10.652   9.628   9.686  0.5473  1.5503 -0.6675
   41BDD    C1837347  10.518   9.552   9.685  0.1295  0.4703 -1.6576
   41BDD    C1937348  11.267   9.614  10.137  0.3691 -0.8220 -0.2210
   41BDD    C2037349  11.262   9.767  10.162  0.3416 -1.1895  0.7299
   41BDD    C2137350  11.304   9.858  10.038  0.1557  0.4218 -0.5300
   41BDD    C2237351  11.214   9.910   9.922  0.5776  0.4782  0.1129
   41BDD    C2337352  11.287   9.994   9.831  1.1604  1.1900 -0.5761
   41BDD    C2437353  11.192  10.012   9.719 -0.8460 -0.3285  0.4945
   41BDD    C2537354  11.289   9.806  10.302  0.0805 -0.0642  0.3185
   41BDD    C2637355  11.408   9.878  10.348  0.2250  0.0197  0.6372
   42TPM     C137356  11.554   9.213   9.785 -0.6430 -0.5421  1.0594
   42TPM     C237357  11.636   9.322   9.778 -1.0182 -0.2022  1.7397
   42TPM     C337358  11.776   9.289   9.793 -0.8899  0.1590  1.3690
   42TPM     C437359  11.800   9.156   9.812 -0.4170  0.0950  0.4059
   42TPM     S137360  11.647   9.061   9.811 -0.0943 -0.4312 -0.1117
   43BDTP    C137361  12.380   8.981   9.980  0.0426 -0.1471 -0.3262
   43BDTP    C237362  12.303   8.873  10.034  0.0891 -0.0556 -0.0744
   43BDTP    C337363  12.165   8.865  10.021  0.0589  0.0010  0.1960
   43BDTP    C437364  12.099   8.968   9.951 -0.0209 -0.0346  0.2191
   43BDTP    C537365  12.176   9.076   9.897 -0.0674 -0.1259 -0.0331
   43BDTP    C637366  12.314   9.084   9.911 -0.0372 -0.1827 -0.3031
   43BDTP    C737367  11.957   8.982   9.925 -0.0651  0.0113  0.4755
   43BDTP    C837368  11.924   9.093   9.855 -0.1416 -0.0412  0.4287
   43BDTP    S137369  12.068   9.196   9.812 -0.1684 -0.1552  0.0534
   43BDTP    C937370  12.521   8.968  10.006  0.0868 -0.1926 -0.5825
   43BDTP   C1037371  12.555   8.857  10.076  0.1633 -0.1402 -0.5357
   43BDTP    S237372  12.411   8.753  10.119  0.1901 -0.0261 -0.1608
   44FTM     S137373  12.032   8.641   9.927 -0.2128  0.9023  0.3832
   44FTM     C137374  11.952   8.541  10.054  0.5798  0.2885  0.4110
   44FTM     C237375  11.984   8.588  10.177  0.4743  0.3688  0.4075
   44FTM     C337376  12.071   8.702  10.181 -0.2125  0.9000  0.3834
   44FTM     C437377  12.106   8.744  10.056 -0.6472  1.2376  0.3681
   44FTM     F137378  11.937   8.530  10.294  0.9936 -0.0334  0.4261
   44FTM     C537379  11.847   8.434  10.015 -0.7327 -0.4542 -0.1136
   44FTM     C637380  11.855   8.327   9.909 -2.0861  1.4637  0.8609
   44FTM     C737381  11.957   8.202   9.916  0.8447  0.3083 -1.0067
   44FTM     C837382  11.904   8.098  10.007 -1.4509  0.1438  0.6011
   44FTM     C937383  12.019   7.972  10.018  0.9508 -0.4916  0.7183
   44FTM    C1037384  12.026   7.895  10.151  0.7991 -0.3581  0.2092
   44FTM    C1137385  11.861   8.376   9.758  1.0924  0.4204 -0.8267
   44FTM    C1237386  11.807   8.509   9.692 -1.3551  0.0128  0.4556
   45FTM     S137387  12.509   9.299   9.890  0.0059 -0.3341 -0.0563
   45FTM     C137388  12.573   9.322   9.723  0.0882  0.3936  0.0666
   45FTM     C237389  12.505   9.242   9.637  0.0784  0.8237 -0.3316
   45FTM     C337390  12.402   9.160   9.694  0.0080  0.6180 -0.7472
   45FTM     C437391  12.391   9.178   9.828 -0.0376  0.0110 -0.6638
   45FTM     F137392  12.532   9.238   9.501  0.1326  1.4286 -0.3440
   45FTM     C537393  12.698   9.414   9.710  1.1394  0.7064  0.8360
   45FTM     C637394  12.834   9.358   9.736 -0.3095 -0.1620 -0.3481
   45FTM     C737395  12.870   9.224   9.682 -0.0908 -0.1941  0.5759
   45FTM     C837396  12.947   9.120   9.755  0.7757 -0.3271  0.3529
   45FTM     C937397  12.910   9.001   9.666 -0.1516 -0.2578 -0.0254
   45FTM    C1037398  13.022   8.947   9.578 -0.7688 -0.4666 -0.8277
   45FTM    C1137399  12.955   9.457   9.698  0.7445 -0.4473  0.6237
   45FTM    C1237400  13.083   9.431   9.756 -0.5896 -0.5240  0.7377
   46TPM     C137401  12.686   8.810  10.125 -0.3595 -0.4900  0.4126
   46TPM     C237402  12.750   8.846  10.240 -0.5732 -1.3041  0.7946
   46TPM     C337403  12.865   8.765  10.269 -0.5051 -1.3840  0.3211
   46TPM     C437404  12.889   8.668  10.176 -0.2395 -0.6308 -0.4224
   46TPM     S137405  12.767   8.671  10.044 -0.0533  0.2450 -0.5829
   47BDD     C137406  13.061   8.322  10.215 -0.3956  0.0476 -0.1075
   47BDD     C237407  13.160   8.409  10.178 -0.2779 -0.0489 -0.0186
   47BDD     C337408  13.115   8.546  10.166 -0.1346 -0.0052 -0.0653
   47BDD     C437409  12.982   8.562  10.194 -0.1452  0.1238 -0.1890
   47BDD     S137410  12.904   8.406  10.236 -0.3352  0.1993 -0.2553
   47BDD     C537411  13.300   8.369  10.153 -0.2928 -0.1843  0.1116
   47BDD     C637412  13.205   8.657  10.128  0.0075 -0.0930  0.0141
   47BDD     O137413  13.166   8.775  10.118  0.1311 -0.0558 -0.0262
   47BDD     O237414  13.339   8.250  10.163 -0.4164 -0.2220  0.1519
   47BDD     C737415  13.345   8.617  10.103 -0.0073 -0.2291  0.1445
   47BDD     C837416  13.391   8.479  10.115 -0.1506 -0.2725  0.1912
   47BDD     C937417  13.524   8.463  10.087 -0.1401 -0.4017  0.3147
   47BDD     S237418  13.601   8.619  10.045  0.0500 -0.4775  0.3807
   47BDD    C1037419  13.444   8.704  10.067  0.1104 -0.3257  0.2332
   47BDD    C1137420  13.458   8.857  10.055  0.4315 -0.9518 -0.2222
   47BDD    C1237421  13.477   8.929   9.927 -0.2713 -1.5315 -0.2419
   47BDD    C1337422  13.380   8.901   9.809 -0.4061  0.5202  0.7808
   47BDD    C1437423  13.399   8.917   9.660  0.8627 -0.1087  1.1072
   47BDD    C1537424  13.531   8.887   9.596  0.0113  0.4831  2.0201
   47BDD    C1637425  13.532   8.758   9.506  0.0630 -0.6719 -0.3287
   47BDD    C1737426  13.461   9.083   9.970  0.0235 -0.1021 -0.4005
   47BDD    C1837427  13.506   9.209   9.891  1.3082  0.9205 -0.6496
   47BDD    C1937428  13.605   8.337  10.082 -0.8085 -0.2184  0.2508
   47BDD    C2037429  13.636   8.263   9.947  0.9457 -0.1762  0.1517
   47BDD    C2137430  13.767   8.186   9.941  0.1672 -1.0577  0.2140
   47BDD    C2237431  13.885   8.272   9.985 -0.0303  0.1357  0.4104
   47BDD    C2337432  14.024   8.228   9.963  0.1182 -0.3315 -0.0967
   47BDD    C2437433  14.081   8.322   9.858 -0.1976 -1.1568 -0.7077
   47BDD    C2537434  13.585   8.317   9.825 -0.3514 -0.7505  0.1713
   47BDD    C2637435  13.595   8.232   9.700  0.1503  0.7188  0.9812
   48TPM     C137436  13.046   8.177  10.222  0.6476 -0.3380  1.0081
   48TPM     C237437  12.986   8.121  10.330  1.1611 -0.7648  1.0798
   48TPM     C337438  12.992   7.977  10.331  0.9162 -0.7900  0.3309
   48TPM     C437439  13.056   7.924  10.224  0.2160 -0.3825 -0.3115
   48TPM     S137440  13.115   8.052  10.112 -0.1916  0.0684 -0.0186
   49BDTP    C137441  13.014   7.346  10.004 -0.1115  0.1043  0.1419
   49BDTP    C237442  13.155   7.356  10.024 -0.0978  0.0981  0.0489
   49BDTP    C337443  13.214   7.469  10.079 -0.0618  0.0745  0.0587
   49BDTP    C437444  13.131   7.576  10.116 -0.0382  0.0560  0.1650
   49BDTP    C537445  12.991   7.565  10.096 -0.0519  0.0621  0.2580
   49BDTP    C637446  12.931   7.453  10.041 -0.0878  0.0858  0.2481
   49BDTP    C737447  13.170   7.703  10.175  0.0001  0.0301  0.1958
   49BDTP    C837448  13.067   7.787  10.200  0.0156  0.0169  0.3059
   49BDTP    S137449  12.905   7.717  10.153 -0.0161  0.0350  0.3858
   49BDTP    C937450  12.975   7.219   9.945 -0.1498  0.1302  0.1109
   49BDTP   C1037451  13.079   7.135   9.920 -0.1653  0.1436  0.0012
   49BDTP    S237452  13.240   7.205   9.967 -0.1336  0.1253 -0.0789
   50FTM     S137453  13.496   7.513   9.977 -0.4308 -0.6076  0.1619
   50FTM     C137454  13.620   7.472  10.101 -0.3048  0.0590  0.2608
   50FTM     C237455  13.559   7.423  10.213 -0.1748  0.4247  0.4971
   50FTM     C337456  13.416   7.413  10.208 -0.1654  0.2142  0.6132
   50FTM     C437457  13.366   7.457  10.090 -0.2924 -0.3305  0.4603
   50FTM     F137458  13.630   7.383  10.325 -0.0565  0.9720  0.6225
   50FTM     C537459  13.769   7.492  10.057  0.1644  0.1075 -0.0635
   50FTM     C637460  13.841   7.372   9.965  1.4659 -1.0666 -0.6311
   50FTM     C737461  13.803   7.228   9.997 -0.3005  0.5384  0.3533
   50FTM     C837462  13.685   7.129   9.967 -1.2130 -1.2529  0.4310
   50FTM     C937463  13.667   7.091   9.815 -0.7281 -0.0511 -0.2380
   50FTM    C1037464  13.544   7.143   9.746 -0.4658 -0.5255 -0.3678
   50FTM    C1137465  13.984   7.404   9.946 -0.6460 -0.3615 -2.0722
   50FTM    C1237466  14.088   7.324   9.853 -0.1362 -0.3826  0.4679
   51FTM     S137467  12.656   7.473   9.925  0.3485 -0.6604 -0.4648
   51FTM     C137468  12.534   7.427  10.049  0.2798  0.4092 -0.1106
   51FTM     C237469  12.596   7.384  10.162  0.2180  0.9470  0.1345
   51FTM     C337470  12.740   7.385  10.159  0.2204  0.5691  0.0632
   51FTM     C437471  12.788   7.430  10.040  0.2861 -0.2859 -0.2463
   51FTM     F137472  12.528   7.342  10.275  0.1557  1.8132  0.4377
   51FTM     C537473  12.381   7.446  10.042  0.0517 -0.7041  0.4370
   51FTM     C637474  12.291   7.333   9.972  0.2225 -0.0802  0.3564
   51FTM     C737475  12.153   7.376   9.909  0.1035  1.0456  0.0431
   51FTM     C837476  12.144   7.306   9.768  1.7677 -0.5424  0.3702
   51FTM     C937477  12.006   7.267   9.759  0.5245  1.1985 -0.5657
   51FTM    C1037478  11.975   7.254   9.609  1.1858 -0.6709  0.0272
   51FTM    C1137479  12.301   7.190  10.025  0.0100  0.1622 -0.5460
   51FTM    C1237480  12.250   7.180  10.173 -2.3111 -0.9014 -0.0572
   52TPM     C137481  13.073   6.996   9.881  0.4818  0.3873 -0.3941
   52TPM     C237482  12.974   6.905   9.857  0.2511  0.8115 -1.1110
   52TPM     C337483  13.020   6.781   9.801  0.0969  0.7031 -1.0021
   52TPM     C437484  13.155   6.777   9.781  0.2101  0.1961 -0.2029
   52TPM     S137485  13.234   6.931   9.833  0.5226 -0.1865  0.4805
   53BDD     C137486  13.206   6.420   9.618 -0.1206 -0.2417  0.3736
   53BDD     C237487  13.329   6.457   9.666 -0.0924 -0.2165  0.2842
   53BDD     C337488  13.330   6.589   9.725 -0.0671 -0.2000  0.2468
   53BDD     C437489  13.208   6.652   9.720 -0.0762 -0.2131  0.3076
   53BDD     S137490  13.084   6.549   9.642 -0.1172 -0.2466  0.4168
   53BDD     C537491  13.449   6.371   9.661 -0.0879 -0.2066  0.2298
   53BDD     C637492  13.451   6.650   9.784 -0.0347 -0.1720  0.1514
   53BDD     O137493  13.452   6.764   9.835 -0.0128 -0.1577  0.1192
   53BDD     O237494  13.448   6.257   9.610 -0.1099 -0.2207  0.2623
   53BDD     C737495  13.572   6.564   9.778 -0.0302 -0.1621  0.0978
   53BDD     C837496  13.571   6.431   9.720 -0.0555 -0.1787  0.1349
   53BDD     C937497  13.692   6.369   9.724 -0.0464 -0.1656  0.0739
   53BDD     S237498  13.816   6.472   9.803 -0.0055 -0.1320 -0.0349
   53BDD    C1037499  13.694   6.601   9.827 -0.0020 -0.1369  0.0086
   53BDD    C1137500  13.732   6.721   9.911 -0.8080 -0.1012  0.7973
   53BDD    C1237501  13.860   6.726   9.972 -1.1608  0.0508 -0.5816
   53BDD    C1337502  13.872   6.672  10.124 -0.5848 -1.4825 -0.1355
   53BDD    C1437503  14.007   6.688  10.188 -0.2752  0.9498 -0.4414
   53BDD    C1537504  14.125   6.598  10.123 -0.3670 -0.4660 -0.1467
   53BDD    C1637505  14.149   6.454  10.170 -0.5284 -0.0035  0.2440
   53BDD    C1737506  13.942   6.862   9.945 -0.5717 -0.2769  1.5671
   53BDD    C1837507  14.008   6.877   9.802  0.3925  0.2741 -1.1595
   53BDD    C1937508  13.742   6.242   9.659  0.5726  0.0823 -0.1937
   53BDD    C2037509  13.869   6.170   9.719 -0.3523 -0.3091 -0.1889
   53BDD    C2137510  13.917   6.045   9.635 -0.3887  0.1915 -1.6668
   53BDD    C2237511  13.957   6.065   9.487  0.2524 -0.3366 -0.8996
   53BDD    C2337512  14.077   6.168   9.469  0.2176  1.3685 -1.0204
   53BDD    C2437513  14.049   6.283   9.364  0.1192  0.6279  0.5799
   53BDD    C2537514  13.886   6.167   9.874 -0.1132  0.8503  0.9946
   53BDD    C2637515  13.773   6.108   9.956  0.1237  2.4267  0.0108
   54TPM     C137516  13.155   6.303   9.577 -0.2116  0.2761  0.0595
   54TPM     C237517  13.169   6.192   9.655  0.6104  0.0709 -0.3548
   54TPM     C337518  13.095   6.078   9.608  1.2972 -0.2540 -0.6723
   54TPM     C437519  13.024   6.102   9.493  0.9989 -0.2965 -0.5002
   54TPM     S137520  13.046   6.272   9.436 -0.1818  0.0733  0.0810
   55BDTP    C137521  12.820   5.608   9.148 -0.3636  0.1816 -0.0758
   55BDTP    C237522  12.851   5.703   9.046 -0.1509  0.1065 -0.0825
   55BDTP    C337523  12.894   5.832   9.075 -0.0622  0.0787 -0.0896
   55BDTP    C437524  12.907   5.869   9.210 -0.1889  0.1270 -0.0901
   55BDTP    C537525  12.877   5.773   9.312 -0.4016  0.2017 -0.0832
   55BDTP    C637526  12.833   5.644   9.283 -0.4903  0.2297 -0.0762
   55BDTP    C737527  12.950   5.996   9.264 -0.1318  0.1104 -0.0967
   55BDTP    C837528  12.953   6.001   9.400 -0.2893  0.1689 -0.0951
   55BDTP    S137529  12.902   5.845   9.478 -0.5322  0.2527 -0.0854
   55BDTP    C937530  12.777   5.480   9.094 -0.4207  0.1979 -0.0694
   55BDTP   C1037531  12.775   5.475   8.958 -0.2632  0.1395 -0.0708
   55BDTP    S237532  12.826   5.631   8.880 -0.0203  0.0558 -0.0807
   56FTM     S137533  13.084   5.954   8.880 -0.0350 -0.0238  0.3762
   56FTM     C137534  13.029   6.111   8.808 -0.0385 -0.4129 -0.4969
   56FTM     C237535  12.904   6.141   8.853 -0.2327 -0.3964 -1.0395
   56FTM     C337536  12.845   6.046   8.943 -0.3870 -0.0876 -0.8144
   56FTM     C437537  12.927   5.941   8.968 -0.3083  0.1396 -0.0756
   56FTM     F137538  12.836   6.255   8.814 -0.2824 -0.6597 -1.7719
   56FTM     C537539  13.140   6.200   8.762 -0.2674  0.3641  0.7845
   56FTM     C637540  13.216   6.295   8.863  0.3336  0.2683 -0.2612
   56FTM     C737541  13.339   6.368   8.810  0.3376  0.9080  0.8108
   56FTM     C837542  13.436   6.275   8.737 -1.0743 -0.2491 -0.2979
   56FTM     C937543  13.544   6.348   8.662  0.4101 -0.0181  0.4562
   56FTM    C1037544  13.654   6.260   8.699  0.1483  0.1049  0.6881
   56FTM    C1137545  13.244   6.247   9.005  0.0689 -0.6974  0.3491
   56FTM    C1237546  13.220   6.333   9.133 -1.2617  0.5103 -0.0870
   57FTM     S137547  12.957   5.392   9.386  0.5214  0.0645 -0.4896
   57FTM     C137548  12.930   5.366   9.562  0.9148  0.1165 -0.4213
   57FTM     C237549  12.847   5.461   9.611  0.9794  0.0975 -0.2739
   57FTM     C337550  12.799   5.558   9.517  0.7328  0.0429 -0.2069
   57FTM     C437551  12.848   5.536   9.392  0.4709  0.0192 -0.3058
   57FTM     F137552  12.808   5.466   9.745  1.2656  0.1287 -0.1917
   57FTM     C537553  12.974   5.258   9.651 -0.9080  0.6048 -1.1185
   57FTM     C637554  13.113   5.193   9.690  0.3373  0.0279  0.3701
   57FTM     C737555  13.211   5.275   9.775 -0.6513 -0.0767 -0.0318
   57FTM     C837556  13.233   5.414   9.734 -1.4460 -1.0603 -0.0158
   57FTM     C937557  13.340   5.434   9.616 -0.0020 -0.6027  0.2545
   57FTM    C1037558  13.332   5.591   9.610  0.2993  0.8664  0.4622
   57FTM    C1137559  13.200   5.135   9.579  0.2062 -0.8488  0.8238
   57FTM    C1237560  13.123   5.044   9.489 -0.7413  0.3073  1.6899
   58TPM     C137561  12.710   5.377   8.894 -0.3297  0.0094  0.1609
   58TPM     C237562  12.580   5.371   8.853 -0.4033 -0.2884  0.4301
   58TPM     C337563  12.536   5.239   8.818 -0.0868 -0.3474  0.2484
   58TPM     C437564  12.632   5.143   8.832  0.2281 -0.0945 -0.1584
   58TPM     S137565  12.788   5.214   8.891  0.1488  0.2404 -0.3459
   59BDD     C137566  12.614   4.825   8.621  0.4882  0.1839 -0.3352
   59BDD     C237567  12.627   4.784   8.751  0.2974  0.1521 -0.3252
   59BDD     C337568  12.628   4.893   8.846 -0.1327  0.1098 -0.2720
   59BDD     C437569  12.614   5.016   8.788 -0.2635  0.1098 -0.2421
   59BDD     S137570  12.601   5.004   8.610  0.1426  0.1631 -0.2789
   59BDD     C537571  12.641   4.643   8.792  0.5034  0.1595 -0.3633
   59BDD     C637572  12.641   4.872   8.992 -0.3981  0.0706 -0.2520
   59BDD     O137573  12.641   4.966   9.074 -0.7689  0.0342 -0.2060
   59BDD     O237574  12.641   4.548   8.709  0.8742  0.1960 -0.4094
   59BDD     C737575  12.654   4.730   9.033 -0.1921  0.0781 -0.2909
   59BDD     C837576  12.654   4.621   8.937  0.2379  0.1205 -0.3440
   59BDD     C937577  12.667   4.498   8.996  0.3687  0.1204 -0.3736
   59BDD     S237578  12.681   4.511   9.174 -0.0373  0.0673 -0.3371
   59BDD    C1037579  12.667   4.689   9.163 -0.3829  0.0463 -0.2806
   59BDD    C1137580  12.722   4.781   9.283  0.9589 -0.0078  0.1797
   59BDD    C1237581  12.854   4.757   9.364  0.0219  0.3088 -1.0076
   59BDD    C1337582  12.857   4.694   9.508  0.3868 -0.8573 -0.3720
   59BDD    C1437583  12.880   4.542   9.526  0.4122  0.1099 -1.2036
   59BDD    C1537584  12.799   4.452   9.624  1.3964  0.2049 -0.2110
   59BDD    C1637585  12.895   4.377   9.716 -0.1031  0.1307  1.1625
   59BDD    C1737586  12.993   4.751   9.304  0.3573  0.5039  0.6587
   59BDD    C1837587  13.009   4.827   9.178 -0.4030 -0.2871  0.6654
   59BDD    C1937588  12.641   4.364   8.933 -0.6116 -1.0158  0.4888
   59BDD    C2037589  12.519   4.271   8.971 -0.6622 -0.7820 -1.1409
   59BDD    C2137590  12.415   4.333   9.066  0.1459  0.5556 -0.1223
   59BDD    C2237591  12.301   4.401   8.994  0.0937  1.3190  0.7031
   59BDD    C2337592  12.211   4.410   9.105 -0.7466  0.2813 -0.8539
   59BDD    C2437593  12.078   4.477   9.079  0.5390 -0.5316  0.3767
   59BDD    C2537594  12.468   4.147   8.890 -0.0303  0.0009  0.8594
   59BDD    C2637595  12.357   4.061   8.956  0.1428 -0.0922  0.4972
   60TPM     C137596  12.589   4.759   8.491  0.6209 -0.1554  0.2289
   60TPM     C237597  12.670   4.659   8.446  0.7776  0.1453 -0.1748
   60TPM     C337598  12.652   4.629   8.306  0.2375  0.1323 -0.1073
   60TPM     C437599  12.558   4.707   8.245 -0.3311 -0.1780  0.3474
   60TPM     S137600  12.485   4.825   8.359 -0.2275 -0.4806  0.7288
    1BDTP    C137601   9.346   3.945   5.416 -0.1121  0.1497  0.3248
    1BDTP    C237602   9.285   4.014   5.307  0.0236  0.0613  0.1925
    1BDTP    C337603   9.322   4.143   5.270  0.0658  0.0336  0.1374
    1BDTP    C437604   9.423   4.206   5.343 -0.0305  0.0956  0.2162
    1BDTP    C537605   9.484   4.137   5.452 -0.1659  0.1842  0.3484
    1BDTP    C637606   9.447   4.009   5.489 -0.2081  0.2120  0.4037
    1BDTP    C737607   9.478   4.339   5.324 -0.0106  0.0823  0.1807
    1BDTP    C837608   9.575   4.373   5.411 -0.1237  0.1553  0.2786
    1BDTP    S137609   9.612   4.241   5.531 -0.2706  0.2517  0.4295
    1BDTP    C937610   9.291   3.812   5.435 -0.1316  0.1631  0.3603
    1BDTP   C1037611   9.194   3.779   5.348 -0.0188  0.0899  0.2624
    1BDTP    S237612   9.157   3.910   5.228  0.1283 -0.0061  0.1115
    2FTM     S137613   9.078   4.293   5.241  0.0892  0.4911  0.1553
    2FTM     C137614   9.049   4.370   5.080 -0.1764  0.1885  0.0541
    2FTM     C237615   9.155   4.346   4.998 -0.3381 -0.0151 -0.0957
    2FTM     C337616   9.261   4.268   5.053 -0.2673  0.0501 -0.1396
    2FTM     C437617   9.237   4.231   5.182 -0.0436  0.3123 -0.0198
    2FTM     F137618   9.161   4.393   4.868 -0.5600 -0.2729 -0.2018
    2FTM     C537619   8.927   4.415   5.006 -0.8310  0.2060 -0.1001
    2FTM     C637620   8.824   4.503   5.080  0.9043 -0.4053 -0.0892
    2FTM     C737621   8.704   4.528   4.991  0.4706  0.4706  0.6368
    2FTM     C837622   8.569   4.457   5.019 -0.0977  0.0092 -0.1144
    2FTM     C937623   8.566   4.343   5.125 -1.6581  0.4369  0.1292
    2FTM    C1037624   8.419   4.299   5.177 -1.3496 -0.2826  0.9219
    2FTM    C1137625   8.900   4.624   5.136 -0.0983  1.3560  0.6143
    2FTM    C1237626   8.847   4.674   5.269 -0.2763  0.2545 -0.9998
    3FTM     S137627   9.574   3.972   5.748 -0.2039 -0.1186 -0.2651
    3FTM     C137628   9.679   3.827   5.765 -0.3185 -0.1860 -0.1218
    3FTM     C237629   9.689   3.763   5.646 -0.0165 -0.0648 -0.1647
    3FTM     C337630   9.617   3.820   5.537  0.3147  0.0845 -0.3079
    3FTM     C437631   9.549   3.933   5.574  0.2643  0.0771 -0.3772
    3FTM     F137632   9.764   3.647   5.629 -0.0219 -0.0815 -0.0767
    3FTM     C537633   9.753   3.794   5.893  1.0568 -0.4730 -0.2494
    3FTM     C637634   9.864   3.885   5.957  1.3737 -1.1448 -1.2024
    3FTM     C737635   9.825   4.040   5.944 -0.9298  0.6828 -1.3851
    3FTM     C837636   9.941   4.137   5.951 -0.3762  0.3002 -0.0199
    3FTM     C937637   9.895   4.256   5.862  0.7945 -0.7393 -0.4771
    3FTM    C1037638  10.019   4.326   5.822 -0.1072 -0.6869 -1.6722
    3FTM    C1137639   9.934   3.822   6.082  0.7083 -0.0200  0.6654
    3FTM    C1237640   9.861   3.832   6.207 -1.6249 -0.1008 -0.3859
    4TPM     C137641   9.126   3.651   5.340  0.6381 -0.4111 -0.0914
    4TPM     C237642   9.057   3.599   5.235  0.3312 -0.0164 -0.0905
    4TPM     C337643   8.985   3.478   5.267 -0.1831  0.2692 -0.1469
    4TPM     C437644   8.999   3.439   5.397 -0.2686  0.0925 -0.1912
    4TPM     S137645   9.105   3.551   5.489  0.2987 -0.4528 -0.1645
    5BDD     C137646   8.894   3.134   5.622 -0.4044 -0.1286 -0.3025
    5BDD     C237647   8.779   3.172   5.557 -0.4385 -0.0072 -0.1713
    5BDD     C337648   8.799   3.281   5.464 -0.5116  0.2554  0.1165
    5BDD     C437649   8.928   3.325   5.458 -0.5335  0.3305  0.2005
    5BDD     S137650   9.034   3.232   5.569 -0.4625  0.0776 -0.0746
    5BDD     C537651   8.647   3.109   5.580 -0.4041 -0.1282 -0.3058
    5BDD     C637652   8.688   3.338   5.384 -0.5581  0.4224  0.2977
    5BDD     O137653   8.705   3.432   5.303 -0.6216  0.6488  0.5460
    5BDD     O237654   8.630   3.015   5.661 -0.3407 -0.3546 -0.5541
    5BDD     C737655   8.556   3.275   5.406 -0.5243  0.3014  0.1632
    5BDD     C837656   8.537   3.166   5.500 -0.4506  0.0387 -0.1247
    5BDD     C937657   8.407   3.122   5.506 -0.4294 -0.0363 -0.2086
    5BDD     S237658   8.301   3.215   5.395 -0.5000  0.2165  0.0666
    5BDD    C1037659   8.442   3.313   5.342 -0.5579  0.4227  0.2946
    5BDD    C1137660   8.406   3.431   5.253 -0.4843  0.6876  1.1996
    5BDD    C1237661   8.407   3.423   5.099 -0.5835  0.7614  0.7362
    5BDD    C1337662   8.475   3.310   5.026 -0.6852 -0.3085 -0.5956
    5BDD    C1437663   8.386   3.258   4.915 -1.2242 -0.2180  0.8118
    5BDD    C1537664   8.429   3.113   4.863 -0.1576  0.1137  0.0294
    5BDD    C1637665   8.566   3.057   4.837 -0.5978  0.6843  0.8486
    5BDD    C1737666   8.396   3.560   5.044 -1.0043  0.0996  1.0112
    5BDD    C1837667   8.463   3.628   4.918  0.2841  0.8125  0.0138
    5BDD    C1937668   8.352   2.995   5.580  1.1338 -0.7379 -0.5620
    5BDD    C2037669   8.270   2.900   5.487 -0.6314 -0.3295  0.0351
    5BDD    C2137670   8.119   2.890   5.488  0.2538  0.4644  0.3381
    5BDD    C2237671   8.066   2.819   5.596  0.4313 -0.2553 -1.4580
    5BDD    C2337672   7.921   2.773   5.554  0.0473 -0.3794 -0.6575
    5BDD    C2437673   7.824   2.728   5.669 -0.6536 -2.4845  0.8134
    5BDD    C2537674   8.358   2.816   5.385  0.3345 -0.9564  0.6581
    5BDD    C2637675   8.505   2.768   5.414  0.2679 -1.6980 -0.4945
    6TPM     C137676   8.927   3.039   5.727 -0.3198  0.2981 -0.1328
    6TPM     C237677   9.025   2.945   5.717 -0.4940  0.1919 -0.9952
    6TPM     C337678   9.040   2.865   5.836  0.2394 -0.0504 -1.2431
    6TPM     C437679   8.955   2.899   5.936  0.9731 -0.1289 -0.5699
    6TPM     S137680   8.847   3.035   5.888  0.7924  0.0986  0.4373
    7BDTP    C137681   9.030   2.643   6.504 -0.2933  0.0813  0.0583
    7BDTP    C237682   8.930   2.742   6.528 -0.3519  0.0557 -0.0758
    7BDTP    C337683   8.877   2.821   6.428 -0.3264 -0.0426 -0.1676
    7BDTP    C437684   8.925   2.803   6.297 -0.2391 -0.1193 -0.1254
    7BDTP    C537685   9.025   2.705   6.272 -0.1805 -0.0937  0.0083
    7BDTP    C637686   9.078   2.625   6.373 -0.2060  0.0045  0.1003
    7BDTP    C737687   8.885   2.874   6.177 -0.1978 -0.2264 -0.2027
    7BDTP    C837688   8.949   2.834   6.065 -0.1121 -0.2818 -0.1339
    7BDTP    S137689   9.070   2.701   6.095 -0.0718 -0.2059  0.0381
    7BDTP    C937690   9.070   2.573   6.624 -0.3345  0.1884  0.1352
    7BDTP   C1037691   9.006   2.613   6.736 -0.4201  0.2436  0.0666
    7BDTP    S237692   8.885   2.745   6.705 -0.4607  0.1679 -0.1055
    8FTM     S137693   8.785   3.092   6.384  0.5425  0.3405  0.0668
    8FTM     C137694   8.623   3.130   6.453  0.3083 -0.0266 -0.2663
    8FTM     C237695   8.575   3.023   6.521  0.3924 -0.1529 -0.4070
    8FTM     C337696   8.659   2.906   6.522  0.6390  0.0238 -0.2679
    8FTM     C437697   8.775   2.926   6.454  0.7462  0.2941 -0.0122
    8FTM     F137698   8.452   3.023   6.585  0.2520 -0.4361 -0.6701
    8FTM     C537699   8.549   3.259   6.426  1.6885  0.2315  1.5224
    8FTM     C637700   8.445   3.271   6.309 -0.5836 -1.3441 -0.1037
    8FTM     C737701   8.339   3.163   6.299  0.4787 -0.4915 -0.0084
    8FTM     C837702   8.349   3.096   6.162  0.8191 -0.6009 -0.7125
    8FTM     C937703   8.462   3.015   6.112 -0.6898 -1.0998  0.5721
    8FTM    C1037704   8.452   2.998   5.957  0.1284 -0.2274  1.6523
    8FTM    C1137705   8.394   3.416   6.263  0.5561  0.3748 -1.0201
    8FTM    C1237706   8.289   3.478   6.379  0.0842 -0.3525 -0.0069
    9FTM     S137707   9.139   2.376   6.263  0.1791 -0.1823  0.5199
    9FTM     C137708   9.303   2.309   6.299  0.0500 -0.2906  0.9284
    9FTM     C237709   9.376   2.400   6.369 -0.0641 -0.3391  1.1114
    9FTM     C337710   9.311   2.524   6.399 -0.0589 -0.2963  0.9491
    9FTM     C437711   9.184   2.528   6.350  0.0642 -0.2120  0.6316
    9FTM     F137712   9.506   2.376   6.410 -0.1807 -0.4253  1.4367
    9FTM     C537713   9.365   2.199   6.224 -0.0894  0.3075  0.7679
    9FTM     C637714   9.359   2.199   6.061 -0.1939 -0.5966 -1.3220
    9FTM     C737715   9.423   2.319   5.984 -0.3641 -0.1344 -0.5072
    9FTM     C837716   9.409   2.459   6.008  1.9588  0.0678  0.6146
    9FTM     C937717   9.494   2.536   5.910  0.6371 -0.0466  0.7472
    9FTM    C1037718   9.400   2.641   5.842 -0.9878 -0.3649  0.4939
    9FTM    C1137719   9.410   2.073   5.998  0.0427 -0.9463  0.0225
    9FTM    C1237720   9.538   2.002   6.048 -0.5337  1.5720 -0.1951
   10TPM     C137721   9.031   2.557   6.866 -0.4803 -0.2491 -0.3857
   10TPM     C237722   8.977   2.595   6.985  0.0906  0.1954 -0.2573
   10TPM     C337723   9.043   2.537   7.100  0.5565  0.5186 -0.3561
   10TPM     C437724   9.147   2.455   7.068  0.3413  0.3203 -0.5599
   10TPM     S137725   9.170   2.445   6.889 -0.4734 -0.2945 -0.6433
   11BDD     C137726   9.300   2.281   7.393 -0.3151  0.4273  0.0766
   11BDD     C237727   9.407   2.325   7.321 -0.2694  0.2931  0.0609
   11BDD     C337728   9.369   2.392   7.197 -0.1917  0.0585 -0.0906
   11BDD     C437729   9.234   2.397   7.178 -0.1794  0.0172 -0.1883
   11BDD     S137730   9.145   2.319   7.312 -0.2642  0.2691 -0.0974
   11BDD     C537731   9.548   2.309   7.362 -0.2959  0.3757  0.1847
   11BDD     C637732   9.469   2.448   7.103 -0.1328 -0.1161 -0.1329
   11BDD     O137733   9.436   2.505   6.997 -0.0656 -0.3183 -0.2636
   11BDD     O237734   9.581   2.251   7.468 -0.3626  0.5779  0.3154
   11BDD     C737735   9.610   2.431   7.145 -0.1588 -0.0336 -0.0092
   11BDD     C837736   9.648   2.365   7.268 -0.2367  0.2010  0.1425
   11BDD     C937737   9.783   2.359   7.288 -0.2491  0.2424  0.2401
   11BDD     S237738   9.872   2.437   7.153 -0.1641 -0.0095  0.1491
   11BDD    C1037739   9.717   2.476   7.072 -0.1132 -0.1675 -0.0248
   11BDD    C1137740   9.750   2.532   6.937  0.9468  0.2397  1.0729
   11BDD    C1237741   9.714   2.437   6.819 -0.1154  0.1142 -0.2004
   11BDD    C1337742   9.748   2.281   6.813  0.6689  0.3908 -0.2225
   11BDD    C1437743   9.649   2.172   6.760  0.4534  0.5119 -0.2642
   11BDD    C1537744   9.730   2.055   6.739  0.1853  1.4103  0.2774
   11BDD    C1637745   9.635   1.931   6.711 -0.7922  0.1528  0.4655
   11BDD    C1737746   9.741   2.526   6.694 -0.7627 -0.6061  1.3137
   11BDD    C1837747   9.748   2.467   6.541 -0.4258 -0.4815 -0.1789
   11BDD    C1937748   9.887   2.285   7.365 -0.1807  0.2467  0.4454
   11BDD    C2037749   9.990   2.391   7.426 -0.2344  1.4156 -0.3285
   11BDD    C2137750   9.927   2.484   7.535  0.4803 -0.8803 -1.0679
   11BDD    C2237751   9.890   2.430   7.680 -1.1044  0.3332  0.0799
   11BDD    C2337752  10.007   2.472   7.767 -0.2082  0.8200  0.6785
   11BDD    C2437753   9.980   2.431   7.909 -1.0201 -0.9858  0.8000
   11BDD    C2537754  10.102   2.299   7.459 -0.2671 -1.8310 -0.4882
   11BDD    C2637755  10.215   2.389   7.498  0.1838 -0.0982 -1.0727
   12TPM     C137756   9.290   2.235   7.533  0.1176  0.0720 -0.0469
   12TPM     C237757   9.229   2.118   7.569  1.3039 -0.4857  0.2642
   12TPM     C337758   9.212   2.102   7.711  1.9553 -0.5482  0.3400
   12TPM     C437759   9.260   2.207   7.784  1.2651 -0.0381  0.0866
   12TPM     S137760   9.331   2.334   7.678 -0.2722  0.5654 -0.2698
   13BDTP    C137761   9.334   2.398   8.378  0.1352 -0.1383  0.0708
   13BDTP    C237762   9.426   2.289   8.366  0.0818 -0.1768  0.0043
   13BDTP    C337763   9.441   2.216   8.249  0.0873 -0.0755 -0.0591
   13BDTP    C437764   9.362   2.251   8.138  0.1483  0.0708 -0.0563
   13BDTP    C537765   9.270   2.360   8.150  0.2022  0.1094  0.0100
   13BDTP    C637766   9.255   2.433   8.267  0.1963  0.0080  0.0731
   13BDTP    C737767   9.361   2.190   8.007  0.1657  0.1948 -0.1145
   13BDTP    C837768   9.273   2.247   7.920  0.2289  0.3229 -0.0952
   13BDTP    S137769   9.180   2.385   7.993  0.2754  0.3046 -0.0006
   13BDTP    C937770   9.335   2.459   8.509  0.1180 -0.2621  0.1290
   13BDTP   C1037771   9.423   2.402   8.596  0.0548 -0.3904  0.1094
   13BDTP    S237772   9.515   2.264   8.523  0.0084 -0.3721  0.0147
   14FTM     S137773   9.501   1.941   8.234 -0.1692  0.0800 -0.1222
   14FTM     C137774   9.674   1.899   8.205 -0.1099  0.1933  0.0662
   14FTM     C237775   9.751   2.011   8.210 -0.3207  0.3961 -0.8519
   14FTM     C337776   9.681   2.134   8.236 -0.5360  0.4739 -1.7357
   14FTM     C437777   9.547   2.115   8.251 -0.4888  0.3258 -1.4871
   14FTM     F137778   9.888   2.010   8.192 -0.3316  0.5234 -0.9456
   14FTM     C537779   9.695   1.760   8.147  0.7483  0.0589 -0.3405
   14FTM     C637780   9.667   1.722   8.006 -0.1403 -0.6076 -0.2654
   14FTM     C737781   9.719   1.807   7.888 -0.8414 -0.7044 -0.7307
   14FTM     C837782   9.634   1.891   7.791  0.3798  0.0773  0.5662
   14FTM     C937783   9.500   1.837   7.733  0.4551  1.6527  0.2509
   14FTM    C1037784   9.543   1.791   7.602 -0.2769 -1.1932  1.4154
   14FTM    C1137785   9.692   1.576   8.004  0.0430  2.7791 -1.5737
   14FTM    C1237786   9.655   1.484   7.882 -0.2844 -0.5212  0.4721
   15FTM     S137787   8.999   2.585   8.254 -0.1835 -0.0583 -0.2937
   15FTM     C137788   9.013   2.757   8.306  0.2767 -0.0049 -0.5909
   15FTM     C237789   9.143   2.785   8.336  0.2143 -0.5743  0.2904
   15FTM     C337790   9.236   2.678   8.321 -0.1855 -1.0749  1.2283
   15FTM     C437791   9.176   2.563   8.278 -0.4376 -0.8823  1.0589
   15FTM     F137792   9.184   2.911   8.379  0.5162 -0.6762  0.3006
   15FTM     C537793   8.886   2.827   8.302  1.2871 -0.3570  1.5217
   15FTM     C637794   8.887   2.990   8.271  0.5814  1.9375 -0.7383
   15FTM     C737795   8.796   3.071   8.347  0.8418 -0.0709 -1.1976
   15FTM     C837796   8.801   3.080   8.497 -1.0457 -0.4067  0.5238
   15FTM     C937797   8.716   3.183   8.588  0.2091  1.9344  0.3059
   15FTM    C1037798   8.774   3.312   8.545 -1.3049  1.0344 -0.7049
   15FTM    C1137799   8.969   3.052   8.163 -0.5177 -0.2563  0.1272
   15FTM    C1237800   8.918   3.065   8.005 -0.0593  0.0186 -1.5872
   16TPM     C137801   9.468   2.427   8.734  1.2648 -0.0129  0.0164
   16TPM     C237802   9.532   2.333   8.808  1.7116  0.2683 -0.0079
   16TPM     C337803   9.549   2.370   8.947  1.2083  0.1625  0.0856
   16TPM     C437804   9.497   2.492   8.977  0.3778 -0.1993  0.1813
   16TPM     S137805   9.423   2.571   8.833  0.1653 -0.4364  0.1607
   17BDD     C137806   9.525   2.534   9.373 -0.1091 -0.1539  0.1239
   17BDD     C237807   9.393   2.558   9.346 -0.1183 -0.1650  0.1583
   17BDD     C337808   9.360   2.544   9.205 -0.1295 -0.0536  0.1502
   17BDD     C437809   9.468   2.511   9.127 -0.1285  0.0408  0.1096
   17BDD     S137810   9.617   2.493   9.225 -0.1140 -0.0032  0.0789
   17BDD     C537811   9.292   2.594   9.447 -0.1168 -0.2784  0.1996
   17BDD     C637812   9.224   2.566   9.152 -0.1407 -0.0450  0.1822
   17BDD     O137813   9.196   2.554   9.031 -0.1504  0.0510  0.1750
   17BDD     O237814   9.320   2.605   9.569 -0.1070 -0.3744  0.2067
   17BDD     C737815   9.123   2.601   9.254 -0.1392 -0.1584  0.2236
   17BDD     C837816   9.156   2.615   9.395 -0.1280 -0.2697  0.2320
   17BDD     C937817   9.048   2.649   9.473 -0.1287 -0.3641  0.2723
   17BDD     S237818   8.899   2.666   9.375 -0.1437 -0.3201  0.3028
   17BDD    C1037819   8.991   2.625   9.226 -0.1485 -0.1695  0.2577
   17BDD    C1137820   8.940   2.657   9.083  0.3342  0.0885 -0.6446
   17BDD    C1237821   8.933   2.799   9.032  0.2037 -0.2996 -0.6000
   17BDD    C1337822   8.876   2.884   9.135  1.1954 -0.3883 -1.3917
   17BDD    C1437823   8.752   2.974   9.121 -0.3453  0.2380 -0.3546
   17BDD    C1537824   8.649   2.962   9.231  0.3343  0.3343 -0.2418
   17BDD    C1637825   8.606   2.825   9.269  0.5849  0.1520  1.1323
   17BDD    C1737826   8.883   2.819   8.895 -0.6850 -0.0240 -0.4396
   17BDD    C1837827   8.750   2.767   8.845  1.2721  1.0186  1.3895
   17BDD    C1937828   9.024   2.702   9.626  2.0217 -0.3720  1.3987
   17BDD    C2037829   9.126   2.800   9.690  0.8531 -0.2934  0.9453
   17BDD    C2137830   9.152   2.945   9.632  0.0782  0.1654 -0.4124
   17BDD    C2237831   9.162   3.017   9.496  0.6511  0.4950 -0.9425
   17BDD    C2337832   9.270   3.009   9.386  0.6182  0.1317 -0.0499
   17BDD    C2437833   9.419   3.018   9.415  0.5263  1.9065  0.0869
   17BDD    C2537834   9.189   2.771   9.832  1.1664 -1.1489  1.6091
   17BDD    C2637835   9.258   2.646   9.867 -0.6242 -0.3243  0.3647
   18TPM     C137836   9.612   2.535   9.488  0.5716  0.3495  0.1192
   18TPM     C237837   9.603   2.633   9.582  0.4823  0.0400  0.4377
   18TPM     C337838   9.707   2.627   9.682  0.0410 -0.6471  0.8705
   18TPM     C437839   9.794   2.524   9.664 -0.2063 -0.8614  0.8817
   18TPM     S137840   9.752   2.426   9.518  0.1014 -0.2070  0.3423
   19BDTP    C137841  10.198   2.174   9.984  0.4833  0.2005 -0.3219
   19BDTP    C237842  10.271   2.296   9.978  0.5007  0.1984 -0.1597
   19BDTP    C337843  10.221   2.411   9.917  0.5100  0.2909  0.0052
   19BDTP    C437844  10.093   2.405   9.859  0.5023  0.3902  0.0114
   19BDTP    C537845  10.020   2.282   9.865  0.4849  0.3921 -0.1502
   19BDTP    C637846  10.070   2.168   9.926  0.4754  0.2996 -0.3152
   19BDTP    C737847  10.021   2.510   9.791  0.5094  0.4964  0.1669
   19BDTP    C837848   9.899   2.473   9.746  0.4985  0.5770  0.1299
   19BDTP    S137849   9.858   2.300   9.784  0.4778  0.5297 -0.1068
   19BDTP    C937850  10.270   2.069  10.052  0.4759  0.0942 -0.4773
   19BDTP   C1037851  10.393   2.105  10.097  0.4866  0.0136 -0.4399
   19BDTP    S237852  10.434   2.278  10.059  0.5075  0.0608 -0.2034
   20FTM     S137853  10.458   2.530   9.809  0.0899 -0.1404 -0.6544
   20FTM     C137854  10.500   2.694   9.873  0.4724 -0.1719 -0.8181
   20FTM     C237855  10.408   2.732   9.966  1.2071 -0.3646  0.0105
   20FTM     C337856  10.303   2.638   9.993  1.5099 -0.4964  0.8042
   20FTM     C437857  10.314   2.525   9.917  0.9901 -0.4014  0.5754
   20FTM     F137858  10.415   2.853  10.032  1.6487 -0.4331  0.1001
   20FTM     C537859  10.625   2.762   9.819 -1.1687  0.3516  0.7849
   20FTM     C637860  10.724   2.854   9.891  0.8310 -0.7682 -0.3253
   20FTM     C737861  10.658   2.986   9.917 -0.2569  0.2155 -1.6536
   20FTM     C837862  10.589   3.092   9.832 -0.1520  1.4804 -1.5894
   20FTM     C937863  10.640   3.148   9.697  0.5994  1.4700 -0.5693
   20FTM    C1037864  10.772   3.211   9.683 -0.7048  0.9055  0.1572
   20FTM    C1137865  10.871   2.861   9.853 -0.4866  0.2874 -0.1872
   20FTM    C1237866  10.903   2.892   9.706  0.2650  0.1074  0.8436
   21FTM     S137867   9.921   1.964   9.792  0.1969  0.1350  0.0750
   21FTM     C137868   9.884   1.823   9.898  0.1730  0.1642  0.1057
   21FTM     C237869   9.922   1.850  10.026  0.1702  0.1886  0.1016
   21FTM     C337870   9.980   1.979  10.048  0.1860  0.1861  0.0751
   21FTM     C437871   9.987   2.053   9.934  0.2019  0.1590  0.0578
   21FTM     F137872   9.906   1.760  10.130  0.1531  0.2146  0.1221
   21FTM     C537873   9.806   1.699   9.854  0.8106 -0.5163  0.1065
   21FTM     C637874   9.832   1.679   9.701 -0.0841 -0.9381  0.6116
   21FTM     C737875   9.882   1.546   9.668 -1.0779  0.6519 -0.1952
   21FTM     C837876  10.023   1.510   9.695 -0.8344 -0.2317 -0.7769
   21FTM     C937877  10.103   1.412   9.599  0.7243 -1.6413 -0.0614
   21FTM    C1037878  10.116   1.459   9.454 -1.1606 -0.9031  0.0633
   21FTM    C1137879   9.710   1.708   9.605 -0.2861  0.0808  0.7674
   21FTM    C1237880   9.677   1.855   9.588 -1.0506  1.2143 -0.7466
   22TPM     C137881  10.486   2.027  10.177  0.2594 -1.0309 -0.0853
   22TPM     C237882  10.486   1.890  10.177  0.8657 -1.0333  0.0033
   22TPM     C337883  10.596   1.833  10.251  1.3287 -0.5034 -0.2594
   22TPM     C437884  10.679   1.926  10.307  1.0749 -0.0968 -0.5480
   22TPM     S137885  10.625   2.094  10.270  0.2254 -0.3538 -0.5102
   23BDD     C137886  11.041   1.831  10.250  0.0356 -0.3194  0.1170
   23BDD     C237887  10.992   1.736  10.335 -0.0474 -0.2213  0.1802
   23BDD     C337888  10.857   1.762  10.379 -0.0052 -0.0460  0.2067
   23BDD     C437889  10.804   1.878  10.328  0.1101 -0.0129  0.1628
   23BDD     S137890  10.921   1.961  10.221  0.1729 -0.1990  0.0858
   23BDD     C537891  11.068   1.616  10.377 -0.1690 -0.2851  0.2193
   23BDD     C637892  10.784   1.672  10.471 -0.0801  0.0825  0.2742
   23BDD     O137893  10.667   1.695  10.510 -0.0436  0.2337  0.2971
   23BDD     O237894  11.185   1.593  10.339 -0.2058 -0.4364  0.1969
   23BDD     C737895  10.860   1.553  10.514 -0.2017  0.0186  0.3128
   23BDD     C837896  10.996   1.526  10.469 -0.2444 -0.1567  0.2868
   23BDD     C937897  11.048   1.411  10.520 -0.3595 -0.1897  0.3307
   23BDD     S237898  10.931   1.327  10.627 -0.4225 -0.0036  0.4080
   23BDD    C1037899  10.811   1.457  10.598 -0.2854  0.1168  0.3765
   23BDD    C1137900  10.683   1.433  10.664  0.3259 -0.3669  0.7617
   23BDD    C1237901  10.567   1.384  10.575  0.8268 -0.0767  0.9245
   23BDD    C1337902  10.580   1.250  10.506 -0.4946  0.2307  0.2395
   23BDD    C1437903  10.623   1.232  10.360 -0.2294 -0.0376 -1.1258
   23BDD    C1537904  10.772   1.242  10.334  0.4133 -0.4668 -0.8898
   23BDD    C1637905  10.824   1.141  10.230 -0.1365  0.3335  0.0005
   23BDD    C1737906  10.434   1.372  10.629  0.0219  0.9035 -0.1935
   23BDD    C1837907  10.363   1.471  10.722 -0.4332 -0.5659  0.1711
   23BDD    C1937908  11.193   1.334  10.526 -0.0494 -0.0796  0.8586
   23BDD    C2037909  11.298   1.415  10.611 -0.9723  1.7727  0.2461
   23BDD    C2137910  11.255   1.417  10.761 -1.0258 -1.7951 -0.0354
   23BDD    C2237911  11.332   1.514  10.857  0.1831 -0.3980  0.4730
   23BDD    C2337912  11.301   1.500  11.007  0.1177  0.9760  0.6260
   23BDD    C2437913  11.341   1.602  11.107 -0.8921 -0.2202  0.0495
   23BDD    C2537914  11.443   1.362  10.620 -0.8021  0.9817 -0.4856
   23BDD    C2637915  11.534   1.329  10.495 -0.3244 -0.1042  0.0435
   24TPM     C137916  11.157   1.852  10.161  0.0575 -0.9751  0.1738
   24TPM     C237917  11.284   1.828  10.205 -0.0052 -0.8260  0.4406
   24TPM     C337918  11.386   1.872  10.113  0.1476 -0.3060  0.8509
   24TPM     C437919  11.336   1.929  10.000  0.3267 -0.0585  0.8965
   24TPM     S137920  11.156   1.932  10.000  0.3161 -0.4663  0.4214
   25BDTP    C137921  11.648   2.063   9.468 -0.2258  0.2731 -0.1817
   25BDTP    C237922  11.510   2.072   9.432 -0.2902  0.0927  0.0122
   25BDTP    C337923  11.407   2.054   9.523 -0.1414 -0.1853  0.1290
   25BDTP    C437924  11.441   2.026   9.656  0.0815 -0.2909  0.0513
   25BDTP    C537925  11.579   2.017   9.693  0.1460 -0.1107 -0.1423
   25BDTP    C637926  11.682   2.035   9.602 -0.0028  0.1672 -0.2590
   25BDTP    C737927  11.352   2.004   9.768  0.2648 -0.5713  0.1444
   25BDTP    C837928  11.415   1.979   9.886  0.4618 -0.6098  0.0315
   25BDTP    S137929  11.596   1.980   9.871  0.4421 -0.2963 -0.2084
   25BDTP    C937930  11.737   2.085   9.356 -0.4094  0.5534 -0.2747
   25BDTP   C1037931  11.674   2.110   9.239 -0.6061  0.5919 -0.1616
   25BDTP    S237932  11.493   2.109   9.254 -0.5864  0.2783  0.0783
   26FTM     S137933  11.162   1.923   9.479 -0.2907  0.1958  0.4963
   26FTM     C137934  11.020   2.019   9.424  0.0000  0.2518 -0.1711
   26FTM     C237935  11.056   2.149   9.404  0.2751  0.1174 -0.5751
   26FTM     C337936  11.193   2.180   9.431  0.2763 -0.0334 -0.3948
   26FTM     C437937  11.264   2.072   9.472 -0.0072 -0.0141  0.1655
   26FTM     F137938  10.967   2.246   9.361  0.5422  0.1231 -1.1318
   26FTM     C537939  10.904   1.927   9.422  1.6888  0.8929  1.1507
   26FTM     C637940  10.792   1.916   9.540 -0.3035 -0.3482  1.0863
   26FTM     C737941  10.689   1.809   9.513  1.2238 -1.0234 -1.2692
   26FTM     C837942  10.565   1.860   9.423  0.6029 -0.6767 -0.3250
   26FTM     C937943  10.429   1.877   9.503 -0.3314 -0.8820  0.4765
   26FTM    C1037944  10.327   1.933   9.405  0.5928 -0.0220 -0.6222
   26FTM    C1137945  10.846   1.945   9.681 -0.6753 -1.2433  0.3107
   26FTM    C1237946  10.922   1.834   9.740 -0.6508  0.3410 -0.8193
   27FTM     S137947  11.873   1.873   9.740  0.0610 -0.0582  0.2018
   27FTM     C137948  12.040   1.940   9.746 -0.0343  0.1849  0.1624
   27FTM     C237949  12.042   2.064   9.690 -0.0925 -0.0937 -0.4776
   27FTM     C337950  11.917   2.113   9.640 -0.0671 -0.5032 -0.9646
   27FTM     C437951  11.816   2.024   9.659  0.0130 -0.5395 -0.6884
   27FTM     F137952  12.157   2.140   9.681 -0.1721  0.0057 -0.6607
   27FTM     C537953  12.165   1.866   9.794 -1.0949 -0.3370 -0.9252
   27FTM     C637954  12.186   1.823   9.953 -1.6602 -0.1549  1.3977
   27FTM     C737955  12.320   1.744   9.950 -1.4526 -0.3870  0.2486
   27FTM     C837956  12.464   1.812   9.902  0.6264  0.8283 -0.2463
   27FTM     C937957  12.542   1.913   9.983  1.2619 -0.7724  0.2816
   27FTM    C1037958  12.670   1.963   9.901  1.4596 -0.0673 -1.0210
   27FTM    C1137959  12.089   1.735  10.026  0.2781  0.4385 -0.3262
   27FTM    C1237960  12.044   1.603   9.965 -0.2077  0.5463 -0.8331
   28TPM     C137961  11.737   2.127   9.108 -0.2242  0.6168  0.5868
   28TPM     C237962  11.711   2.073   8.986 -0.7699  0.6830  0.6676
   28TPM     C337963  11.798   2.120   8.882 -0.7397  0.1768  0.4563
   28TPM     C437964  11.891   2.211   8.924 -0.1710 -0.2752  0.2142
   28TPM     S137965  11.875   2.244   9.101  0.3748 -0.0953  0.2348
   29BDD     C137966  11.968   2.542   8.722 -0.2446 -0.4401 -0.2770
   29BDD     C237967  12.043   2.443   8.665 -0.1922 -0.3800 -0.3126
   29BDD     C337968  12.016   2.311   8.719 -0.0498 -0.3998 -0.2887
   29BDD     C437969  11.921   2.311   8.817  0.0042 -0.4746 -0.2360
   29BDD     S137970  11.858   2.476   8.848 -0.1194 -0.5255 -0.2120
   29BDD     C537971  12.142   2.466   8.558 -0.2710 -0.3021 -0.3688
   29BDD     C637972  12.086   2.189   8.672  0.0274 -0.3436 -0.3195
   29BDD     O137973  12.063   2.076   8.719  0.1501 -0.3605 -0.2992
   29BDD     O237974  12.166   2.580   8.511 -0.3937 -0.2851 -0.3893
   29BDD     C737975  12.185   2.213   8.565 -0.0513 -0.2658 -0.3760
   29BDD     C837976  12.212   2.344   8.510 -0.1937 -0.2461 -0.3996
   29BDD     C937977  12.307   2.344   8.412 -0.2477 -0.1712 -0.4525
   29BDD     S237978  12.370   2.179   8.381 -0.1241 -0.1203 -0.4764
   29BDD    C1037979  12.260   2.114   8.508  0.0011 -0.2056 -0.4113
   29BDD    C1137980  12.267   1.973   8.519  0.5781  0.7052  0.4130
   29BDD    C1237981  12.232   1.884   8.390  0.0629  0.5177  2.1561
   29BDD    C1337982  12.346   1.885   8.285  0.5095  0.8916  0.9546
   29BDD    C1437983  12.488   1.845   8.342  1.6556 -0.0121  0.2903
   29BDD    C1537984  12.617   1.892   8.273  0.2990  0.3316 -0.7134
   29BDD    C1637985  12.605   1.977   8.147  1.4451  0.5847 -0.0789
   29BDD    C1737986  12.104   1.935   8.314  0.4622  0.1742 -0.1205
   29BDD    C1837987  12.026   1.834   8.229  0.1971 -0.2118  0.3669
   29BDD    C1937988  12.372   2.461   8.327 -2.0427 -0.3821  0.0511
   29BDD    C2037989  12.374   2.451   8.177  0.8386  0.5958 -2.4048
   29BDD    C2137990  12.247   2.430   8.114  0.1350 -0.8383  0.3678
   29BDD    C2237991  12.118   2.492   8.150  0.4157 -1.8846  1.7646
   29BDD    C2337992  12.123   2.652   8.140 -1.1619  0.1955  0.2086
   29BDD    C2437993  12.096   2.679   7.999 -0.9280  0.5337 -0.3656
   29BDD    C2537994  12.499   2.411   8.102 -1.1262  0.4629  0.4940
   29BDD    C2637995  12.627   2.441   8.173 -1.5076 -0.4737 -0.0738
   30TPM     C137996  11.965   2.694   8.717 -0.0075  0.3264 -0.5514
   30TPM     C237997  12.088   2.744   8.746 -0.0247  0.6813 -1.0602
   30TPM     C337998  12.085   2.870   8.814 -0.1036  0.7271 -1.1487
   30TPM     C437999  11.959   2.917   8.837 -0.1466  0.4073 -0.7074
   30TPM     S138000  11.833   2.803   8.774 -0.0903  0.0203 -0.1412
   31BDTP    C138001  11.796   3.403   9.202 -0.2726  0.0158 -0.0989
   31BDTP    C238002  11.676   3.327   9.192 -0.2574 -0.0039 -0.1307
   31BDTP    C338003  11.667   3.210   9.117 -0.1659 -0.1078  0.0188
   31BDTP    C438004  11.782   3.167   9.048 -0.0854 -0.1966  0.2089
   31BDTP    C538005  11.902   3.243   9.058 -0.1006 -0.1768  0.2406
   31BDTP    C638006  11.910   3.360   9.134 -0.1921 -0.0729  0.0912
   31BDTP    C738007  11.797   3.050   8.965  0.0161 -0.3112  0.3861
   31BDTP    C838008  11.921   3.034   8.912  0.0770 -0.3777  0.5476
   31BDTP    S138009  12.036   3.166   8.961  0.0145 -0.3045  0.4978
   31BDTP    C938010  11.780   3.520   9.286 -0.3741  0.1304 -0.2763
   31BDTP   C1038011  11.657   3.536   9.338 -0.4351  0.1969 -0.4377
   31BDTP    S238012  11.542   3.404   9.289 -0.3725  0.1237 -0.3879
   32FTM     S138013  11.413   3.091   9.217  0.5833  0.4860 -0.2294
   32FTM     C138014  11.303   3.037   9.084  0.1156  0.2979  0.2278
   32FTM     C238015  11.367   3.047   8.965 -0.2117 -0.1230  0.0148
   32FTM     C338016  11.502   3.095   8.968 -0.1211 -0.3203 -0.5045
   32FTM     C438017  11.543   3.124   9.095  0.2887 -0.0411 -0.6956
   32FTM     F138018  11.307   3.012   8.845 -0.6127 -0.3546  0.2773
   32FTM     C538019  11.174   2.993   9.109 -0.4621  1.3066 -0.3357
   32FTM     C638020  11.049   3.073   9.132  0.1264 -1.0612 -0.6711
   32FTM     C738021  11.036   3.182   9.023  1.3914  0.1039 -0.9479
   32FTM     C838022  10.889   3.237   9.001 -0.9523  0.0590 -0.1230
   32FTM     C938023  10.859   3.388   9.014 -0.1712 -0.3542 -0.0258
   32FTM    C1038024  10.721   3.424   8.979 -1.4045 -0.1006  0.0755
   32FTM    C1138025  11.032   3.140   9.270  0.0291  1.4183  0.9085
   32FTM    C1238026  11.078   3.042   9.379  1.3410  0.5276  0.7845
   33FTM     S138027  12.057   3.592   9.202 -0.5247 -0.0260 -0.6246
   33FTM     C138028  12.214   3.577   9.289 -0.8455  0.2346  0.0073
   33FTM     C238029  12.245   3.446   9.308 -0.9671  0.2865  0.6270
   33FTM     C338030  12.151   3.351   9.256 -0.8217  0.1304  0.6485
   33FTM     C438031  12.045   3.411   9.197 -0.5809 -0.0467  0.0241
   33FTM     F138032  12.361   3.405   9.372 -1.2173  0.4781  1.2121
   33FTM     C538033  12.298   3.700   9.329 -0.6355 -0.4724  1.0585
   33FTM     C638034  12.406   3.686   9.443  0.0296 -0.0721 -0.1471
   33FTM     C738035  12.376   3.784   9.562 -1.5808  0.2640  0.1292
   33FTM     C838036  12.376   3.938   9.552 -1.1200 -0.9565  1.2552
   33FTM     C938037  12.267   4.004   9.472 -1.0937  0.9879 -0.7322
   33FTM    C1038038  12.296   4.152   9.475  0.1933  0.3327 -0.4807
   33FTM    C1138039  12.562   3.680   9.428  0.1252  0.2446  1.9268
   33FTM    C1238040  12.629   3.533   9.396  0.5061 -0.6546 -0.3348
   34TPM     C138041  11.614   3.645   9.421  0.9686  0.5007 -0.1556
   34TPM     C238042  11.536   3.742   9.364  0.2364 -0.0688 -0.1552
   34TPM     C338043  11.528   3.863   9.442 -0.8133 -0.1784 -0.0703
   34TPM     C438044  11.599   3.858   9.558 -0.8815  0.3074 -0.0056
   34TPM     S138045  11.682   3.700   9.579  0.3846  0.9459 -0.0479
   35BDD     C138046  11.460   4.044   9.881  0.3337 -0.2711  0.0313
   35BDD     C238047  11.493   4.140   9.790  0.2022 -0.1502  0.1106
   35BDD     C338048  11.549   4.086   9.667 -0.1203  0.0012 -0.1049
   35BDD     C438049  11.558   3.950   9.667 -0.2301 -0.0064 -0.3458
   35BDD     S138050  11.497   3.879   9.820  0.0627 -0.2037 -0.3188
   35BDD     C538051  11.474   4.285   9.812  0.3683 -0.1695  0.3874
   35BDD     C638052  11.591   4.172   9.554 -0.3079  0.1479 -0.0644
   35BDD     O138053  11.639   4.126   9.449 -0.5860  0.2785 -0.2503
   35BDD     O238054  11.426   4.331   9.918  0.6464 -0.3000  0.5734
   35BDD     C738055  11.572   4.317   9.577 -0.1418  0.1286  0.2127
   35BDD     C838056  11.516   4.371   9.699  0.1807 -0.0228  0.4282
   35BDD     C938057  11.507   4.507   9.700  0.2905 -0.0153  0.6688
   35BDD     S238058  11.568   4.578   9.546 -0.0024  0.1821  0.6420
   35BDD    C1038059  11.605   4.413   9.485 -0.2733  0.2495  0.2921
   35BDD    C1138060  11.700   4.404   9.371 -0.2952 -0.2010  1.4129
   35BDD    C1238061  11.649   4.443   9.230  0.5722  1.7164 -0.6894
   35BDD    C1338062  11.545   4.363   9.139  0.8649  1.3692  1.0433
   35BDD    C1438063  11.485   4.218   9.166  0.2945 -0.7673  0.3411
   35BDD    C1538064  11.358   4.219   9.246 -0.4478 -0.1784 -0.6860
   35BDD    C1638065  11.331   4.070   9.267  1.2210  1.3444  0.2878
   35BDD    C1738066  11.658   4.590   9.207 -0.2109  0.1415 -0.2638
   35BDD    C1838067  11.773   4.677   9.228 -0.2934  0.7972  0.6035
   35BDD    C1938068  11.438   4.609   9.787 -1.0367 -0.1292 -0.2047
   35BDD    C2038069  11.362   4.722   9.734  0.9568 -0.4942  1.2492
   35BDD    C2138070  11.338   4.842   9.830  0.2999 -1.8425 -0.1659
   35BDD    C2238071  11.197   4.881   9.870 -0.7826 -1.0028 -0.8080
   35BDD    C2338072  11.212   5.019   9.912 -1.1785 -0.3982 -0.3417
   35BDD    C2438073  11.099   5.101   9.872  0.0648 -0.9912 -1.0598
   35BDD    C2538074  11.293   4.730   9.598 -0.2970 -0.1815 -0.2534
   35BDD    C2638075  11.141   4.710   9.592 -1.1007  0.6460 -0.1027
   36TPM     C138076  11.396   4.033  10.024  0.7574 -0.2408  0.2001
   36TPM     C238077  11.326   3.920  10.054  0.8316 -0.2720  0.2584
   36TPM     C338078  11.244   3.932  10.171  0.5012 -0.1249  0.0155
   36TPM     C438079  11.251   4.054  10.231  0.1748  0.0181 -0.2283
   36TPM     S138080  11.364   4.165  10.143  0.2601 -0.0220 -0.1697
   37BDTP    C138081  10.827   4.261  10.653 -0.0672  0.1298  0.1028
   37BDTP    C238082  10.845   4.376  10.570  0.0777  0.1018  0.0966
   37BDTP    C338083  10.935   4.378  10.464  0.2069  0.0398  0.2031
   37BDTP    C438084  11.009   4.261  10.438  0.1936  0.0038  0.3221
   37BDTP    C538085  10.990   4.147  10.520  0.0484  0.0319  0.3290
   37BDTP    C638086  10.901   4.144  10.626 -0.0807  0.0939  0.2219
   37BDTP    C738087  11.107   4.240  10.333  0.3111 -0.0611  0.4465
   37BDTP    C838088  11.162   4.116  10.333  0.2627 -0.0829  0.5438
   37BDTP    S138089  11.098   4.009  10.466  0.0606 -0.0242  0.4930
   37BDTP    C938090  10.728   4.282  10.757 -0.1850  0.1948 -0.0210
   37BDTP   C1038091  10.673   4.406  10.757 -0.1366  0.2165 -0.1187
   37BDTP    S238092  10.738   4.513  10.625  0.0655  0.1580 -0.0680
   38FTM     S138093  10.910   4.521  10.208 -0.2534  0.0619 -0.3776
   38FTM     C138094  10.967   4.692  10.213  0.1503 -0.0609 -0.6760
   38FTM     C238095  11.007   4.724  10.338  0.2835  0.0449 -0.7453
   38FTM     C338096  10.997   4.620  10.437  0.0849  0.2238 -0.5751
   38FTM     C438097  10.947   4.505  10.384 -0.2100  0.2558 -0.3686
   38FTM     F138098  11.056   4.850  10.372  0.5934 -0.0138 -0.9673
   38FTM     C538099  10.972   4.770  10.089  1.1225  0.4605 -0.8821
   38FTM     C638100  10.843   4.782  10.022 -0.3001  0.7522  0.7311
   38FTM     C738101  10.724   4.883  10.061 -0.6223 -0.2354 -0.7914
   38FTM     C838102  10.652   4.858  10.184 -0.5410  0.3814 -1.2672
   38FTM     C938103  10.498   4.820  10.143 -1.4976  1.6328  0.0012
   38FTM    C1038104  10.435   4.714  10.235 -0.0262 -1.3465 -0.9102
   38FTM    C1138105  10.846   4.742   9.878  0.6743 -0.8543  0.8387
   38FTM    C1238106  10.714   4.734   9.799  0.9136  0.3859 -0.3541
   39FTM     S138107  10.719   3.956  10.740  0.3696 -0.0973 -0.1524
   39FTM     C138108  10.784   3.813  10.827  0.0921  0.3587  0.8313
   39FTM     C238109  10.920   3.814  10.824  0.1085  0.4008  1.3745
   39FTM     C338110  10.981   3.924  10.755  0.3326  0.0886  1.0664
   39FTM     C438111  10.888   4.010  10.704  0.4927 -0.2020  0.2607
   39FTM     F138112  10.997   3.715  10.884 -0.0782  0.7245  2.1832
   39FTM     C538113  10.701   3.733  10.939  0.0887  0.0302  0.4933
   39FTM     C638114  10.664   3.584  10.908  0.4576 -0.3996  0.4380
   39FTM     C738115  10.768   3.494  10.828 -0.0387  0.7587  0.4006
   39FTM     C838116  10.767   3.472  10.687 -1.4543 -0.3210  1.0514
   39FTM     C938117  10.659   3.385  10.634  0.7723  0.5571  1.4447
   39FTM    C1038118  10.655   3.245  10.699  0.3869  0.5728  0.3069
   39FTM    C1138119  10.565   3.516  11.002 -0.5374  0.4802 -0.7428
   39FTM    C1238120  10.609   3.427  11.112 -0.1594 -1.1838 -0.7306
   40TPM     C138121  10.563   4.467  10.831 -0.5360 -0.5198 -0.1945
   40TPM     C238122  10.533   4.599  10.845 -0.8359 -0.5465 -0.5374
   40TPM     C338123  10.427   4.625  10.939 -0.6526 -0.5227 -0.3357
   40TPM     C438124  10.376   4.512  10.996 -0.2127 -0.4782  0.1607
   40TPM     S138125  10.458   4.364  10.936  0.0053 -0.4625  0.4143
   41BDD     C138126  10.086   4.603  11.247 -0.0604  0.1029  0.0029
   41BDD     C238127  10.068   4.470  11.221  0.0207  0.0998 -0.0386
   41BDD     C338128  10.168   4.414  11.131  0.0229  0.2012 -0.0985
   41BDD     C438129  10.260   4.506  11.089 -0.0572  0.2800 -0.1024
   41BDD     S138130  10.228   4.668  11.159 -0.1407  0.2328 -0.0305
   41BDD     C538131   9.959   4.388  11.279  0.1001  0.0036 -0.0248
   41BDD     C638132  10.168   4.273  11.090  0.1040  0.2161 -0.1507
   41BDD     O138133  10.253   4.225  11.012  0.1059  0.3036 -0.2027
   41BDD     O238134   9.874   4.436  11.357  0.0985 -0.0839  0.0272
   41BDD     C738135  10.059   4.191  11.148  0.1831  0.1199 -0.1366
   41BDD     C838136   9.959   4.246  11.238  0.1810  0.0186 -0.0765
   41BDD     C938137   9.867   4.154  11.280  0.2613 -0.0603 -0.0730
   41BDD     S238138   9.899   3.993  11.210  0.3448 -0.0132 -0.1447
   41BDD    C1038139  10.041   4.058  11.123  0.2646  0.1169 -0.1781
   41BDD    C1138140  10.113   3.956  11.038 -0.7741 -1.2515  0.2767
   41BDD    C1238141  10.044   3.927  10.902  0.8654 -1.0278  0.9334
   41BDD    C1338142  10.104   3.836  10.796 -0.9545  0.5158  0.3895
   41BDD    C1438143  10.232   3.853  10.702  0.8954 -1.0019 -0.5758
   41BDD    C1538144  10.360   3.819  10.765 -0.6174 -0.2887  0.6021
   41BDD    C1638145  10.429   3.750  10.653  0.1631 -0.1676 -0.8437
   41BDD    C1738146   9.894   3.898  10.906 -0.1221  0.3455 -0.6342
   41BDD    C1838147   9.817   3.865  10.778  0.6298  0.2605 -0.0767
   41BDD    C1938148   9.752   4.161  11.385  0.8151  0.4990  1.1360
   41BDD    C2038149   9.789   4.154  11.532  0.5456 -0.3516  1.3542
   41BDD    C2138150   9.877   4.039  11.580 -0.6424  0.1476 -1.3560
   41BDD    C2238151   9.867   3.891  11.551  1.2211  0.3714 -0.7147
   41BDD    C2338152   9.741   3.820  11.612 -0.2206 -1.4283  0.7833
   41BDD    C2438153   9.683   3.754  11.493 -0.2698  0.2502  0.0278
   41BDD    C2538154   9.790   4.280  11.610  0.3097  0.7281  0.5458
   41BDD    C2638155   9.680   4.301  11.713 -0.0137  0.7419  0.4657
   42TPM     C138156  10.007   4.716  11.306  0.0420  0.0712 -0.0193
   42TPM     C238157   9.995   4.724  11.441  0.5443 -0.1220  0.0422
   42TPM     C338158   9.972   4.858  11.489  0.6554 -0.1987  0.3140
   42TPM     C438159   9.966   4.952  11.390  0.2377 -0.0638  0.4591
   42TPM     S138160   9.990   4.877  11.227 -0.3328  0.1720  0.2631
   43BDTP    C138161   9.762   5.550  11.467  0.1311  0.0807 -0.0487
   43BDTP    C238162   9.822   5.552  11.337  0.0708  0.0596 -0.0770
   43BDTP    C338163   9.883   5.441  11.282  0.3359  0.1413  0.0496
   43BDTP    C438164   9.886   5.322  11.357  0.6754  0.2486  0.2115
   43BDTP    C538165   9.826   5.320  11.486  0.7353  0.2695  0.2398
   43BDTP    C638166   9.764   5.432  11.542  0.4709  0.1879  0.1134
   43BDTP    C738167   9.944   5.194  11.321  0.9907  0.3462  0.3619
   43BDTP    C838168   9.930   5.098  11.415  1.2803  0.4382  0.5002
   43BDTP    S138169   9.842   5.155  11.563  1.1950  0.4143  0.4591
   43BDTP    C938170   9.704   5.678  11.503 -0.1841 -0.0168 -0.1992
   43BDTP   C1038171   9.717   5.774  11.409 -0.4737 -0.1090 -0.3374
   43BDTP    S238172   9.805   5.717  11.261 -0.3885 -0.0850 -0.2964
   44FTM     S138173   9.952   5.383  11.016  0.4363 -0.0975  0.0793
   44FTM     C138174  10.108   5.445  10.950 -0.0450  0.4776 -0.5423
   44FTM     C238175  10.170   5.522  11.043 -0.2615  1.2606 -1.0250
   44FTM     C338176  10.102   5.537  11.169 -0.0708  1.4569 -0.9432
   44FTM     C438177   9.984   5.469  11.171  0.3037  0.8023 -0.3790
   44FTM     F138178  10.292   5.584  11.021 -0.6454  1.8466 -1.5700
   44FTM     C538179  10.135   5.444  10.803 -0.3259 -0.2847  1.4455
   44FTM     C638180  10.122   5.352  10.677 -1.0406  0.4228  0.0649
   44FTM     C738181   9.982   5.327  10.625  1.3698 -0.0344 -0.1747
   44FTM     C838182   9.908   5.452  10.565 -0.6104  0.8812  1.0702
   44FTM     C938183   9.943   5.502  10.429 -0.9074 -0.0891  1.0472
   44FTM    C1038184   9.953   5.430  10.289  0.2504  0.1744 -1.2315
   44FTM    C1138185  10.214   5.222  10.669 -1.0058 -0.0289  1.4118
   44FTM    C1238186  10.217   5.132  10.792 -0.1712  1.6333  1.4174
   45FTM     S138187   9.563   5.313  11.696  0.5000 -0.4665  0.3769
   45FTM     C138188   9.520   5.390  11.853  0.1652 -0.8056  0.4558
   45FTM     C238189   9.601   5.498  11.875 -0.1602 -0.6007  0.6597
   45FTM     C338190   9.698   5.526  11.774 -0.1681 -0.1781  0.7644
   45FTM     C438191   9.692   5.437  11.671  0.1613 -0.0550  0.6366
   45FTM     F138192   9.591   5.577  11.988 -0.4692 -0.7838  0.7635
   45FTM     C538193   9.420   5.312  11.933  1.8498  0.9463  2.2171
   45FTM     C638194   9.452   5.271  12.075 -0.6129 -0.0158 -0.2796
   45FTM     C738195   9.488   5.116  12.080  0.4026  0.4783  0.1475
   45FTM     C838196   9.617   5.065  12.151 -1.1395 -0.0201 -0.4888
   45FTM     C938197   9.648   4.915  12.143 -0.4759  0.3539  0.0822
   45FTM    C1038198   9.588   4.832  12.251 -0.4372 -0.0325  0.3927
   45FTM    C1138199   9.387   5.327  12.214  0.8087  0.5037  0.5986
   45FTM    C1238200   9.422   5.476  12.247  1.0258 -0.0729  0.2161
   46TPM     C138201   9.647   5.888  11.403  0.8069  0.8131  0.0279
   46TPM     C238202   9.643   5.998  11.483  1.1177  1.2715 -0.5634
   46TPM     C338203   9.580   6.112  11.423  1.0726  1.0004 -1.0383
   46TPM     C438204   9.535   6.090  11.296  0.7278  0.3353 -0.8089
   46TPM     S138205   9.570   5.921  11.243  0.4308 -0.0030  0.0313
   47BDD     C138206   9.560   6.375  11.034 -0.0492  0.0014  0.0540
   47BDD     C238207   9.427   6.356  11.054 -0.0594 -0.0373 -0.0427
   47BDD     C338208   9.397   6.256  11.155 -0.1061 -0.2087 -0.2258
   47BDD     C438209   9.509   6.200  11.210 -0.1315 -0.2985 -0.2659
   47BDD     S138210   9.659   6.268  11.139 -0.0987 -0.1742 -0.0775
   47BDD     C538211   9.321   6.430  10.982 -0.0260  0.0820  0.0296
   47BDD     C638212   9.259   6.220  11.193 -0.1240 -0.2774 -0.3543
   47BDD     O138213   9.233   6.134  11.280 -0.1643 -0.4252 -0.5124
   47BDD     O238214   9.347   6.517  10.895  0.0143  0.2298  0.1876
   47BDD     C738215   9.153   6.294  11.121 -0.0901 -0.1582 -0.2820
   47BDD     C838216   9.183   6.394  11.020 -0.0434  0.0132 -0.0987
   47BDD     C938217   9.071   6.451  10.965 -0.0184  0.1030 -0.0587
   47BDD     S238218   8.921   6.382  11.036 -0.0511 -0.0212 -0.2473
   47BDD    C1038219   9.019   6.276  11.141 -0.1001 -0.1967 -0.3788
   47BDD    C1138220   8.945   6.215  11.266  0.4585  0.1300 -0.8602
   47BDD    C1238221   8.857   6.084  11.223 -0.8456 -1.2088 -0.1487
   47BDD    C1338222   8.921   5.999  11.117 -0.8625  0.7871  0.9786
   47BDD    C1438223   8.846   5.890  11.036  1.0562 -0.0216 -1.0599
   47BDD    C1538224   8.899   5.790  10.933  0.9684  0.5863  0.0315
   47BDD    C1638225   8.937   5.847  10.795  0.2925 -0.1991  0.2731
   47BDD    C1738226   8.805   6.017  11.350  0.7437 -1.3424  0.1709
   47BDD    C1838227   8.691   5.920  11.337 -0.1328 -0.0750 -1.1068
   47BDD    C1938228   9.049   6.561  10.858  0.6680  0.4031 -0.0453
   47BDD    C2038229   8.985   6.690  10.916  1.3024  0.4199  0.8400
   47BDD    C2138230   9.065   6.810  10.916 -0.5032 -0.8691 -0.0646
   47BDD    C2238231   9.201   6.801  10.984  0.6289  0.5344 -1.0872
   47BDD    C2338232   9.274   6.937  10.964 -1.2789 -0.4913 -0.3133
   47BDD    C2438233   9.435   6.928  10.996  1.0993 -0.1604 -1.2551
   47BDD    C2538234   8.843   6.701  10.847 -0.1992 -0.9280 -0.6292
   47BDD    C2638235   8.745   6.815  10.880 -0.2256 -0.3430 -0.9771
   48TPM     C138236   9.637   6.430  10.929 -0.5780 -0.3569 -0.0144
   48TPM     C238237   9.721   6.537  10.927 -1.2083  0.1466  0.0532
   48TPM     C338238   9.769   6.572  10.796 -1.0471  0.2217  0.1307
   48TPM     C438239   9.721   6.490  10.697 -0.2941 -0.2243  0.1222
   48TPM     S138240   9.612   6.363  10.763  0.2746 -0.7781  0.0152
   49BDTP    C138241   9.725   6.757  10.138  0.2251 -0.4135  0.1764
   49BDTP    C238242   9.734   6.619  10.104  0.0451 -0.3986  0.0696
   49BDTP    C338243   9.730   6.517  10.199  0.0079 -0.4640 -0.0012
   49BDTP    C438244   9.718   6.554  10.334  0.1545 -0.5480  0.0353
   49BDTP    C538245   9.709   6.692  10.369  0.3343 -0.5629  0.1426
   49BDTP    C638246   9.713   6.793  10.274  0.3720 -0.4977  0.2130
   49BDTP    C738247   9.712   6.467  10.450  0.1492 -0.6256 -0.0237
   49BDTP    C838248   9.700   6.532  10.568  0.3145 -0.6975  0.0336
   49BDTP    S138249   9.694   6.713  10.549  0.4997 -0.6766  0.1698
   49BDTP    C938250   9.731   6.844  10.023  0.2303 -0.3359  0.2351
   49BDTP   C1038251   9.743   6.779   9.905  0.0651 -0.2639  0.1779
   49BDTP    S238252   9.749   6.598   9.923 -0.1203 -0.2848  0.0418
   50FTM     S138253   9.581   6.271  10.192 -0.6777 -0.2908 -0.5052
   50FTM     C138254   9.677   6.126  10.144 -0.0442  0.0245 -0.2111
   50FTM     C238255   9.804   6.164  10.111 -0.0665  0.4475  0.1631
   50FTM     C338256   9.833   6.304  10.120 -0.5651  0.5497  0.2422
   50FTM     C438257   9.725   6.376  10.162 -0.9372  0.1934 -0.0820
   50FTM     F138258   9.901   6.073  10.069  0.3633  0.7672  0.4561
   50FTM     C538259   9.606   5.996  10.114 -0.6168 -1.7024 -0.3057
   50FTM     C638260   9.598   5.963   9.974 -0.5823  1.8479 -0.6117
   50FTM     C738261   9.449   5.972   9.922  0.5219  1.1442 -0.8342
   50FTM     C838262   9.461   6.054   9.794 -0.0114  1.1448 -1.2555
   50FTM     C938263   9.377   6.181   9.806 -0.2924 -0.1218  0.4504
   50FTM    C1038264   9.354   6.231   9.650  1.6003  0.5235 -1.9311
   50FTM    C1138265   9.674   5.836   9.950  0.4989  0.5044 -0.2715
   50FTM    C1238266   9.673   5.769   9.808 -0.2660  0.5179 -0.2621
   51FTM     S138267   9.627   7.078  10.250  0.0075 -0.3270  0.3658
   51FTM     C138268   9.714   7.198  10.354  0.5386 -0.0417 -0.3903
   51FTM     C238269   9.804   7.133  10.433  0.7298  0.1420 -0.4547
   51FTM     C338270   9.810   6.991  10.419  0.4811  0.0738  0.0665
   51FTM     C438271   9.723   6.945  10.325  0.0862 -0.1702  0.5465
   51FTM     F138272   9.885   7.200  10.524  1.1413  0.3830 -0.9902
   51FTM     C538273   9.700   7.342  10.322  1.8746  0.2793  0.9830
   51FTM     C638274   9.773   7.389  10.192 -0.2668  0.7357 -0.4611
   51FTM     C738275   9.930   7.354  10.173 -0.4388  0.3806 -0.4478
   51FTM     C838276   9.997   7.208  10.143 -0.8866 -0.7110  0.4472
   51FTM     C938277  10.040   7.163   9.994  0.6199  0.1058 -0.5727
   51FTM    C1038278  10.102   7.019   9.986  0.5396 -0.3506  0.5116
   51FTM    C1138279   9.707   7.507  10.102 -1.2975 -1.1313  0.3719
   51FTM    C1238280   9.750   7.655  10.117 -1.0723 -0.2158  0.0087
   52TPM     C138281   9.795   6.837   9.790  0.1272 -0.6024 -0.0659
   52TPM     C238282   9.764   6.962   9.744  0.0386 -0.4716  0.3407
   52TPM     C338283   9.824   6.994   9.617  0.0970  0.0259  0.4909
   52TPM     C438284   9.902   6.894   9.567  0.2307  0.2745  0.1985
   52TPM     S138285   9.905   6.750   9.676  0.2931 -0.1034 -0.2929
   53BDD     C138286  10.256   6.943   9.401 -0.2594  0.0266 -0.1710
   53BDD     C238287  10.171   7.024   9.331 -0.1922  0.0796 -0.1912
   53BDD     C338288  10.033   7.016   9.375 -0.2227  0.1023 -0.2809
   53BDD     C438289  10.014   6.928   9.478 -0.3129  0.0661 -0.3277
   53BDD     S138290  10.169   6.850   9.527 -0.3657  0.0013 -0.2627
   53BDD     C538291  10.214   7.113   9.220 -0.0975  0.1115 -0.1292
   53BDD     C638292   9.924   7.095   9.313 -0.1612  0.1587 -0.3171
   53BDD     O138293   9.805   7.087   9.351 -0.1874  0.1781 -0.3943
   53BDD     O238294  10.333   7.120   9.182 -0.0710  0.0920 -0.0515
   53BDD     C738295   9.967   7.183   9.203 -0.0663  0.1906 -0.2551
   53BDD     C838296  10.105   7.192   9.159 -0.0358  0.1681 -0.1655
   53BDD     C938297  10.124   7.280   9.055  0.0546  0.2042 -0.1187
   53BDD     S238298   9.970   7.358   9.007  0.1076  0.2688 -0.1839
   53BDD    C1038299   9.883   7.265   9.133  0.0014  0.2435 -0.2756
   53BDD    C1138300   9.729   7.269   9.128  0.9266  0.3929 -0.7156
   53BDD    C1238301   9.635   7.228   9.002  0.7560  0.6289  0.5678
   53BDD    C1338302   9.634   7.090   8.951  0.6577  1.2145  0.5216
   53BDD    C1438303   9.758   7.017   8.899  0.8329  0.7165  0.8294
   53BDD    C1538304   9.733   6.866   8.892 -0.2115 -0.5163 -1.0407
   53BDD    C1638305   9.860   6.792   8.855 -0.4791 -0.0167 -1.1556
   53BDD    C1738306   9.502   7.308   8.949 -0.3648 -0.3635 -0.9001
   53BDD    C1838307   9.491   7.344   8.798  0.8301  0.8612  0.5931
   53BDD    C1938308  10.247   7.326   8.981  0.9956 -1.9011 -1.0897
   53BDD    C2038309  10.263   7.493   8.993  0.4489  0.1632  1.3369
   53BDD    C2138310  10.405   7.534   8.999 -1.2729  1.1114  0.0679
   53BDD    C2238311  10.477   7.535   9.133 -0.0059 -0.5226  0.7337
   53BDD    C2338312  10.440   7.646   9.222 -0.4844 -0.8504 -0.2426
   53BDD    C2438313  10.431   7.797   9.179  0.5019 -0.3155  0.3214
   53BDD    C2538314  10.174   7.607   8.922  1.3157  1.3692 -0.1148
   53BDD    C2638315  10.057   7.644   9.012  0.1004 -0.8706  0.8292
   54TPM     C138316  10.397   6.926   9.415 -0.4232 -0.6790  0.1263
   54TPM     C238317  10.486   6.890   9.318 -0.7088 -0.6040 -0.1643
   54TPM     C338318  10.622   6.878   9.364 -0.6158 -0.9261 -0.5093
   54TPM     C438319  10.637   6.905   9.497 -0.2595 -1.2465 -0.4814
   54TPM     S138320  10.479   6.948   9.574 -0.0115 -1.1657 -0.0140
   55BDTP    C138321  11.154   6.704   9.804 -0.1867 -0.2750 -0.0129
   55BDTP    C238322  11.046   6.650   9.878 -0.2310 -0.2339 -0.0477
   55BDTP    C338323  10.913   6.678   9.848 -0.2127 -0.2418 -0.1342
   55BDTP    C438324  10.886   6.762   9.738 -0.1476 -0.2928 -0.1900
   55BDTP    C538325  10.995   6.815   9.664 -0.1032 -0.3341 -0.1552
   55BDTP    C638326  11.127   6.788   9.694 -0.1215 -0.3261 -0.0684
   55BDTP    C738327  10.757   6.804   9.688 -0.1176 -0.3107 -0.2819
   55BDTP    C838328  10.764   6.886   9.580 -0.0534 -0.3626 -0.3176
   55BDTP    S138329  10.934   6.921   9.527 -0.0224 -0.3963 -0.2394
   55BDTP    C938330  11.283   6.662   9.854 -0.2167 -0.2574  0.0794
   55BDTP   C1038331  11.277   6.580   9.962 -0.2806 -0.2055  0.1149
   55BDTP    S238332  11.106   6.545  10.015 -0.3118 -0.1717  0.0368
   56FTM     S138333  10.671   6.524   9.917 -0.5349 -0.1927  0.1498
   56FTM     C138334  10.602   6.555  10.080 -0.3401  0.1339  0.1737
   56FTM     C238335  10.674   6.651  10.144 -0.3655  0.3836 -0.1688
   56FTM     C338336  10.785   6.705  10.072 -0.5336  0.3374 -0.4632
   56FTM     C438337  10.798   6.649   9.948 -0.6408  0.0425 -0.3424
   56FTM     F138338  10.644   6.695  10.272 -0.2379  0.6691 -0.2360
   56FTM     C538339  10.488   6.467  10.118 -0.1065  0.2594 -0.1861
   56FTM     C638340  10.339   6.515  10.080  0.6191 -0.0115 -0.3172
   56FTM     C738341  10.216   6.478  10.166  0.7286  0.2826  0.2830
   56FTM     C838342  10.241   6.461  10.315 -0.6381 -0.8757  1.2937
   56FTM     C938343  10.271   6.590  10.400 -0.8991  1.0067 -0.1394
   56FTM    C1038344  10.151   6.679  10.402 -0.6808 -1.5189  0.7277
   56FTM    C1138345  10.309   6.547   9.928 -1.3299 -0.1091  0.1070
   56FTM    C1238346  10.185   6.625   9.883  0.4246 -0.6616 -0.3317
   57FTM     S138347  11.270   6.740   9.468 -0.1053 -0.3265 -0.3935
   57FTM     C138348  11.350   6.883   9.394 -0.0257 -0.2063 -0.0746
   57FTM     C238349  11.346   6.988   9.481  0.6218 -0.5853  0.4263
   57FTM     C338350  11.283   6.963   9.607  1.0839 -0.9825  0.5891
   57FTM     C438351  11.236   6.836   9.617  0.7807 -0.9054  0.1995
   57FTM     F138352  11.401   7.112   9.452  0.8342 -0.5950  0.7675
   57FTM     C538353  11.406   6.888   9.255 -0.8380  0.9560 -0.9286
   57FTM     C638354  11.524   6.789   9.227 -0.1775 -0.2257  0.8202
   57FTM     C738355  11.670   6.818   9.276 -0.2027 -0.4086  0.5866
   57FTM     C838356  11.726   6.796   9.402 -1.8044 -0.1995  0.0151
   57FTM     C938357  11.648   6.719   9.507  0.4578 -0.3608  0.1910
   57FTM    C1038358  11.696   6.738   9.647 -0.1821  0.7443  0.5925
   57FTM    C1138359  11.541   6.739   9.084  0.0849  0.0244 -0.0079
   57FTM    C1238360  11.491   6.611   9.053  0.9709  2.3785  1.5185
   58TPM     C138361  11.395   6.520  10.022 -0.1443 -0.1765 -0.0027
   58TPM     C238362  11.504   6.478   9.951 -0.6872 -0.6878 -0.5510
   58TPM     C338363  11.591   6.390  10.025 -0.5504 -0.8274 -0.8738
   58TPM     C438364  11.549   6.366  10.152  0.0967 -0.4226 -0.5714
   58TPM     S138365  11.395   6.452  10.189  0.5875  0.1710  0.1498
   59BDD     C138366  11.806   6.188  10.396 -0.0026  0.6028 -0.1883
   59BDD     C238367  11.688   6.118  10.400  0.0839  0.4597 -0.1392
   59BDD     C338368  11.586   6.171  10.311  0.0191  0.2670 -0.1807
   59BDD     C438369  11.627   6.280  10.241 -0.1160  0.2664 -0.2610
   59BDD     S138370  11.797   6.325  10.280 -0.1713  0.5065 -0.2902
   59BDD     C538371  11.666   6.000  10.486  0.2294  0.4947 -0.0522
   59BDD     C638372  11.452   6.111  10.300  0.0935  0.0910 -0.1392
   59BDD     O138373  11.364   6.157  10.224  0.0377 -0.0750 -0.1748
   59BDD     O238374  11.754   5.954  10.562  0.2853  0.6607 -0.0165
   59BDD     C738375  11.429   5.993  10.386  0.2390  0.1259 -0.0520
   59BDD     C838376  11.531   5.940  10.475  0.3038  0.3185 -0.0105
   59BDD     C938377  11.490   5.830  10.546  0.4389  0.3192  0.0694
   59BDD     S238378  11.321   5.786  10.506  0.4940  0.0791  0.0987
   59BDD    C1038379  11.312   5.923  10.391  0.3254 -0.0173 -0.0031
   59BDD    C1138380  11.169   5.934  10.321 -1.1415 -1.1521 -0.6165
   59BDD    C1238381  11.063   5.995  10.404  0.0855 -0.1159  0.7065
   59BDD    C1338382  10.935   6.023  10.331  0.8574  0.9356 -0.0044
   59BDD    C1438383  10.929   6.176  10.280  0.8423  0.2537 -0.5853
   59BDD    C1538384  10.999   6.282  10.384  0.7664  0.4773  0.1301
   59BDD    C1638385  10.959   6.418  10.345  1.2726  0.7956 -0.5550
   59BDD    C1738386  11.047   5.963  10.563  1.2820  0.1668  0.5147
   59BDD    C1838387  10.926   6.025  10.646 -0.3554 -0.2630  0.7663
   59BDD    C1938388  11.559   5.720  10.622  0.0090  0.1055  0.3107
   59BDD    C2038389  11.562   5.738  10.783 -0.0500  0.2041  0.4994
   59BDD    C2138390  11.682   5.672  10.831 -0.2098 -0.0812 -0.8450
   59BDD    C2238391  11.716   5.711  10.979  0.4736  0.1298  0.0985
   59BDD    C2338392  11.771   5.854  11.010 -0.0298 -0.5240 -0.5890
   59BDD    C2438393  11.878   5.886  10.922  0.5630 -0.1834 -0.0600
   59BDD    C2538394  11.438   5.742  10.859 -0.9608 -0.3400  0.6337
   59BDD    C2638395  11.370   5.606  10.840  0.5041 -0.4898  1.2513
   60TPM     C138396  11.943   6.174  10.459 -0.9555 -0.2896  0.7047
   60TPM     C238397  12.033   6.269  10.422 -0.9696 -0.5209  0.0570
   60TPM     C338398  12.164   6.250  10.480 -0.6883 -0.6638 -0.6063
   60TPM     C438399  12.173   6.141  10.561 -0.4598 -0.5413 -0.4642
   60TPM     S138400  12.015   6.053  10.571 -0.5831 -0.2336  0.5257
    1BDTP    C138401   6.034   0.337  10.999 -0.0664 -0.3345  0.0956
    1BDTP    C238402   6.152   0.265  11.033 -0.0353 -0.2641  0.1349
    1BDTP    C338403   6.175   0.216  11.161  0.0483 -0.0644  0.1979
    1BDTP    C438404   6.077   0.238  11.259  0.1043  0.0727  0.2227
    1BDTP    C538405   5.959   0.310  11.225  0.0730  0.0023  0.1833
    1BDTP    C638406   5.936   0.359  11.097 -0.0107 -0.1974  0.1203
    1BDTP    C738407   6.079   0.197  11.398  0.1932  0.2864  0.2863
    1BDTP    C838408   5.969   0.234  11.468  0.2302  0.3788  0.2959
    1BDTP    S138409   5.848   0.326  11.369  0.1571  0.2080  0.2263
    1BDTP    C938410   6.032   0.378  10.860 -0.1557 -0.5482  0.0322
    1BDTP   C1038411   6.142   0.341  10.789 -0.1925 -0.6406  0.0224
    1BDTP    S238412   6.263   0.249  10.889 -0.1196 -0.4698  0.0922
    2FTM     S138413   6.269  -0.037  11.118 -0.2226  0.1436 -0.2716
    2FTM     C138414   6.401  -0.090  11.229 -0.3648  0.5449  0.0961
    2FTM     C238415   6.438   0.012  11.311 -0.6933  0.7477 -0.0083
    2FTM     C338416   6.367   0.136  11.292 -0.8507  0.6063 -0.3715
    2FTM     C438417   6.273   0.127  11.193 -0.6355  0.2850 -0.5514
    2FTM     F138418   6.537   0.001  11.407 -0.8711  1.0729  0.2186
    2FTM     C538419   6.420  -0.238  11.250 -0.5066 -0.4486 -0.2329
    2FTM     C638420   6.337  -0.354  11.234  0.7640  0.2886  2.4452
    2FTM     C738421   6.271  -0.394  11.098  1.0654  0.2319 -0.9473
    2FTM     C838422   6.337  -0.366  10.972 -1.0001  0.4613  0.2227
    2FTM     C938423   6.262  -0.385  10.851  0.8235 -0.8657  1.1499
    2FTM    C1038424   6.160  -0.267  10.827  0.2973  0.3900  0.8703
    2FTM    C1138425   6.420  -0.472  11.279  0.6251  0.8879  0.7144
    2FTM    C1238426   6.343  -0.550  11.375 -1.1987 -0.8776 -0.5447
    3FTM     S138427   5.662   0.329  11.013 -0.4232  0.5260 -0.1422
    3FTM     C138428   5.562   0.478  11.024  0.1552  0.8618  0.9096
    3FTM     C238429   5.639   0.582  11.066  0.7510  0.4389  0.8981
    3FTM     C338430   5.777   0.553  11.092  0.7931 -0.1575  0.0906
    3FTM     C438431   5.807   0.422  11.070  0.2106 -0.1925 -0.5367
    3FTM     F138432   5.589   0.710  11.084  1.2937  0.5669  1.6184
    3FTM     C538433   5.415   0.467  10.979  1.9269 -0.8191 -1.8274
    3FTM     C638434   5.300   0.376  11.061 -1.2149 -1.2996  0.0970
    3FTM     C738435   5.190   0.307  11.000  0.3701  0.0992  1.2961
    3FTM     C838436   5.212   0.157  10.978  0.1433  0.3577 -0.6203
    3FTM     C938437   5.109   0.099  10.873 -0.1120  0.4881 -1.0839
    3FTM    C1038438   5.188   0.021  10.769 -1.0097  0.1291 -0.5971
    3FTM    C1138439   5.295   0.411  11.213  0.0919 -0.2954  0.3477
    3FTM    C1238440   5.159   0.441  11.277 -0.2901 -0.1688 -0.3968
    4TPM     C138441   6.172   0.392  10.656 -0.6004  0.3263  0.5927
    4TPM     C238442   6.274   0.467  10.606 -0.3496  0.5833  1.4715
    4TPM     C338443   6.253   0.513  10.471  0.6913  0.5336  1.2739
    4TPM     C438444   6.134   0.472  10.418  1.2343  0.2388  0.2445
    4TPM     S138445   6.039   0.372  10.534  0.4671 -0.0009 -0.5615
    5BDD     C138446   6.129   0.498  10.029 -0.0511 -0.3227 -0.2136
    5BDD     C238447   5.999   0.515  10.067  0.0092 -0.1919 -0.0651
    5BDD     C338448   5.980   0.509  10.211  0.1838 -0.0565 -0.0360
    5BDD     C438449   6.096   0.487  10.280  0.2542 -0.0860 -0.1626
    5BDD     S138450   6.237   0.474  10.170  0.1065 -0.2854 -0.3273
    5BDD     C538451   5.887   0.537   9.973 -0.0914 -0.1867  0.0556
    5BDD     C638452   5.848   0.524  10.275  0.2745  0.0973  0.1163
    5BDD     O138453   5.832   0.519  10.399  0.4252  0.2140  0.1416
    5BDD     O238454   5.903   0.543   9.849 -0.2419 -0.3034  0.0308
    5BDD     C738455   5.736   0.547  10.181  0.1740  0.1025  0.2372
    5BDD     C838456   5.754   0.553  10.037 -0.0006 -0.0329  0.2081
    5BDD     C938457   5.638   0.574   9.968 -0.0708 -0.0034  0.3352
    5BDD     S238458   5.498   0.588  10.079  0.0768  0.1960  0.4997
    5BDD    C1038459   5.606   0.563  10.220  0.2344  0.2333  0.3860
    5BDD    C1138460   5.502   0.586  10.337 -1.9469  0.1564 -0.7120
    5BDD    C1238461   5.557   0.635  10.473  0.6487  0.3812 -0.2789
    5BDD    C1338462   5.483   0.598  10.610  0.8902 -0.6597 -2.0987
    5BDD    C1438463   5.328   0.609  10.636  1.0374 -0.1720 -0.0334
    5BDD    C1538464   5.265   0.764  10.627 -1.4077  0.6671  0.4685
    5BDD    C1638465   5.204   0.823  10.754 -0.2514 -0.2844 -0.3822
    5BDD    C1738466   5.625   0.759  10.451 -1.5722 -0.4564 -0.4627
    5BDD    C1838467   5.566   0.884  10.409 -0.0403 -1.5258  1.1971
    5BDD    C1938468   5.594   0.554   9.821 -1.0218 -0.0613 -0.0538
    5BDD    C2038469   5.582   0.404   9.776 -0.1793  0.3102 -1.1814
    5BDD    C2138470   5.701   0.341   9.702  0.2766 -0.7648  0.2221
    5BDD    C2238471   5.738   0.385   9.566 -0.6422 -0.3510  0.9396
    5BDD    C2338472   5.845   0.307   9.498 -0.4434 -0.0112  0.5584
    5BDD    C2438473   5.991   0.297   9.553  0.2565 -0.0215  0.5332
    5BDD    C2538474   5.470   0.329   9.825  0.7063  0.8745 -0.0357
    5BDD    C2638475   5.477   0.170   9.821  0.8362 -0.5199  0.0685
    6TPM     C138476   6.205   0.499   9.915  0.0016 -0.5623  0.0100
    6TPM     C238477   6.207   0.396   9.826  0.2607 -0.5223 -0.0327
    6TPM     C338478   6.293   0.418   9.712  0.1786 -0.2441 -0.0408
    6TPM     C438479   6.356   0.539   9.715 -0.1434 -0.0720 -0.0042
    6TPM     S138480   6.313   0.634   9.863 -0.3692 -0.2493  0.0440
    7BDTP    C138481   6.886   0.624   9.376 -0.0532  0.1128 -0.0558
    7BDTP    C238482   6.926   0.665   9.507 -0.0532  0.1345 -0.0625
    7BDTP    C338483   6.839   0.665   9.615 -0.0366  0.0951 -0.0498
    7BDTP    C438484   6.707   0.621   9.595 -0.0190  0.0314 -0.0286
    7BDTP    C538485   6.667   0.580   9.465 -0.0188  0.0097 -0.0217
    7BDTP    C638486   6.753   0.580   9.356 -0.0354  0.0490 -0.0349
    7BDTP    C738487   6.600   0.612   9.692  0.0002 -0.0182 -0.0124
    7BDTP    C838488   6.483   0.567   9.642  0.0143 -0.0753  0.0062
    7BDTP    S138489   6.492   0.529   9.464  0.0055 -0.0744  0.0055
    7BDTP    C938490   6.993   0.633   9.279 -0.0722  0.1623 -0.0722
    7BDTP   C1038491   7.110   0.678   9.330 -0.0862  0.2194 -0.0904
    7BDTP    S238492   7.101   0.716   9.507 -0.0775  0.2185 -0.0900
    8FTM     S138493   6.853   0.899   9.797  0.1956 -0.1969  0.1222
    8FTM     C138494   6.868   0.852   9.971 -0.9096  0.3079  0.3726
    8FTM     C238495   6.884   0.717   9.981 -1.1225  0.3165  0.8821
    8FTM     C338496   6.885   0.644   9.858 -0.4550 -0.0597  1.1034
    8FTM     C438497   6.870   0.726   9.749  0.2931 -0.3665  0.7518
    8FTM     F138498   6.898   0.652  10.103 -1.9341  0.6656  1.1780
    8FTM     C538499   6.856   0.952  10.083 -0.6336  0.8879  0.5963
    8FTM     C638500   6.966   1.050  10.094 -0.4446  1.5127 -0.3716
    8FTM     C738501   6.970   1.102  10.241 -0.7098  0.9394 -1.5844
    8FTM     C838502   7.046   1.004  10.346  1.2941 -1.1686  0.3719
    8FTM     C938503   6.993   0.956  10.478  0.1450 -0.1129  0.6704
    8FTM    C1038504   6.896   0.835  10.500 -0.1857  0.8349 -0.5585
    8FTM    C1138505   7.016   1.161  10.000  0.2245 -0.4715 -0.1181
    8FTM    C1238506   6.898   1.269   9.993  0.2812 -0.1018  0.2386
    9FTM     S138507   6.654   0.369   9.209 -0.3020  0.0876  0.3315
    9FTM     C138508   6.622   0.390   9.033 -0.1678 -0.1210  0.2821
    9FTM     C238509   6.657   0.515   8.994  0.6691 -0.4355 -0.0229
    9FTM     C338510   6.710   0.601   9.096  1.2435 -0.5313 -0.2315
    9FTM     C438511   6.715   0.539   9.218  0.8326 -0.2818 -0.0815
    9FTM     F138512   6.644   0.560   8.864  0.9649 -0.6555 -0.1314
    9FTM     C538513   6.580   0.265   8.950  0.4270 -1.9503  0.1714
    9FTM     C638514   6.447   0.183   8.982 -0.1351 -0.1942  0.9300
    9FTM     C738515   6.339   0.241   9.070  0.8152 -1.0629  0.9929
    9FTM     C838516   6.263   0.369   9.019  0.2794  0.4898 -0.3804
    9FTM     C938517   6.148   0.418   9.107  0.7108 -0.5367 -0.0777
    9FTM    C1038518   6.073   0.545   9.055  0.4967 -0.6820  0.0514
    9FTM    C1138519   6.414   0.082   8.873  0.6222  0.9531  0.7637
    9FTM    C1238520   6.319  -0.032   8.920  0.2805 -0.0519  0.4851
   10TPM     C138521   7.237   0.695   9.266 -0.6698 -0.1395 -0.3436
   10TPM     C238522   7.342   0.773   9.307 -0.8950  0.1063 -0.2277
   10TPM     C338523   7.442   0.793   9.205 -0.8668  0.4041 -0.1411
   10TPM     C438524   7.414   0.731   9.087 -0.6197  0.3854 -0.1911
   10TPM     S138525   7.258   0.642   9.095 -0.4018 -0.0129 -0.3524
   11BDD     C138526   7.688   0.751   8.816 -0.2819  0.1946 -0.0332
   11BDD     C238527   7.571   0.777   8.749 -0.2363  0.2122 -0.1063
   11BDD     C338528   7.454   0.771   8.834 -0.2770  0.3568 -0.1533
   11BDD     C438529   7.482   0.741   8.964 -0.3533  0.4472 -0.1152
   11BDD     S138530   7.658   0.717   8.989 -0.3793  0.3576 -0.0179
   11BDD     C538531   7.564   0.808   8.604 -0.1532  0.0969 -0.1354
   11BDD     C638532   7.317   0.797   8.782 -0.2389  0.3999 -0.2337
   11BDD     O138533   7.216   0.792   8.855 -0.2741  0.5246 -0.2744
   11BDD     O238534   7.666   0.813   8.531 -0.1179 -0.0278 -0.0951
   11BDD     C738535   7.310   0.828   8.638 -0.1558  0.2846 -0.2632
   11BDD     C838536   7.428   0.834   8.553 -0.1150  0.1400 -0.2165
   11BDD     C938537   7.400   0.864   8.423 -0.0386  0.0496 -0.2542
   11BDD     S238538   7.224   0.888   8.398 -0.0127  0.1392 -0.3515
   11BDD    C1038539   7.194   0.854   8.571 -0.1100  0.3023 -0.3362
   11BDD    C1138540   7.056   0.880   8.626  0.7915 -0.2034 -0.0478
   11BDD    C1238541   6.977   0.756   8.684  0.4470 -1.5293  1.2030
   11BDD    C1338542   6.965   0.629   8.609  0.1849 -0.7280  1.4470
   11BDD    C1438543   7.089   0.535   8.597  0.9911  1.7585  0.9538
   11BDD    C1538544   7.163   0.488   8.711 -0.5954 -0.0393 -0.6046
   11BDD    C1638545   7.107   0.384   8.806  1.5124 -0.3154 -1.0519
   11BDD    C1738546   6.854   0.782   8.762  0.1818 -1.1349 -0.1176
   11BDD    C1838547   6.729   0.861   8.703  0.0584 -0.7920 -1.2786
   11BDD    C1938548   7.498   0.887   8.322  0.1187  0.3883  0.8435
   11BDD    C2038549   7.522   1.040   8.292 -0.0543  0.1954 -0.3452
   11BDD    C2138550   7.424   1.123   8.214  0.2424 -1.5503  1.5717
   11BDD    C2238551   7.468   1.240   8.136 -1.0679 -0.7356  0.5036
   11BDD    C2338552   7.352   1.293   8.041  0.6436  0.8684  0.7269
   11BDD    C2438553   7.375   1.426   7.977  0.5624  1.5280  0.3057
   11BDD    C2538554   7.596   1.136   8.410  0.6974  1.0027 -0.2171
   11BDD    C2638555   7.735   1.084   8.427 -0.7584 -1.2896  0.0468
   12TPM     C138556   7.833   0.759   8.788 -0.1863  0.0452 -0.0966
   12TPM     C238557   7.916   0.806   8.886 -0.2836 -0.2188  0.1147
   12TPM     C338558   8.055   0.801   8.850 -0.2525 -0.0514  0.2112
   12TPM     C438559   8.078   0.751   8.725 -0.1317  0.3402  0.0735
   12TPM     S138560   7.925   0.706   8.643 -0.0470  0.5295 -0.1907
   13BDTP    C138561   8.669   0.684   8.550 -0.4411 -0.2043 -0.2248
   13BDTP    C238562   8.612   0.777   8.458 -0.2973 -0.0218 -0.1307
   13BDTP    C338563   8.478   0.812   8.461 -0.2544  0.1429 -0.1299
   13BDTP    C438564   8.395   0.753   8.558 -0.3581  0.1273 -0.2265
   13BDTP    C538565   8.452   0.660   8.650 -0.5019 -0.0553 -0.3202
   13BDTP    C638566   8.586   0.625   8.648 -0.5450 -0.2200 -0.3211
   13BDTP    C738567   8.254   0.774   8.580 -0.3387  0.2776 -0.2454
   13BDTP    C838568   8.202   0.703   8.683 -0.4599  0.2175 -0.3474
   13BDTP    S138569   8.325   0.599   8.766 -0.6156 -0.0379 -0.4344
   13BDTP    C938570   8.810   0.662   8.528 -0.4606 -0.3547 -0.2058
   13BDTP   C1038571   8.862   0.734   8.425 -0.3395 -0.2946 -0.1035
   13BDTP    S238572   8.738   0.838   8.342 -0.1836 -0.0391 -0.0169
   14FTM     S138573   8.468   0.829   8.173 -0.4089 -0.0146  0.2916
   14FTM     C138574   8.328   0.915   8.100 -0.2844 -0.0687 -0.0119
   14FTM     C238575   8.248   0.965   8.198 -0.1168  0.5490 -0.1802
   14FTM     C338576   8.290   0.940   8.332 -0.0758  1.0889 -0.0846
   14FTM     C438577   8.405   0.868   8.338 -0.2167  0.8778  0.1637
   14FTM     F138578   8.133   1.037   8.171  0.0098  0.6622 -0.4296
   14FTM     C538579   8.281   0.891   7.960 -0.2256 -0.3703  1.1940
   14FTM     C638580   8.297   1.007   7.861 -0.1274 -0.0258  0.4403
   14FTM     C738581   8.441   1.052   7.841  0.1416 -1.2149  0.5051
   14FTM     C838582   8.540   0.954   7.793 -0.8095 -0.7620 -0.2355
   14FTM     C938583   8.540   0.878   7.662 -0.3840 -0.4911 -0.2936
   14FTM    C1038584   8.511   0.720   7.696  0.7985  0.3194  0.9439
   14FTM    C1138585   8.183   1.110   7.826  0.2876 -0.9962 -0.4564
   14FTM    C1238586   8.103   1.167   7.946  0.0551 -0.3992  1.0930
   15FTM     S138587   8.803   0.442   8.742  0.3540 -0.0916 -0.2563
   15FTM     C138588   8.791   0.403   8.918 -0.9215 -1.2739 -0.5670
   15FTM     C238589   8.674   0.449   8.968 -1.6139 -2.2424 -1.2341
   15FTM     C338590   8.587   0.516   8.875 -1.2038 -2.1271 -1.5373
   15FTM     C438591   8.641   0.521   8.750 -0.1648 -1.0345 -1.0874
   15FTM     F138592   8.637   0.434   9.101 -2.6591 -3.2910 -1.6100
   15FTM     C538593   8.902   0.362   9.002 -0.2132  0.1416  0.2694
   15FTM     C638594   9.053   0.399   8.953 -1.2922 -0.3432 -0.4509
   15FTM     C738595   9.175   0.316   8.995  0.3459 -0.6291 -0.6202
   15FTM     C838596   9.199   0.173   8.973 -1.1479 -0.2589  0.2675
   15FTM     C938597   9.317   0.101   9.025 -0.9557  0.8253 -0.1413
   15FTM    C1038598   9.457   0.110   8.948  1.0012  0.3776 -0.3506
   15FTM    C1138599   9.079   0.540   8.907 -0.7449  0.8356  0.0742
   15FTM    C1238600   9.198   0.617   8.978 -0.5573  0.1972 -0.3572
   16TPM     C138601   9.003   0.733   8.373  0.2640  0.2851  1.4434
   16TPM     C238602   9.082   0.836   8.332  0.4377  0.4282  2.1181
   16TPM     C338603   9.214   0.796   8.292  0.3362  0.4452  1.7560
   16TPM     C438604   9.236   0.662   8.303  0.0850  0.3153  0.8054
   16TPM     S138605   9.090   0.575   8.364 -0.0437  0.1600  0.2897
   17BDD     C138606   9.570   0.496   8.439  0.4032  0.1030  0.0326
   17BDD     C238607   9.599   0.522   8.308  0.3059  0.0082 -0.0091
   17BDD     C338608   9.491   0.587   8.237  0.1655 -0.2586 -0.0386
   17BDD     C438609   9.380   0.608   8.314  0.1577 -0.3633 -0.0196
   17BDD     S138610   9.405   0.550   8.482  0.3257 -0.1351  0.0370
   17BDD     C538611   9.728   0.489   8.244  0.3381  0.1593 -0.0224
   17BDD     C638612   9.501   0.624   8.094  0.0439 -0.4000 -0.0849
   17BDD     O138613   9.407   0.680   8.033 -0.0772 -0.6300 -0.1101
   17BDD     O238614   9.822   0.433   8.306  0.4592  0.3893  0.0033
   17BDD     C738615   9.630   0.591   8.030  0.0761 -0.2488 -0.0982
   17BDD     C838616   9.738   0.527   8.102  0.2165  0.0179 -0.0684
   17BDD     C938617   9.849   0.505   8.024  0.2236  0.1226 -0.0877
   17BDD     S238618   9.825   0.563   7.857  0.0559 -0.1056 -0.1442
   17BDD    C1038619   9.659   0.617   7.899 -0.0217 -0.3437 -0.1400
   17BDD    C1138620   9.593   0.685   7.789 -0.1750  0.7240  1.1343
   17BDD    C1238621   9.576   0.840   7.793 -0.0998 -0.9255 -0.1776
   17BDD    C1338622   9.419   0.885   7.805 -0.3245 -0.6606  0.3216
   17BDD    C1438623   9.406   1.030   7.844  0.5842 -0.2455 -0.7027
   17BDD    C1538624   9.272   1.083   7.826 -0.4533 -1.6641 -1.1626
   17BDD    C1638625   9.213   1.156   7.945 -0.7139  1.0846 -0.9798
   17BDD    C1738626   9.674   0.915   7.700 -0.3460 -0.5322  1.3118
   17BDD    C1838627   9.618   0.890   7.557 -0.6710  0.8623  0.2106
   17BDD    C1938628   9.986   0.430   8.063  1.0588 -1.2698  1.4752
   17BDD    C2038629  10.098   0.530   8.101  0.6454  0.2730  0.8785
   17BDD    C2138630  10.242   0.495   8.098  0.2873 -0.1699  0.5271
   17BDD    C2238631  10.308   0.384   8.007 -0.1897  0.4819  0.1383
   17BDD    C2338632  10.316   0.356   7.848 -0.5190  0.5327  0.2609
   17BDD    C2438633  10.189   0.320   7.776  1.0079 -0.4852  0.2137
   17BDD    C2538634  10.059   0.674   8.145 -0.8986 -0.3137  0.1952
   17BDD    C2638635  10.136   0.791   8.092 -1.6461 -0.5429 -0.2851
   18TPM     C138636   9.654   0.441   8.555 -0.0628 -0.5453  0.0090
   18TPM     C238637   9.657   0.307   8.579 -0.9615 -0.3972  1.1103
   18TPM     C338638   9.764   0.267   8.666 -1.1718 -0.4188  1.3616
   18TPM     C438639   9.843   0.370   8.708 -0.4333 -0.5835  0.4518
   18TPM     S138640   9.787   0.528   8.641  0.5929 -0.7250 -0.8024
   19BDTP    C138641  10.327   0.402   9.111  0.0284 -0.2688 -0.3011
   19BDTP    C238642  10.325   0.533   9.054  0.0999 -0.2443 -0.2482
   19BDTP    C338643  10.232   0.571   8.958  0.1886 -0.1887 -0.3128
   19BDTP    C438644  10.136   0.477   8.917  0.2084 -0.1555 -0.4356
   19BDTP    C538645  10.138   0.346   8.974  0.1371 -0.1801 -0.4885
   19BDTP    C638646  10.232   0.308   9.070  0.0480 -0.2357 -0.4235
   19BDTP    C738647  10.030   0.493   8.820  0.2949 -0.0971 -0.5205
   19BDTP    C838648   9.954   0.383   8.801  0.2923 -0.0767 -0.6330
   19BDTP    S138649  10.005   0.243   8.905  0.1793 -0.1288 -0.6473
   19BDTP    C938650  10.433   0.386   9.208 -0.0587 -0.3273 -0.2160
   19BDTP   C1038651  10.510   0.496   9.227 -0.0558 -0.3476 -0.1035
   19BDTP    S238652  10.458   0.637   9.123  0.0568 -0.2956 -0.0892
   20FTM     S138653  10.340   0.806   8.837 -0.1886  0.3119 -0.3882
   20FTM     C138654  10.224   0.942   8.808 -0.1568  0.3815 -0.1965
   20FTM     C238655  10.104   0.913   8.865 -0.1118  0.4061 -0.0887
   20FTM     C338656  10.095   0.787   8.933 -0.0997  0.3732 -0.1476
   20FTM     C438657  10.212   0.717   8.928 -0.1366  0.3216 -0.3053
   20FTM     F138658   9.995   0.999   8.858 -0.0789  0.4600  0.0691
   20FTM     C538659  10.265   1.068   8.737 -1.0724  0.5241 -0.7990
   20FTM     C638660  10.321   1.058   8.591 -0.6796 -1.1381  0.4032
   20FTM     C738661  10.298   1.199   8.517  0.1994  1.0369  0.0523
   20FTM     C838662  10.155   1.247   8.460 -0.2297  0.3764 -0.6991
   20FTM     C938663  10.116   1.380   8.396 -0.0253 -0.7473 -0.5039
   20FTM    C1038664   9.964   1.391   8.400 -0.9877  0.6924  1.1604
   20FTM    C1138665  10.454   0.976   8.571 -0.6025 -0.0922  0.1566
   20FTM    C1238666  10.568   1.022   8.648 -0.0591  0.8171  0.1137
   21FTM     S138667  10.077   0.077   9.159  0.1329  0.4546 -0.0264
   21FTM     C138668  10.180  -0.062   9.209  0.1646  0.6554  0.4690
   21FTM     C238669  10.311  -0.028   9.198  0.1564  0.6776  0.4396
   21FTM     C338670  10.339   0.105   9.151  0.1254  0.5434  0.0393
   21FTM     C438671  10.225   0.175   9.125  0.1100  0.4139 -0.2469
   21FTM     F138672  10.414  -0.115   9.230  0.1760  0.8214  0.7734
   21FTM     C538673  10.144  -0.196   9.273 -0.4265  0.2800  0.7661
   21FTM     C638674  10.160  -0.338   9.196  0.3813 -0.0368 -0.4828
   21FTM     C738675  10.094  -0.454   9.273  0.6696  0.0412 -0.0892
   21FTM     C838676  10.150  -0.503   9.411 -0.8158 -0.8239  0.2610
   21FTM     C938677  10.093  -0.614   9.498  1.0909  0.4132  0.0521
   21FTM    C1038678   9.948  -0.608   9.499 -0.8337 -0.1040 -0.6916
   21FTM    C1138679  10.111  -0.352   9.048  0.9044 -1.2618  0.8340
   21FTM    C1238680  10.235  -0.381   8.964  0.6024  0.2010 -0.0617
   22TPM     C138681  10.592   0.523   9.338 -0.2686  0.2261  0.1913
   22TPM     C238682  10.582   0.629   9.423 -0.6230 -0.1552  0.6316
   22TPM     C338683  10.659   0.614   9.544 -0.9995 -0.6257  0.8225
   22TPM     C438684  10.729   0.497   9.550 -0.9316 -0.6031  0.5273
   22TPM     S138685  10.701   0.396   9.403 -0.3833  0.0190 -0.0185
   23BDD     C138686  11.078   0.448   9.725 -0.0329 -0.2840 -0.0454
   23BDD     C238687  10.981   0.442   9.822  0.0186 -0.3119  0.0041
   23BDD     C338688  10.846   0.453   9.770 -0.0346 -0.8341  0.0205
   23BDD     C438689  10.841   0.468   9.634 -0.1260 -1.1967 -0.0165
   23BDD     S138690  11.006   0.468   9.562 -0.1512 -0.9095 -0.0744
   23BDD     C538691  11.010   0.426   9.966  0.1187  0.1405  0.0381
   23BDD     C638692  10.727   0.450   9.857  0.0069 -0.9543  0.0727
   23BDD     O138693  10.610   0.459   9.812 -0.0391 -1.4046  0.0870
   23BDD     O238694  11.127   0.416  10.011  0.1645  0.5907  0.0238
   23BDD     C738695  10.756   0.433  10.001  0.1068 -0.5019  0.1063
   23BDD     C838696  10.891   0.422  10.053  0.1602  0.0202  0.0899
   23BDD     C938697  10.896   0.408  10.189  0.2518  0.3829  0.1266
   23BDD     S238698  10.732   0.407  10.261  0.2770  0.0957  0.1845
   23BDD    C1038699  10.660   0.427  10.098  0.1585 -0.5298  0.1554
   23BDD    C1138700  10.509   0.441  10.095 -0.2347 -0.8679 -0.0206
   23BDD    C1238701  10.413   0.562  10.051 -1.0203  0.2645 -0.7516
   23BDD    C1338702  10.283   0.523   9.976 -0.5737  0.6050 -0.9128
   23BDD    C1438703  10.279   0.439   9.854  0.3350 -0.4769 -0.1166
   23BDD    C1538704  10.255   0.505   9.723  0.0479 -0.2090 -0.4177
   23BDD    C1638705  10.258   0.390   9.617 -0.2325 -0.5973 -0.1267
   23BDD    C1738706  10.387   0.666  10.156  0.1532 -0.6556 -0.5296
   23BDD    C1838707  10.503   0.767  10.165 -1.3474  0.0059  1.9055
   23BDD    C1938708  11.007   0.437  10.290  1.2670  0.5344  0.2420
   23BDD    C2038709  11.006   0.578  10.348 -0.5834  0.1809 -0.3955
   23BDD    C2138710  10.990   0.597  10.501 -0.3349  1.3486  0.9047
   23BDD    C2238711  10.891   0.711  10.568 -1.0147  0.4090  0.3599
   23BDD    C2338712  10.880   0.860  10.523  0.2620  1.2180 -0.1608
   23BDD    C2438713  10.765   0.911  10.612 -0.8727 -0.2768 -1.0202
   23BDD    C2538714  11.026   0.696  10.239 -0.3178  0.7666 -0.4187
   23BDD    C2638715  11.125   0.784  10.289  0.3476 -2.1312 -0.4381
   24TPM     C138716  11.231   0.422   9.726 -0.1751 -0.4277  0.8395
   24TPM     C238717  11.304   0.469   9.621 -0.1862  0.7581  1.3363
   24TPM     C338718  11.426   0.395   9.597  0.0319  1.2849  0.7517
   24TPM     C438719  11.444   0.291   9.684  0.2096  0.5007 -0.1916
   24TPM     S138720  11.309   0.279   9.803  0.1146 -0.9752 -0.4157
   25BDTP    C138721  11.962  -0.051   9.791 -0.0101  0.6826  0.5670
   25BDTP    C238722  11.873  -0.094   9.893 -0.2943 -0.0036  0.0420
   25BDTP    C338723  11.744  -0.044   9.907 -0.4352 -0.3052 -0.1438
   25BDTP    C438724  11.701   0.055   9.816 -0.2894  0.0871  0.2038
   25BDTP    C538725  11.791   0.098   9.713 -0.0052  0.7731  0.7288
   25BDTP    C638726  11.919   0.048   9.700  0.1357  1.0748  0.9148
   25BDTP    C738727  11.573   0.122   9.810 -0.3912 -0.1149  0.1011
   25BDTP    C838728  11.562   0.212   9.710 -0.1997  0.3799  0.5183
   25BDTP    S138729  11.712   0.225   9.609  0.1366  1.1714  1.0998
   25BDTP    C938730  12.090  -0.117   9.796  0.0917  0.8845  0.6697
   25BDTP   C1038731  12.102  -0.208   9.896 -0.0998  0.3898  0.2527
   25BDTP    S238732  11.951  -0.221   9.998 -0.4361 -0.4017 -0.3292
   26FTM     S138733  11.573   0.016  10.154 -0.2827 -0.0173 -0.1026
   26FTM     C138734  11.486  -0.131  10.210  0.3458 -0.2459  0.2926
   26FTM     C238735  11.524  -0.239  10.136  0.9306 -0.3221  0.6912
   26FTM     C338736  11.621  -0.214  10.034  0.9258 -0.2105  0.7136
   26FTM     C438737  11.659  -0.083  10.029  0.3174 -0.0432  0.3190
   26FTM     F138738  11.474  -0.366  10.157  1.5049 -0.4978  1.0595
   26FTM     C538739  11.392  -0.127  10.343 -0.2758  1.5131  0.8428
   26FTM     C638740  11.303  -0.016  10.331  0.1723 -1.0548  0.8552
   26FTM     C738741  11.154  -0.047  10.300 -0.0279 -0.5107 -0.6885
   26FTM     C838742  11.085  -0.170  10.349  0.6670 -0.5509  0.0669
   26FTM     C938743  10.996  -0.139  10.474  0.8637 -0.5933  0.5841
   26FTM    C1038744  10.843  -0.087  10.450 -1.6053  0.7127  0.7780
   26FTM    C1138745  11.322   0.081  10.463  1.4473  0.6373  1.4132
   26FTM    C1238746  11.233   0.202  10.473 -0.5063 -1.1229 -0.6885
   27FTM     S138747  11.988  -0.009   9.429 -0.4884  0.6323  0.2011
   27FTM     C138748  12.085   0.117   9.344 -0.1542 -0.0016 -0.3754
   27FTM     C238749  12.123   0.213   9.431  0.7178 -0.0660 -0.6680
   27FTM     C338750  12.081   0.195   9.567  1.1683  0.3626 -0.4666
   27FTM     C438751  12.008   0.082   9.584  0.6235  0.7693 -0.0047
   27FTM     F138752  12.199   0.323   9.394  1.1599 -0.5178 -1.1358
   27FTM     C538753  12.094   0.089   9.198 -0.5594 -0.9021  0.2252
   27FTM     C638754  12.210   0.023   9.130 -0.1251 -0.6195  0.9899
   27FTM     C738755  12.305   0.096   9.030 -0.8691 -0.5735 -1.0429
   27FTM     C838756  12.256   0.128   8.891 -0.0167 -0.4174 -0.2438
   27FTM     C938757  12.215   0.277   8.887  0.7940  0.4958  0.0777
   27FTM    C1038758  12.130   0.320   8.765 -0.1207  0.6507 -0.8312
   27FTM    C1138759  12.243  -0.111   9.190  1.0484  0.0368  0.1345
   27FTM    C1238760  12.241  -0.236   9.097  1.4285  0.0894  0.0630
   28TPM     C138761  12.207  -0.305   9.910  0.0181 -0.2096 -0.0712
   28TPM     C238762  12.305  -0.341   9.822 -0.1930 -0.1881 -0.3173
   28TPM     C338763  12.409  -0.421   9.881 -0.0622 -0.2246 -0.5949
   28TPM     C438764  12.391  -0.445  10.014  0.2485 -0.2738 -0.5599
   28TPM     S138765  12.239  -0.369  10.076  0.4013 -0.2781 -0.1709
   29BDD     C138766  12.574  -0.629  10.300 -0.0642  0.0774  0.2719
   29BDD     C238767  12.677  -0.588  10.220 -0.0129 -0.0441  0.2754
   29BDD     C338768  12.634  -0.519  10.100  0.0688 -0.0937  0.2172
   29BDD     C438769  12.498  -0.509  10.089  0.0787 -0.0094  0.1703
   29BDD     S138770  12.415  -0.585  10.229 -0.0137  0.1383  0.1955
   29BDD     C538771  12.820  -0.610  10.252 -0.0372 -0.1194  0.3321
   29BDD     C638772  12.728  -0.466  10.000  0.1342 -0.2232  0.2103
   29BDD     O138773  12.691  -0.407   9.896  0.2047 -0.2658  0.1602
   29BDD     O238774  12.857  -0.669  10.356 -0.1077 -0.0765  0.3824
   29BDD     C738775  12.871  -0.489  10.032  0.1100 -0.2980  0.2670
   29BDD     C838776  12.914  -0.557  10.152  0.0283 -0.2487  0.3252
   29BDD     C938777  13.050  -0.567  10.163  0.0184 -0.3328  0.3719
   29BDD     S238778  13.133  -0.492  10.023  0.1108 -0.4805  0.3467
   29BDD    C1038779  12.974  -0.447   9.952  0.1613 -0.4194  0.2704
   29BDD    C1138780  12.988  -0.357   9.827  0.0728 -0.9307 -0.4226
   29BDD    C1238781  13.119  -0.372   9.751 -0.1740 -1.0844  0.5781
   29BDD    C1338782  13.241  -0.288   9.812  0.6203  0.1297  0.0806
   29BDD    C1438783  13.365  -0.262   9.733 -0.4866  0.3699  0.3808
   29BDD    C1538784  13.357  -0.134   9.644 -0.1502  0.1525 -0.1198
   29BDD    C1638785  13.466  -0.183   9.535 -0.7328 -0.3969 -0.4266
   29BDD    C1738786  13.101  -0.374   9.592 -0.3372  1.1663  0.4698
   29BDD    C1838787  13.024  -0.260   9.529  0.2428 -0.1240 -0.7733
   29BDD    C1938788  13.142  -0.653  10.251  0.7296 -0.0053 -0.0965
   29BDD    C2038789  13.256  -0.598  10.335 -0.8140 -0.5639  0.4431
   29BDD    C2138790  13.241  -0.481  10.438 -1.1174  0.7772  0.1118
   29BDD    C2238791  13.106  -0.466  10.504 -0.4989  1.3353  0.1362
   29BDD    C2338792  13.021  -0.542  10.610  0.6958 -1.1842 -0.0138
   29BDD    C2438793  12.971  -0.430  10.706 -0.3044  0.2194 -0.8199
   29BDD    C2538794  13.385  -0.567  10.248  0.8526 -0.0180 -0.1750
   29BDD    C2638795  13.472  -0.668  10.169  0.2716 -0.0801  0.4414
   30TPM     C138796  12.565  -0.675  10.434  0.2342 -0.6807 -0.1795
   30TPM     C238797  12.620  -0.793  10.471  0.1324 -0.6995 -0.0861
   30TPM     C338798  12.643  -0.805  10.613 -0.3377 -0.8073 -0.0167
   30TPM     C438799  12.604  -0.695  10.684 -0.5944 -0.8703 -0.0573
   30TPM     S138800  12.536  -0.567  10.576 -0.2599 -0.7983 -0.1869
   31BDTP    C138801  12.708  -0.600  11.298 -0.0235 -0.1459  0.0706
   31BDTP    C238802  12.839  -0.606  11.242 -0.0487  0.0412 -0.0103
   31BDTP    C338803  12.861  -0.622  11.106 -0.1093  0.1781 -0.0365
   31BDTP    C438804  12.749  -0.633  11.021 -0.1468  0.1285  0.0191
   31BDTP    C538805  12.618  -0.626  11.078 -0.1216 -0.0584  0.0997
   31BDTP    C638806  12.596  -0.610  11.214 -0.0610 -0.1952  0.1257
   31BDTP    C738807  12.747  -0.649  10.877 -0.2108  0.2461  0.0060
   31BDTP    C838808  12.622  -0.656  10.824 -0.2345  0.1571  0.0715
   31BDTP    S138809  12.490  -0.642  10.948 -0.1791 -0.0873  0.1595
   31BDTP    C938810  12.710  -0.583  11.442  0.0405 -0.2632  0.0834
   31BDTP   C1038811  12.834  -0.576  11.496  0.0643 -0.1748  0.0176
   31BDTP    S238812  12.966  -0.591  11.371  0.0089  0.0703 -0.0703
   32FTM     S138813  13.094  -0.762  10.999  0.2927 -0.0696  1.0579
   32FTM     C138814  13.242  -0.659  11.009  0.3496 -0.1241  0.7855
   32FTM     C238815  13.209  -0.534  11.050  0.3980  0.0498  0.3002
   32FTM     C338816  13.070  -0.510  11.075  0.3939  0.2317  0.1147
   32FTM     C438817  12.994  -0.621  11.053  0.3406  0.1964  0.4698
   32FTM     F138818  13.303  -0.433  11.066  0.4489  0.0544 -0.0052
   32FTM     C538819  13.384  -0.732  10.961  0.4776 -0.7347 -0.4599
   32FTM     C638820  13.494  -0.654  10.872 -0.5880  1.5211 -0.9182
   32FTM     C738821  13.602  -0.548  10.932 -0.0158  0.3838 -0.3377
   32FTM     C838822  13.748  -0.582  10.903 -0.6406 -0.1400  0.0116
   32FTM     C938823  13.818  -0.697  10.977  0.2320  0.7722  0.6246
   32FTM    C1038824  13.960  -0.701  11.027 -0.2776 -0.7187  1.5852
   32FTM    C1138825  13.485  -0.667  10.726  0.9985  0.1962  0.2555
   32FTM    C1238826  13.398  -0.784  10.665 -1.1429 -0.0707  0.2794
   33FTM     S138827  12.376  -0.451  11.287  0.5333  0.4088  0.4307
   33FTM     C138828  12.238  -0.525  11.376 -0.1523  0.7113 -0.3633
   33FTM     C238829  12.257  -0.659  11.390 -1.0114  0.4864 -1.1065
   33FTM     C338830  12.379  -0.711  11.334 -1.1847  0.0751 -1.1041
   33FTM     C438831  12.454  -0.614  11.275 -0.4339 -0.0182 -0.3340
   33FTM     F138832  12.167  -0.742  11.455 -1.6918  0.6397 -1.8330
   33FTM     C538833  12.112  -0.450  11.421  0.5654  0.6401 -0.7903
   33FTM     C638834  12.081  -0.301  11.413  0.0398  0.3949  0.1024
   33FTM     C738835  12.022  -0.247  11.283  0.4431 -0.6029 -0.0785
   33FTM     C838836  11.864  -0.276  11.268  0.9492 -0.0530  0.9327
   33FTM     C938837  11.778  -0.191  11.353 -0.3146  0.1287 -1.3401
   33FTM    C1038838  11.641  -0.215  11.326 -0.1723 -0.4027 -0.2426
   33FTM    C1138839  12.148  -0.191  11.509  0.8912 -0.2805  0.3484
   33FTM    C1238840  12.268  -0.088  11.460 -0.1466  1.3027 -0.7582
   34TPM     C138841  12.880  -0.556  11.626  0.6310  0.1216 -0.0158
   34TPM     C238842  12.958  -0.458  11.680  0.3029  0.2589  0.2161
   34TPM     C338843  12.988  -0.478  11.819 -0.0971  0.3278  0.3150
   34TPM     C438844  12.933  -0.591  11.872 -0.0739  0.2437  0.1585
   34TPM     S138845  12.838  -0.682  11.748  0.4589  0.0688 -0.1282
   35BDD     C138846  13.088  -0.623  12.231  0.5169 -0.0641 -0.1683
   35BDD     C238847  12.989  -0.717  12.229  0.5016 -0.0517 -0.0324
   35BDD     C338848  12.918  -0.723  12.102  0.2948 -0.0091  0.0825
   35BDD     C438849  12.963  -0.633  12.010  0.1555  0.0102  0.0325
   35BDD     S138850  13.099  -0.535  12.075  0.2735 -0.0234 -0.1619
   35BDD     C538851  12.957  -0.806  12.342  0.6766 -0.0784 -0.0031
   35BDD     C638852  12.807  -0.818  12.078  0.2430  0.0107  0.2378
   35BDD     O138853  12.745  -0.822  11.969  0.0647  0.0474  0.3368
   35BDD     O238854  13.019  -0.801  12.451  0.8549 -0.1154 -0.1021
   35BDD     C738855  12.775  -0.906  12.192  0.4179 -0.0160  0.2670
   35BDD     C838856  12.846  -0.901  12.318  0.6247 -0.0587  0.1521
   35BDD     C938857  12.801  -0.991  12.410  0.7642 -0.0777  0.2022
   35BDD     S238858  12.666  -1.089  12.345  0.6461 -0.0438  0.3965
   35BDD    C1038859  12.676  -1.001  12.190  0.4027 -0.0033  0.4030
   35BDD    C1138860  12.591  -1.058  12.092  0.1357 -1.2463  0.1205
   35BDD    C1238861  12.453  -0.982  12.113 -0.5089  0.5411 -0.5079
   35BDD    C1338862  12.399  -0.948  11.963  0.4792 -0.2652 -1.1761
   35BDD    C1438863  12.295  -0.831  11.952 -0.1038 -0.8752  1.6662
   35BDD    C1538864  12.318  -0.688  12.006 -0.6208 -1.1193  0.0177
   35BDD    C1638865  12.227  -0.664  12.117  0.4050  0.0800  0.1685
   35BDD    C1738866  12.364  -1.074  12.214 -0.3477  0.1931  0.4678
   35BDD    C1838867  12.209  -1.048  12.225 -0.6099 -0.9695  0.6814
   35BDD    C1938868  12.824  -0.994  12.566  1.2699 -0.9191  0.3483
   35BDD    C2038869  12.897  -1.104  12.642  0.2078  0.5309 -0.8412
   35BDD    C2138870  13.044  -1.102  12.625  0.4550 -0.5379  2.0051
   35BDD    C2238871  13.133  -0.976  12.678  1.2792 -1.1153 -0.2652
   35BDD    C2338872  13.081  -0.911  12.816 -0.9114 -0.8859  0.3092
   35BDD    C2438873  13.093  -1.004  12.929 -0.0290  1.4271  1.4066
   35BDD    C2538874  12.823  -1.247  12.656 -0.6192  0.4538 -1.3073
   35BDD    C2638875  12.695  -1.250  12.727 -0.8346 -1.1657 -1.0348
   36TPM     C138876  13.180  -0.581  12.328 -0.5603  0.1275  0.4833
   36TPM     C238877  13.180  -0.449  12.360 -0.3956  0.0165  0.9640
   36TPM     C338878  13.297  -0.406  12.433 -0.1797 -0.3219  0.8186
   36TPM     C438879  13.386  -0.507  12.456 -0.1798 -0.4685  0.2269
   36TPM     S138880  13.329  -0.664  12.388 -0.4547 -0.1888 -0.1957
   37BDTP    C138881  13.962  -0.438  12.681  0.1937 -0.3874  0.3390
   37BDTP    C238882  13.929  -0.569  12.725  0.1191 -0.4125  0.2097
   37BDTP    C338883  13.804  -0.626  12.707  0.0798 -0.3145  0.1760
   37BDTP    C438884  13.706  -0.549  12.642  0.1155 -0.1848  0.2741
   37BDTP    C538885  13.738  -0.417  12.598  0.1900 -0.1597  0.4033
   37BDTP    C638886  13.864  -0.361  12.616  0.2294 -0.2578  0.4371
   37BDTP    C738887  13.569  -0.586  12.611  0.0861 -0.0671  0.2624
   37BDTP    C838888  13.498  -0.490  12.547  0.1342  0.0443  0.3752
   37BDTP    S138889  13.595  -0.339  12.516  0.2236  0.0150  0.5121
   37BDTP    C938890  14.099  -0.401  12.712  0.2231 -0.5054  0.3506
   37BDTP   C1038891  14.169  -0.497  12.776  0.1749 -0.6166  0.2378
   37BDTP    S238892  14.073  -0.648  12.807  0.0855 -0.5875  0.1009
   38FTM     S138893  13.637  -0.827  12.859 -0.2218 -0.1719 -0.0990
   38FTM     C138894  13.717  -0.988  12.874  0.0648 -0.0349 -0.1464
   38FTM     C238895  13.831  -0.989  12.801  0.4785  0.4504  0.4756
   38FTM     C338896  13.864  -0.868  12.731  0.5952  0.7386  1.0140
   38FTM     C438897  13.770  -0.771  12.751  0.2598  0.4650  0.7972
   38FTM     F138898  13.914  -1.100  12.794  0.7762  0.6628  0.5944
   38FTM     C538899  13.643  -1.099  12.958 -1.2761 -0.5331 -0.0817
   38FTM     C638900  13.731  -1.219  13.023  1.4993 -0.2012 -1.2235
   38FTM     C738901  13.711  -1.361  12.964  0.8780  0.1712  0.7461
   38FTM     C838902  13.705  -1.389  12.816 -1.4383 -0.5427  0.0541
   38FTM     C938903  13.828  -1.428  12.732 -0.2859  0.1132 -0.4467
   38FTM    C1038904  13.852  -1.403  12.587  0.2047  1.1447  0.0081
   38FTM    C1138905  13.799  -1.185  13.154 -0.1449  0.4325  0.4046
   38FTM    C1238906  13.768  -1.281  13.291 -0.1591  0.1762  1.2315
   39FTM     S138907  13.799  -0.070  12.622  0.0196  0.4299 -0.0797
   39FTM     C138908  13.932   0.038  12.568 -0.1143  0.8018  0.3265
   39FTM     C238909  14.040  -0.036  12.531  0.1012  1.0886  0.3719
   39FTM     C338910  14.026  -0.178  12.542  0.3768  1.0381  0.1003
   39FTM     C438911  13.903  -0.214  12.589  0.3723  0.7013 -0.1618
   39FTM     F138912  14.158   0.021  12.485  0.0616  1.4141  0.6623
   39FTM     C538913  13.957   0.187  12.594  1.5269 -0.4188  0.8759
   39FTM     C638914  13.932   0.259  12.725 -0.7308  0.0093  0.2506
   39FTM     C738915  13.948   0.195  12.865  0.8066 -0.9605  0.6461
   39FTM     C838916  13.858   0.086  12.895 -1.0058  0.3556  1.4290
   39FTM     C938917  13.911   0.042  13.030 -0.1705 -0.3568 -0.1305
   39FTM    C1038918  13.917  -0.104  13.062  0.3523  0.4669 -0.0942
   39FTM    C1138919  13.938   0.408  12.716  0.4452 -0.4305 -1.0353
   39FTM    C1238920  14.062   0.484  12.737 -1.9066 -0.1914 -0.8014
   40TPM     C138921  14.318  -0.489  12.778 -0.4451  0.4214  1.2594
   40TPM     C238922  14.411  -0.570  12.836 -0.3101  0.4439  1.0761
   40TPM     C338923  14.547  -0.530  12.810 -0.3402 -0.0815 -0.0150
   40TPM     C438924  14.558  -0.419  12.732 -0.4980 -0.5044 -0.6635
   40TPM     S138925  14.396  -0.355  12.686 -0.6220 -0.2708  0.0589
   41BDD     C138926  14.928  -0.326  12.678 -0.1789  0.6669 -0.1958
   41BDD     C238927  14.882  -0.359  12.553 -0.1410  0.4811 -0.1601
   41BDD     C338928  14.742  -0.398  12.552 -0.0687  0.2122 -0.1011
   41BDD     C438929  14.684  -0.393  12.675 -0.0524  0.1967 -0.0928
   41BDD     S138930  14.799  -0.340  12.802 -0.1266  0.5181 -0.1581
   41BDD     C538931  14.966  -0.357  12.431 -0.1699  0.5436 -0.1788
   41BDD     C638932  14.672  -0.438  12.428 -0.0183 -0.0203 -0.0553
   41BDD     O138933  14.552  -0.471  12.427  0.0441 -0.2522 -0.0045
   41BDD     O238934  15.086  -0.324  12.433 -0.2323  0.7753 -0.2296
   41BDD     C738935  14.756  -0.436  12.306 -0.0471  0.0424 -0.0740
   41BDD     C838936  14.896  -0.397  12.308 -0.1194  0.3114 -0.1329
   41BDD     C938937  14.954  -0.402  12.184 -0.1357  0.3269 -0.1413
   41BDD     S238938  14.839  -0.455  12.058 -0.0615  0.0054 -0.0760
   41BDD    C1038939  14.710  -0.470  12.182 -0.0092 -0.1433 -0.0384
   41BDD    C1138940  14.586  -0.534  12.124 -0.5256 -0.9533 -1.5323
   41BDD    C1238941  14.457  -0.444  12.092 -0.4677  0.1727  0.3833
   41BDD    C1338942  14.348  -0.565  12.071  1.2592 -0.0653 -0.3554
   41BDD    C1438943  14.304  -0.634  12.211  1.5608 -0.7504  0.9953
   41BDD    C1538944  14.173  -0.602  12.289  0.9166 -0.5682  1.0372
   41BDD    C1638945  14.181  -0.666  12.419 -0.6591  0.2605  0.0769
   41BDD    C1738946  14.399  -0.325  12.172 -0.3237 -0.7407 -0.6063
   41BDD    C1838947  14.506  -0.216  12.190 -0.3012 -0.9200 -1.4731
   41BDD    C1938948  15.086  -0.381  12.133 -0.9179 -1.1158 -0.8665
   41BDD    C2038949  15.068  -0.243  12.062  1.7579 -0.1074 -0.2703
   41BDD    C2138950  15.054  -0.130  12.170 -0.7319 -0.3324  0.4343
   41BDD    C2238951  15.049   0.020  12.136  0.3752  0.3214  0.1150
   41BDD    C2338952  14.933   0.070  12.041  1.8800 -0.6492 -1.3232
   41BDD    C2438953  14.941   0.094  11.887 -0.5433 -1.0062 -0.3577
   41BDD    C2538954  15.155  -0.210  11.945  1.0946 -1.0325 -0.3204
   41BDD    C2638955  15.129  -0.301  11.821 -0.1419 -1.5738 -0.8037
   42TPM     C138956  15.058  -0.309  12.738  0.1250  0.2396 -0.6018
   42TPM     C238957  15.126  -0.414  12.792 -0.5457 -0.1478 -0.4827
   42TPM     C338958  15.257  -0.379  12.840 -0.6194 -0.7653  0.2143
   42TPM     C438959  15.289  -0.248  12.821 -0.0048 -0.8485  0.6269
   42TPM     S138960  15.155  -0.157  12.742  0.7202 -0.1487  0.1632
   43BDTP    C138961  15.871   0.009  12.806 -0.4848 -0.2775 -0.3522
   43BDTP    C238962  15.793   0.098  12.728 -0.5790 -0.4117 -0.4102
   43BDTP    C338963  15.656   0.080  12.708 -0.5921 -0.4747 -0.2615
   43BDTP    C438964  15.594  -0.030  12.770 -0.5085 -0.4025 -0.0453
   43BDTP    C538965  15.673  -0.119  12.849 -0.4143 -0.2685  0.0127
   43BDTP    C638966  15.809  -0.102  12.868 -0.4011 -0.2056 -0.1359
   43BDTP    C738967  15.455  -0.069  12.764 -0.5039 -0.4470  0.1368
   43BDTP    C838968  15.425  -0.181  12.834 -0.4119 -0.3541  0.3264
   43BDTP    S138969  15.570  -0.253  12.917 -0.3182 -0.1967  0.3009
   43BDTP    C938970  16.011   0.047  12.812 -0.4895 -0.2329 -0.5343
   43BDTP   C1038971  16.040   0.159  12.742 -0.5814 -0.3264 -0.7239
   43BDTP    S238972  15.896   0.232  12.659 -0.6751 -0.4832 -0.6982
   44FTM     S138973  15.413   0.242  12.671 -0.0880  0.1175 -0.4758
   44FTM     C138974  15.407   0.330  12.515  0.5828  0.8400 -0.1091
   44FTM     C238975  15.520   0.306  12.443  0.9325  1.2470  0.2952
   44FTM     C338976  15.616   0.219  12.505  0.7058  1.0270  0.3432
   44FTM     C438977  15.576   0.176  12.627  0.1646  0.4322 -0.0367
   44FTM     F138978  15.543   0.361  12.318  1.4788  1.8428  0.6457
   44FTM     C538979  15.311   0.437  12.467 -1.0674 -0.0223 -1.1344
   44FTM     C638980  15.291   0.553  12.579  0.3124  0.9892  1.0335
   44FTM     C738981  15.411   0.647  12.601 -1.0570 -0.5456 -0.3715
   44FTM     C838982  15.413   0.801  12.554 -1.1102  0.7116  1.7014
   44FTM     C938983  15.296   0.862  12.458 -0.6569 -0.5562  1.1489
   44FTM    C1038984  15.255   0.794  12.331 -0.3073  0.1021  0.1455
   44FTM    C1138985  15.211   0.544  12.703 -0.5017 -1.9377 -1.0371
   44FTM    C1238986  15.065   0.509  12.681 -0.7062 -0.7599  0.6615
   45FTM     S138987  15.811  -0.228  13.125  0.2626  0.3885  0.1805
   45FTM     C138988  15.963  -0.313  13.169 -0.0378 -0.2602 -0.0035
   45FTM     C238989  16.056  -0.294  13.072 -0.1268 -0.8080 -0.2030
   45FTM     C338990  16.016  -0.214  12.960  0.0296 -0.7582 -0.2245
   45FTM     C438991  15.887  -0.170  12.972  0.2453 -0.1522 -0.0352
   45FTM     F138992  16.184  -0.348  13.078 -0.3549 -1.3874 -0.3781
   45FTM     C538993  16.000  -0.369  13.304 -0.0040  0.1203 -0.6518
   45FTM     C638994  15.953  -0.339  13.446 -0.3415  0.9643 -0.1513
   45FTM     C738995  15.803  -0.302  13.447 -0.8420 -0.7580 -0.0280
   45FTM     C838996  15.713  -0.361  13.550 -0.1088  0.0086  0.5894
   45FTM     C938997  15.564  -0.375  13.512  0.3687 -0.2415  0.2455
   45FTM    C1038998  15.458  -0.418  13.618 -0.0304  0.6351 -0.4591
   45FTM    C1138999  16.049  -0.265  13.539 -0.2278 -0.4453  0.9348
   45FTM    C1239000  16.199  -0.285  13.520  0.5170 -0.7439  1.1820
   46TPM     C139001  16.168   0.224  12.723 -0.2732  0.0751  0.0893
   46TPM     C239002  16.208   0.307  12.622 -0.1110 -0.1189 -0.0096
   46TPM     C339003  16.336   0.369  12.645  0.0467 -0.4022 -0.1210
   46TPM     C439004  16.394   0.333  12.762  0.0048 -0.4241 -0.1070
   46TPM     S139005  16.291   0.217  12.855 -0.2389 -0.0861  0.0492
   47BDD     C139006  16.733   0.522  12.755  0.1580  0.0165  0.2946
   47BDD     C239007  16.769   0.392  12.777  0.1335 -0.0171  0.1410
   47BDD     C339008  16.655   0.303  12.795  0.1130 -0.0507 -0.1489
   47BDD     C439009  16.535   0.366  12.786  0.1221 -0.0423 -0.2121
   47BDD     S139010  16.554   0.542  12.754  0.1571  0.0084  0.0870
   47BDD     C539011  16.909   0.345  12.783  0.1280 -0.0196  0.2550
   47BDD     C639012  16.671   0.158  12.820  0.0851 -0.0900 -0.3527
   47BDD     O139013  16.573   0.081  12.836  0.0675 -0.1190 -0.6026
   47BDD     O239014  17.006   0.421  12.768  0.1457  0.0094  0.5050
   47BDD     C739015  16.811   0.111  12.826  0.0796 -0.0925 -0.2386
   47BDD     C839016  16.924   0.200  12.808  0.1000 -0.0589  0.0513
   47BDD     C939017  17.045   0.136  12.817  0.0910 -0.0673  0.1145
   47BDD     S239018  17.025  -0.039  12.849  0.0561 -0.1180 -0.1845
   47BDD    C1039019  16.847  -0.019  12.849  0.0552 -0.1261 -0.3921
   47BDD    C1139020  16.766  -0.144  12.885  0.5935 -0.2264  0.7762
   47BDD    C1239021  16.743  -0.185  13.031  0.7662  0.2759 -0.3158
   47BDD    C1339022  16.864  -0.175  13.116 -0.0589 -0.4988 -1.1906
   47BDD    C1439023  16.872  -0.266  13.234 -0.5088  0.3419  0.1854
   47BDD    C1539024  16.932  -0.408  13.189  0.0663  0.6771 -0.8613
   47BDD    C1639025  17.087  -0.421  13.200 -0.5099  0.5112  0.2916
   47BDD    C1739026  16.637  -0.296  13.032  0.6325 -0.6537  0.1939
   47BDD    C1839027  16.537  -0.303  13.141  0.3006  0.6279 -0.4208
   47BDD    C1939028  17.187   0.181  12.802 -0.6657 -0.9626  0.1446
   47BDD    C2039029  17.277   0.131  12.681  3.2621  0.1994 -0.1420
   47BDD    C2139030  17.417   0.172  12.673 -1.0929  0.7046 -1.3528
   47BDD    C2239031  17.462   0.312  12.639 -0.2645 -0.1365  0.8065
   47BDD    C2339032  17.492   0.434  12.732  1.1974 -0.4769  0.6602
   47BDD    C2439033  17.550   0.568  12.675 -0.3526 -0.2315 -0.1701
   47BDD    C2539034  17.196   0.154  12.543  0.1164 -0.5224  0.4728
   47BDD    C2639035  17.223   0.044  12.434  0.5029 -0.2088  0.3164
   48TPM     C139036  16.804   0.647  12.730 -0.0060  0.2317  0.2108
   48TPM     C239037  16.792   0.741  12.828 -0.0784  0.1056  0.3240
   48TPM     C339038  16.890   0.847  12.819  0.1292 -0.0469  0.7158
   48TPM     C439039  16.975   0.834  12.714  0.3600 -0.0371  0.9014
   48TPM     S139040  16.940   0.685  12.618  0.3327  0.1671  0.5932
   49BDTP    C139041  17.476   1.197  12.611  0.0002 -0.3083  0.1322
   49BDTP    C239042  17.466   1.122  12.491 -0.3663 -0.0158 -0.0215
   49BDTP    C339043  17.369   1.024  12.472 -0.4519  0.0603  0.0151
   49BDTP    C439044  17.279   0.998  12.576 -0.1627 -0.1621  0.2125
   49BDTP    C539045  17.290   1.073  12.697  0.2038 -0.4545  0.3662
   49BDTP    C639046  17.386   1.171  12.716  0.2893 -0.5307  0.3296
   49BDTP    C739047  17.172   0.901  12.580 -0.1838 -0.1360  0.2865
   49BDTP    C839048  17.102   0.900  12.696  0.1447 -0.3915  0.4857
   49BDTP    S139049  17.162   1.021  12.817  0.5274 -0.7011  0.6078
   49BDTP    C939050  17.584   1.294  12.608  0.0215 -0.3344  0.0582
   49BDTP   C1039051  17.654   1.295  12.492 -0.3072 -0.0789 -0.1411
   49BDTP    S239052  17.593   1.174  12.371 -0.6898  0.2307 -0.2631
   50FTM     S139053  17.394   0.784  12.314  0.1793 -0.0507  0.0281
   50FTM     C139054  17.364   0.795  12.137 -0.7044 -0.7251  0.1237
   50FTM     C239055  17.324   0.921  12.104 -1.5472 -1.0251 -0.0721
   50FTM     C339056  17.316   1.014  12.213 -1.5570 -0.7553 -0.3028
   50FTM     C439057  17.349   0.958  12.332 -0.6935 -0.2317 -0.2830
   50FTM     F139058  17.294   0.959  11.974 -2.3599 -1.5618 -0.0540
   50FTM     C539059  17.359   0.676  12.038  0.0050  0.2181  0.9919
   50FTM     C639060  17.484   0.633  11.946 -0.1096 -0.9398  0.2194
   50FTM     C739061  17.473   0.689  11.786  0.1664  0.0920 -0.5628
   50FTM     C839062  17.371   0.625  11.683 -1.4123  0.0034 -0.3070
   50FTM     C939063  17.228   0.662  11.697  0.6524  0.0687  0.0441
   50FTM    C1039064  17.125   0.562  11.742 -0.3036  1.0054  1.0270
   50FTM    C1139065  17.574   0.512  11.966  0.4112 -1.1183 -1.0090
   50FTM    C1239066  17.714   0.511  11.908 -0.0604 -1.0935 -0.0536
   51FTM     S139067  17.232   1.397  12.806  0.0565 -0.2448 -0.2989
   51FTM     C139068  17.262   1.456  12.974 -1.0009  0.0065 -0.1853
   51FTM     C239069  17.362   1.385  13.031 -1.8260 -0.4007  0.8302
   51FTM     C339070  17.421   1.282  12.950 -1.6899 -0.9203  1.5642
   51FTM     C439071  17.363   1.275  12.826 -0.7289 -0.9107  1.0953
   51FTM     F139072  17.407   1.408  13.160 -2.7540 -0.3271  1.1555
   51FTM     C539073  17.165   1.543  13.042  0.3361  0.2094  1.2497
   51FTM     C639074  17.028   1.483  13.124 -0.9522 -0.3367  0.7483
   51FTM     C739075  17.029   1.375  13.226 -0.1059 -0.4377 -0.2882
   51FTM     C839076  17.078   1.418  13.370  0.4315 -0.2922 -0.1038
   51FTM     C939077  17.240   1.399  13.381  0.6556  0.5878  0.6597
   51FTM    C1039078  17.296   1.504  13.490  0.7002  0.6979  1.0595
   51FTM    C1139079  16.907   1.489  13.038 -0.7409 -0.9485 -0.2872
   51FTM    C1239080  16.783   1.555  13.106 -0.4802 -1.2149 -0.0080
   52TPM     C139081  17.760   1.371  12.451  0.1836 -0.2215 -0.0848
   52TPM     C239082  17.805   1.403  12.327  0.4264 -0.2853 -0.0146
   52TPM     C339083  17.926   1.482  12.327  0.2360  0.0077  0.1888
   52TPM     C439084  17.973   1.510  12.453 -0.1518  0.2949  0.2738
   52TPM     S139085  17.867   1.438  12.580 -0.3081  0.2170  0.1021
   53BDD     C139086  18.220   1.779  12.582 -0.3248  0.1103  0.0533
   53BDD     C239087  18.294   1.698  12.500 -0.2934  0.1786  0.0131
   53BDD     C339088  18.216   1.590  12.441 -0.2327  0.1241  0.0322
   53BDD     C439089  18.085   1.592  12.478 -0.2187  0.0150  0.0866
   53BDD     S139090  18.049   1.727  12.589 -0.2806 -0.0269  0.1177
   53BDD     C539091  18.438   1.716  12.474 -0.3183  0.2964 -0.0442
   53BDD     C639092  18.276   1.490  12.349 -0.1909  0.1822 -0.0043
   53BDD     O139093  18.209   1.398  12.298 -0.1386  0.1352  0.0121
   53BDD     O239094  18.505   1.808  12.526 -0.3705  0.3434 -0.0606
   53BDD     C739095  18.420   1.508  12.323 -0.2155  0.3000 -0.0616
   53BDD     C839096  18.498   1.616  12.383 -0.2763  0.3545 -0.0807
   53BDD     C939097  18.629   1.615  12.346 -0.2903  0.4636 -0.1350
   53BDD     S239098  18.665   1.479  12.234 -0.2284  0.5056 -0.1662
   53BDD    C1039099  18.494   1.427  12.242 -0.1842  0.3684 -0.1018
   53BDD    C1139100  18.472   1.309  12.142  1.2046  0.0479 -0.9673
   53BDD    C1239101  18.449   1.367  12.001 -0.1913  0.8760  0.2883
   53BDD    C1339102  18.401   1.257  11.911 -0.8764  1.5177  0.3311
   53BDD    C1439103  18.278   1.192  11.957  0.5591 -0.4178 -0.4074
   53BDD    C1539104  18.231   1.059  11.926 -0.1457  1.3549  0.0368
   53BDD    C1639105  18.283   0.955  12.028 -0.0815  0.5634  0.0931
   53BDD    C1739106  18.543   1.448  11.932 -0.2597 -0.6416 -0.3771
   53BDD    C1839107  18.502   1.604  11.927 -0.0565  0.5314 -0.0956
   53BDD    C1939108  18.739   1.700  12.391  0.3481 -0.8487  0.1347
   53BDD    C2039109  18.865   1.710  12.299 -0.7233 -0.7266 -0.8731
   53BDD    C2139110  18.847   1.776  12.170  0.9968  0.3152  0.6383
   53BDD    C2239111  18.943   1.757  12.046 -1.2386 -0.8153 -0.9231
   53BDD    C2339112  18.980   1.638  11.982 -0.7836 -0.2098  0.9386
   53BDD    C2439113  19.110   1.626  11.893  0.8168  0.3517  0.3737
   53BDD    C2539114  18.991   1.741  12.383 -0.0539 -0.0234  0.3136
   53BDD    C2639115  19.041   1.635  12.488  0.8645  0.7315 -0.4721
   54TPM     C139116  18.256   1.904  12.652  0.4349  0.2657 -0.0223
   54TPM     C239117  18.315   2.013  12.595 -0.0662  0.5631  0.0139
   54TPM     C339118  18.313   2.131  12.679 -0.7712  0.5809 -0.0206
   54TPM     C439119  18.252   2.111  12.799 -0.8076  0.2969 -0.0830
   54TPM     S139120  18.192   1.942  12.817  0.0524 -0.0174 -0.1033
   55BDTP    C139121  18.028   2.559  13.169  0.0112 -0.0468 -0.2508
   55BDTP    C239122  17.964   2.441  13.218  0.2863 -0.0730  0.0518
   55BDTP    C339123  17.995   2.314  13.169  0.3539 -0.0952  0.1516
   55BDTP    C439124  18.092   2.303  13.068  0.1403 -0.0916 -0.0563
   55BDTP    C539125  18.155   2.421  13.020 -0.1348 -0.0654 -0.3590
   55BDTP    C639126  18.125   2.548  13.068 -0.2022 -0.0432 -0.4588
   55BDTP    C739127  18.140   2.183  13.003  0.1601 -0.1116 -0.0053
   55BDTP    C839128  18.235   2.205  12.909 -0.0837 -0.1019 -0.2517
   55BDTP    S139129  18.277   2.381  12.890 -0.3726 -0.0660 -0.5833
   55BDTP    C939130  17.980   2.679  13.234 -0.0085 -0.0268 -0.3020
   55BDTP   C1039131  17.885   2.657  13.328  0.2352 -0.0366 -0.0555
   55BDTP    S239132  17.843   2.482  13.348  0.5242 -0.0724  0.2760
   56FTM     S139133  17.962   2.146  13.400 -0.3283  0.0059 -0.5688
   56FTM     C139134  17.815   2.042  13.401 -0.6907  0.5086 -0.1042
   56FTM     C239135  17.751   2.052  13.282 -0.9632  0.6260  0.0511
   56FTM     C339136  17.810   2.139  13.185 -0.9084  0.3392 -0.1760
   56FTM     C439137  17.924   2.198  13.231 -0.5829 -0.0093 -0.5166
   56FTM     F139138  17.634   1.983  13.254 -1.2786  1.0003  0.4085
   56FTM     C539139  17.785   1.931  13.498 -0.1515  0.6822 -0.6135
   56FTM     C639140  17.883   1.815  13.542 -0.2464 -0.6312 -0.1359
   56FTM     C739141  17.980   1.766  13.426 -1.3524 -2.0063 -0.3867
   56FTM     C839142  18.113   1.825  13.399  0.4273  0.1021 -0.5817
   56FTM     C939143  18.201   1.731  13.316  0.2430  0.1394 -0.2011
   56FTM    C1039144  18.335   1.782  13.257  0.9807 -0.7293 -0.3753
   56FTM    C1139145  17.833   1.688  13.607 -0.4936  0.2279  0.0023
   56FTM    C1239146  17.804   1.701  13.751  0.5655  0.7384  0.3085
   57FTM     S139147  18.373   2.690  13.122  0.0761  0.1115 -0.5275
   57FTM     C139148  18.398   2.837  13.021 -0.1962 -0.0874 -0.8931
   57FTM     C239149  18.291   2.858  12.941 -0.2890 -0.4149 -0.8557
   57FTM     C339150  18.184   2.763  12.952 -0.1570 -0.5283 -0.5480
   57FTM     C439151  18.211   2.666  13.044  0.0434 -0.2796 -0.3430
   57FTM     F139152  18.282   2.964  12.852 -0.4990 -0.6313 -1.0980
   57FTM     C539153  18.531   2.900  13.050  0.5127 -0.2260  0.0591
   57FTM     C639154  18.591   2.983  12.939 -0.8535 -1.1821  0.2208
   57FTM     C739155  18.667   3.107  12.991  0.6387  0.6788  0.1946
   57FTM     C839156  18.583   3.205  13.055  0.6367 -0.9485  0.7282
   57FTM     C939157  18.456   3.237  12.982 -0.1278 -0.9360  1.0665
   57FTM    C1039158  18.396   3.372  13.030  0.0160  1.0607 -0.2486
   57FTM    C1139159  18.667   2.905  12.843 -0.4330  0.3518 -0.4925
   57FTM    C1239160  18.702   2.975  12.715 -0.6231  0.1032 -0.5999
   58TPM     C139161  17.827   2.754  13.416 -0.3197 -0.5305 -0.2895
   58TPM     C239162  17.739   2.843  13.362 -0.0803 -0.1752 -0.1054
   58TPM     C339163  17.661   2.915  13.459  0.2996  0.0286  0.0532
   58TPM     C439164  17.689   2.881  13.588  0.3497 -0.1716 -0.0101
   58TPM     S139165  17.818   2.755  13.596 -0.0822 -0.6362 -0.2769
   59BDD     C139166  17.688   3.102  13.902  0.2633 -0.2593  0.2599
   59BDD     C239167  17.575   3.026  13.912  0.1609 -0.1308  0.0730
   59BDD     C339168  17.553   2.939  13.798  0.0781  0.1290 -0.1122
   59BDD     C439169  17.651   2.949  13.703  0.1187  0.1948 -0.0636
   59BDD     S139170  17.777   3.069  13.750  0.2631 -0.0639  0.2171
   59BDD     C539171  17.481   3.032  14.027  0.1357 -0.2422  0.0577
   59BDD     C639172  17.437   2.849  13.787 -0.0380  0.3024 -0.3304
   59BDD     O139173  17.419   2.774  13.689 -0.1094  0.5264 -0.4900
   59BDD     O239174  17.500   3.107  14.125  0.2069 -0.4663  0.2173
   59BDD     C739175  17.344   2.854  13.902 -0.0637  0.1910 -0.3458
   59BDD     C839176  17.365   2.941  14.016  0.0191 -0.0687 -0.1606
   59BDD     C939177  17.267   2.931  14.111 -0.0215 -0.1345 -0.2092
   59BDD     S239178  17.142   2.812  14.064 -0.1659  0.1241 -0.4899
   59BDD    C1039179  17.230   2.779  13.912 -0.1662  0.3195 -0.5327
   59BDD    C1139180  17.206   2.641  13.844  0.0993  0.4585  0.6973
   59BDD    C1239181  17.058   2.608  13.805  0.3449 -0.9999 -0.5107
   59BDD    C1339182  17.024   2.478  13.740  1.0596 -0.2534 -0.5838
   59BDD    C1439183  17.141   2.383  13.704  0.9326  0.1729 -1.7130
   59BDD    C1539184  17.093   2.248  13.664 -0.4901 -0.3990  0.1817
   59BDD    C1639185  17.211   2.140  13.630  0.0000 -0.5994  0.6892
   59BDD    C1739186  16.988   2.721  13.726  0.4726 -0.4473 -0.3274
   59BDD    C1839187  16.995   2.736  13.565 -1.1152 -0.2683 -0.1943
   59BDD    C1939188  17.257   2.983  14.254 -0.6627  0.3582 -1.2386
   59BDD    C2039189  17.288   2.877  14.368 -0.2825 -0.5542 -0.1905
   59BDD    C2139190  17.166   2.781  14.372 -0.4349 -1.3865  0.1639
   59BDD    C2239191  17.141   2.665  14.469 -0.7084 -0.0181  0.5812
   59BDD    C2339192  17.282   2.589  14.502  0.9812  0.7979 -0.0980
   59BDD    C2439193  17.325   2.492  14.389 -0.1463  0.2952 -0.2390
   59BDD    C2539194  17.351   2.918  14.502  0.6052 -0.2691 -0.3088
   59BDD    C2639195  17.485   2.975  14.509 -0.5630 -0.5240  0.8576
   60TPM     C139196  17.753   3.208  13.992 -0.2834 -0.4810  0.2905
   60TPM     C239197  17.710   3.337  13.994 -1.1671 -0.7629  0.3619
   60TPM     C339198  17.788   3.423  14.079 -1.5000 -0.1879  0.1011
   60TPM     C439199  17.891   3.359  14.141 -0.8703  0.5323 -0.1689
   60TPM     S139200  17.897   3.184  14.097  0.2003  0.5403 -0.1147
    1BDTP    C139201   5.175   7.927   9.418 -0.1220  0.2178 -0.7415
    1BDTP    C239202   5.155   8.053   9.481  0.1533 -0.0455 -0.1113
    1BDTP    C339203   5.032   8.093   9.532  0.3076 -0.1416  0.3490
    1BDTP    C439204   4.924   8.004   9.520  0.1849  0.0300  0.1810
    1BDTP    C539205   4.944   7.878   9.456 -0.0902  0.2931 -0.4497
    1BDTP    C639206   5.067   7.838   9.406 -0.2445  0.3891 -0.9096
    1BDTP    C739207   4.787   8.023   9.564  0.3041 -0.0250  0.5757
    1BDTP    C839208   4.705   7.919   9.538  0.1338  0.1818  0.2763
    1BDTP    S139209   4.789   7.782   9.453 -0.2015  0.4752 -0.5481
    1BDTP    C939210   5.312   7.907   9.373 -0.2410  0.2725 -1.1365
    1BDTP   C1039211   5.394   8.012   9.399 -0.0707  0.0660 -0.8368
    1BDTP    S239212   5.311   8.149   9.484  0.2644 -0.2276 -0.0127
    2FTM     S139213   5.013   8.378   9.544 -0.6118 -0.2392  0.1554
    2FTM     C139214   4.992   8.455   9.705  0.6247 -0.4473  0.4321
    2FTM     C239215   4.992   8.360   9.802  1.2319 -0.5858  0.3052
    2FTM     C339216   5.008   8.225   9.758  0.7834 -0.5393 -0.0074
    2FTM     C439217   5.020   8.216   9.623 -0.1992 -0.3598 -0.1235
    2FTM     F139218   4.978   8.390   9.937  2.2298 -0.7627  0.4647
    2FTM     C539219   4.955   8.602   9.722 -0.7633  0.0869  0.2767
    2FTM     C639220   4.934   8.694   9.849  1.1397  0.5360  0.3997
    2FTM     C739221   4.840   8.826   9.820 -0.5952  0.1904 -0.2448
    2FTM     C839222   4.899   8.935   9.725 -0.4087 -0.1963  0.6851
    2FTM     C939223   4.914   8.891   9.575  0.7797  1.0841  1.1106
    2FTM    C1039224   4.869   9.004   9.485 -1.7899 -0.8358 -1.3977
    2FTM    C1139225   5.050   8.712   9.953  0.7897 -0.6112  0.4381
    2FTM    C1239226   5.025   8.670  10.098  1.1738  0.3998  0.8503
    3FTM     S139227   5.192   7.581   9.349 -0.0716  0.2453  0.2439
    3FTM     C139228   5.104   7.471   9.237  0.0140  0.0868  0.3313
    3FTM     C239229   4.993   7.533   9.189 -0.0454 -0.0453  0.2968
    3FTM     C339230   4.970   7.667   9.235 -0.1585 -0.0316  0.2027
    3FTM     C439231   5.067   7.708   9.321 -0.1865  0.1158  0.1639
    3FTM     F139232   4.906   7.473   9.099 -0.0011 -0.1863  0.3486
    3FTM     C539233   5.176   7.345   9.186  0.2807  0.5044 -1.4028
    3FTM     C639234   5.297   7.360   9.095 -1.4516  1.0613 -0.3037
    3FTM     C739235   5.438   7.418   9.161 -1.0239 -0.3240 -0.7029
    3FTM     C839236   5.477   7.562   9.132  0.3530 -0.4528  0.8430
    3FTM     C939237   5.620   7.589   9.144 -1.5724 -1.3087 -0.2084
    3FTM    C1039238   5.660   7.744   9.141 -0.3095  1.0691 -0.2843
    3FTM    C1139239   5.346   7.237   9.008 -0.7628  0.4608 -1.4979
    3FTM    C1239240   5.257   7.170   8.918  1.4003 -0.3705 -0.1089
    4TPM     C139241   5.521   8.038   9.328  0.7134 -1.0641 -0.3667
    4TPM     C239242   5.644   7.992   9.363  1.0908 -0.7350 -1.2128
    4TPM     C339243   5.753   8.074   9.315  0.5269 -0.1647 -1.5407
    4TPM     C439244   5.712   8.183   9.243 -0.2806 -0.0590 -0.9446
    4TPM     S139245   5.532   8.190   9.231 -0.3922 -0.6764  0.0854
    5BDD     C139246   6.047   8.369   9.153 -0.2920 -0.0415 -0.0301
    5BDD     C239247   5.965   8.462   9.211 -0.2311  0.0541 -0.0963
    5BDD     C339248   5.834   8.409   9.246 -0.1985  0.1135  0.1163
    5BDD     C439249   5.818   8.277   9.215 -0.2349  0.0626  0.3417
    5BDD     S139250   5.965   8.209   9.138 -0.3128 -0.0632  0.3028
    5BDD     C539251   6.004   8.602   9.237 -0.2007  0.0942 -0.3576
    5BDD     C639252   5.730   8.492   9.311 -0.1322  0.2186  0.0885
    5BDD     O139253   5.617   8.447   9.341 -0.1040  0.2701  0.2720
    5BDD     O239254   6.117   8.647   9.206 -0.2290  0.0427 -0.5410
    5BDD     C739255   5.769   8.632   9.336 -0.1018  0.2589 -0.1726
    5BDD     C839256   5.900   8.685   9.301 -0.1346  0.1996 -0.3853
    5BDD     C939257   5.916   8.817   9.333 -0.0981  0.2501 -0.6106
    5BDD     S239258   5.768   8.885   9.409 -0.0203  0.3761 -0.5721
    5BDD    C1039259   5.687   8.725   9.394 -0.0409  0.3541 -0.2387
    5BDD    C1139260   5.552   8.695   9.477  0.0701 -0.2043  1.2762
    5BDD    C1239261   5.563   8.650   9.620 -0.3000  0.1137  0.7759
    5BDD    C1339262   5.414   8.600   9.656 -0.8944 -0.6410  0.5407
    5BDD    C1439263   5.417   8.503   9.774  0.8525  0.0720 -0.3055
    5BDD    C1539264   5.528   8.417   9.807  0.3338  0.0641  1.1413
    5BDD    C1639265   5.519   8.290   9.870  0.1630  0.6714 -1.3973
    5BDD    C1739266   5.616   8.765   9.695 -0.7130 -0.5408 -1.3755
    5BDD    C1839267   5.546   8.895   9.710  0.5207  1.7262  1.1013
    5BDD    C1939268   6.040   8.890   9.356  0.7985 -0.2593 -0.7438
    5BDD    C2039269   6.090   8.913   9.500 -0.5044 -0.5840 -1.2697
    5BDD    C2139270   6.029   9.012   9.592 -0.3089  0.4421  0.4532
    5BDD    C2239271   6.085   9.078   9.719  0.5734  0.4682 -0.2802
    5BDD    C2339272   6.041   9.030   9.859 -0.6208  1.2537 -1.0958
    5BDD    C2439273   6.031   9.125   9.973 -0.5191 -0.4450  0.8727
    5BDD    C2539274   6.139   8.787   9.579 -0.7256 -1.1567  0.4902
    5BDD    C2639275   6.057   8.669   9.626 -0.3409 -0.2983 -0.2899
    6TPM     C139276   6.182   8.371   9.079  0.0066  0.4485 -0.1909
    6TPM     C239277   6.289   8.429   9.140 -0.1678  0.4878  0.0796
    6TPM     C339278   6.416   8.385   9.089 -0.0168  0.3138  0.6037
    6TPM     C439279   6.406   8.292   8.990  0.2731  0.1415  0.7328
    6TPM     S139280   6.234   8.254   8.952  0.3784  0.1860  0.1980
    7BDTP    C139281   6.798   7.880   8.724 -0.0203  0.0384 -0.0997
    7BDTP    C239282   6.763   7.813   8.845 -0.0334 -0.0877 -0.1726
    7BDTP    C339283   6.675   7.868   8.938 -0.0614 -0.1945 -0.1357
    7BDTP    C439284   6.620   7.994   8.911 -0.0776 -0.1768 -0.0219
    7BDTP    C539285   6.655   8.061   8.790 -0.0646 -0.0508  0.0508
    7BDTP    C639286   6.742   8.006   8.696 -0.0365  0.0561  0.0141
    7BDTP    C739287   6.528   8.071   8.992 -0.1071 -0.2729  0.0353
    7BDTP    C839288   6.492   8.190   8.938 -0.1167 -0.2258  0.1462
    7BDTP    S139289   6.571   8.222   8.778 -0.0898 -0.0534  0.1934
    7BDTP    C939290   6.890   7.803   8.643  0.0092  0.1342 -0.1569
    7BDTP   C1039291   6.926   7.684   8.696  0.0188  0.0875 -0.2675
    7BDTP    S239292   6.847   7.652   8.857 -0.0080 -0.0851 -0.3150
    8FTM     S139293   6.499   7.796   9.168 -0.0949 -0.4060  0.3895
    8FTM     C139294   6.584   7.703   9.297  0.1037  0.5169  0.9406
    8FTM     C239295   6.713   7.682   9.261  0.1739  0.6537  1.1082
    8FTM     C339296   6.753   7.735   9.134  0.0800  0.0638  0.8254
    8FTM     C439297   6.651   7.799   9.071 -0.0670 -0.5449  0.4282
    8FTM     F139298   6.803   7.613   9.341  0.3276  1.3218  1.5283
    8FTM     C539299   6.530   7.687   9.431  0.6086 -0.3492 -0.8346
    8FTM     C639300   6.591   7.610   9.547 -0.0439  0.6176 -0.0638
    8FTM     C739301   6.594   7.447   9.523  0.5306 -1.1409  0.9888
    8FTM     C839302   6.463   7.377   9.481  0.6662 -0.4713 -0.0021
    8FTM     C939303   6.493   7.232   9.445  0.3573 -0.3571 -0.4717
    8FTM    C1039304   6.563   7.191   9.326 -0.2120  0.7268  1.2843
    8FTM    C1139305   6.700   7.673   9.637 -0.0507  0.7040  0.5211
    8FTM    C1239306   6.721   7.825   9.630 -0.4247 -0.6305  0.0226
    9FTM     S139307   6.870   8.256   8.611  0.4515 -0.0689 -0.3613
    9FTM     C139308   6.903   8.274   8.435 -0.6108 -0.3088 -0.6011
    9FTM     C239309   6.860   8.164   8.368 -1.8008 -0.0381 -0.3214
    9FTM     C339310   6.799   8.061   8.448 -1.9554  0.3626  0.0870
    9FTM     C439311   6.796   8.094   8.580 -0.8475  0.4000  0.1206
    9FTM     F139312   6.872   8.150   8.231 -2.8206 -0.1369 -0.4179
    9FTM     C539313   6.902   8.424   8.402  0.6676 -1.5572  0.0518
    9FTM     C639314   6.783   8.486   8.331  1.2068  0.4124 -0.0365
    9FTM     C739315   6.810   8.611   8.248  0.3353  1.0232 -0.0811
    9FTM     C839316   6.925   8.623   8.153 -0.7062  0.4208 -0.5659
    9FTM     C939317   6.914   8.750   8.054 -0.6283  0.7914 -0.6877
    9FTM    C1039318   7.026   8.728   7.936 -0.8372  0.5715 -0.2110
    9FTM    C1139319   6.633   8.457   8.389  0.1109 -0.2950  0.5516
    9FTM    C1239320   6.615   8.532   8.513  0.2563 -0.2777  0.6543
   10TPM     C139321   7.049   7.626   8.642  0.6812  0.8837 -0.7113
   10TPM     C239322   7.173   7.625   8.698  0.8255  0.8548 -1.0295
   10TPM     C339323   7.270   7.551   8.622  0.5250  0.5221 -1.0936
   10TPM     C439324   7.219   7.496   8.508  0.1517  0.2970 -0.8239
   10TPM     S139325   7.044   7.533   8.488  0.1505  0.4894 -0.4654
   11BDD     C139326   7.512   7.238   8.404 -0.1567 -0.7700  0.4244
   11BDD     C239327   7.412   7.221   8.313 -0.1320 -0.5512  0.3552
   11BDD     C339328   7.297   7.308   8.335  0.2482  0.0654 -0.0231
   11BDD     C439329   7.312   7.389   8.444  0.5080  0.3081 -0.2374
   11BDD     S139330   7.469   7.364   8.525  0.2942 -0.2191  0.0205
   11BDD     C539331   7.418   7.124   8.201 -0.4568 -0.9011  0.6344
   11BDD     C639332   7.178   7.306   8.248  0.3403  0.3920 -0.1590
   11BDD     O139333   7.079   7.380   8.267  0.6683  0.9239 -0.4854
   11BDD     O239334   7.516   7.050   8.182 -0.7848 -1.4329  0.9608
   11BDD     C739335   7.184   7.209   8.136  0.0153  0.0421  0.1202
   11BDD     C839336   7.298   7.123   8.114 -0.3651 -0.5746  0.4985
   11BDD     C939337   7.284   7.041   8.005 -0.6248 -0.8172  0.7126
   11BDD     S239338   7.126   7.066   7.924 -0.4109 -0.2898  0.4547
   11BDD    C1039339   7.084   7.192   8.045  0.0399  0.2609  0.0510
   11BDD    C1139340   6.967   7.273   8.012  0.3337 -0.2170 -0.1779
   11BDD    C1239341   6.817   7.230   8.004 -1.4783 -1.1385 -0.7563
   11BDD    C1339342   6.707   7.329   8.010  0.2676 -0.5591  1.1413
   11BDD    C1439343   6.710   7.467   8.060 -0.3829 -1.2248  0.4372
   11BDD    C1539344   6.719   7.587   7.978 -0.9107 -0.6316 -0.8356
   11BDD    C1639345   6.593   7.646   7.932  1.1527  0.6822  0.5163
   11BDD    C1739346   6.782   7.122   7.906  0.6277 -0.0764 -0.7277
   11BDD    C1839347   6.832   7.167   7.756 -1.0210  0.2229  1.4137
   11BDD    C1939348   7.370   6.938   7.928  0.1627 -0.5101  0.4197
   11BDD    C2039349   7.463   6.981   7.819  0.2783 -0.4151  0.8700
   11BDD    C2139350   7.570   6.873   7.781  1.3984  0.3715 -1.2719
   11BDD    C2239351   7.500   6.741   7.743  0.4964  0.4889  0.3222
   11BDD    C2339352   7.589   6.621   7.774 -0.5603 -0.4461 -1.5832
   11BDD    C2439353   7.509   6.498   7.740  0.3702  0.6913 -0.2543
   11BDD    C2539354   7.396   7.063   7.706  0.5950  0.0004 -0.9104
   11BDD    C2639355   7.469   7.132   7.600 -1.1207  0.1798 -0.0577
   12TPM     C139356   7.626   7.149   8.447  0.0308  0.0021  0.3354
   12TPM     C239357   7.644   7.095   8.571  0.7612  1.0884  0.7365
   12TPM     C339358   7.769   7.025   8.587  0.7830  1.0836  0.5503
   12TPM     C439359   7.847   7.026   8.475  0.0690 -0.0066  0.0072
   12TPM     S139360   7.768   7.116   8.340 -0.6920 -1.1203 -0.3133
   13BDTP    C139361   8.449   6.887   8.585  0.0937  0.0557 -0.3653
   13BDTP    C239362   8.448   6.894   8.443 -0.1013  0.0551 -0.3638
   13BDTP    C339363   8.333   6.923   8.370 -0.2205 -0.0348 -0.2117
   13BDTP    C439364   8.214   6.946   8.441 -0.1445 -0.1287 -0.0536
   13BDTP    C539365   8.215   6.938   8.584  0.0501 -0.1284 -0.0548
   13BDTP    C639366   8.330   6.909   8.656  0.1696 -0.0386 -0.2070
   13BDTP    C739367   8.083   6.977   8.388 -0.2401 -0.2315  0.1202
   13BDTP    C839368   7.987   6.993   8.483 -0.1281 -0.3074  0.2477
   13BDTP    S139369   8.049   6.971   8.652  0.1144 -0.2592  0.1659
   13BDTP    C939370   8.580   6.855   8.638  0.1893  0.1584 -0.5386
   13BDTP   C1039371   8.676   6.839   8.544  0.0770  0.2342 -0.6661
   13BDTP    S239372   8.614   6.862   8.374 -0.1655  0.1860 -0.5845
   14FTM     S139373   8.421   7.147   8.194  0.1896 -0.2680  0.1698
   14FTM     C139374   8.410   7.104   8.020 -0.1729  0.1611  0.0835
   14FTM     C239375   8.344   6.986   8.005 -0.4032  0.3096 -0.0882
   14FTM     C339376   8.299   6.923   8.126 -0.3135  0.1036 -0.1607
   14FTM     C439377   8.332   6.995   8.236 -0.0049 -0.2128 -0.0408
   14FTM     F139378   8.321   6.927   7.881 -0.7081  0.6409 -0.1895
   14FTM     C539379   8.474   7.199   7.914  0.6611 -0.7253 -0.0519
   14FTM     C639380   8.615   7.177   7.849  0.5051 -0.9393 -0.6998
   14FTM     C739381   8.685   7.285   7.787 -0.5698  0.1369 -1.0994
   14FTM     C839382   8.731   7.420   7.860 -0.5093 -0.7870 -0.1113
   14FTM     C939383   8.682   7.486   7.990 -0.2850 -0.2383 -0.6485
   14FTM    C1039384   8.731   7.622   8.024  0.7783  1.3435 -0.3492
   14FTM    C1139385   8.663   7.046   7.787  0.9671  0.4596 -0.6749
   14FTM    C1239386   8.782   6.985   7.847 -0.1307  0.2075 -0.5727
   15FTM     S139387   8.272   6.784   8.909 -0.0655 -0.4482 -0.3756
   15FTM     C139388   8.364   6.855   9.047 -0.1793 -0.8743 -0.0755
   15FTM     C239389   8.426   6.969   9.007 -0.4315 -0.5571  0.4218
   15FTM     C339390   8.406   7.008   8.871 -0.5491  0.0224  0.5953
   15FTM     C439391   8.326   6.920   8.803 -0.3807  0.1533  0.2189
   15FTM     F139392   8.504   7.046   9.092 -0.5713 -0.7728  0.7489
   15FTM     C539393   8.321   6.802   9.177  0.7349  0.1082  0.4493
   15FTM     C639394   8.402   6.735   9.281  1.1325 -0.2208 -0.6336
   15FTM     C739395   8.308   6.670   9.395 -1.3067 -0.3448 -0.3774
   15FTM     C839396   8.274   6.740   9.537  0.7483 -0.7457 -0.4154
   15FTM     C939397   8.267   6.648   9.666 -0.6787  0.6528  1.3290
   15FTM    C1039398   8.402   6.583   9.698  0.0635  0.1970  0.5608
   15FTM    C1139399   8.550   6.781   9.297  0.2850  0.4639 -0.6816
   15FTM    C1239400   8.620   6.660   9.350 -0.0265 -0.6372  0.0504
   16TPM     C139401   8.823   6.841   8.578 -0.0906 -0.1182  0.1744
   16TPM     C239402   8.938   6.818   8.508 -0.0074 -0.0900  0.3004
   16TPM     C339403   9.051   6.785   8.590 -0.0556  0.0815  0.4356
   16TPM     C439404   9.022   6.783   8.724 -0.1753  0.1843  0.4124
   16TPM     S139405   8.849   6.822   8.755 -0.2369  0.0714  0.2164
   17BDD     C139406   9.316   6.644   8.934  0.3210  0.1574 -0.0903
   17BDD     C239407   9.273   6.754   9.003  0.2232  0.1234 -0.0970
   17BDD     C339408   9.163   6.823   8.939  0.1659  0.0254 -0.1051
   17BDD     C439409   9.123   6.765   8.821  0.2214 -0.0137 -0.1042
   17BDD     S139410   9.221   6.620   8.783  0.3488  0.0694 -0.0939
   17BDD     C539411   9.332   6.799   9.131  0.1781  0.1793 -0.0958
   17BDD     C639412   9.100   6.944   8.996  0.0582 -0.0260 -0.1128
   17BDD     O139413   9.005   7.004   8.941  0.0091 -0.1104 -0.1197
   17BDD     O239414   9.427   6.739   9.186  0.2275  0.2638 -0.0889
   17BDD     C739415   9.159   6.989   9.124  0.0136  0.0302 -0.1118
   17BDD     C839416   9.269   6.920   9.188  0.0708  0.1281 -0.1037
   17BDD     C939417   9.309   6.978   9.306  0.0155  0.1673 -0.1044
   17BDD     S239418   9.210   7.123   9.344 -0.1121  0.0839 -0.1150
   17BDD    C1039419   9.116   7.099   9.194 -0.0844 -0.0039 -0.1185
   17BDD    C1139420   9.004   7.207   9.187  0.0229  0.3298  1.5831
   17BDD    C1239421   9.042   7.346   9.214  1.1700 -0.8147 -0.8408
   17BDD    C1339422   8.948   7.384   9.346  0.4692 -0.5080  1.7464
   17BDD    C1439423   8.797   7.393   9.360  0.5685 -0.5740  0.4126
   17BDD    C1539424   8.731   7.269   9.412  0.2016 -0.0471 -1.0220
   17BDD    C1639425   8.640   7.312   9.532  0.3901  0.4645 -0.2110
   17BDD    C1739426   8.972   7.446   9.097 -1.2710  0.1993 -0.4500
   17BDD    C1839427   9.063   7.562   9.049 -1.2556  1.6577 -1.8474
   17BDD    C1939428   9.419   6.949   9.397  0.1982  0.8419 -0.1973
   17BDD    C2039429   9.379   6.889   9.543  0.2131 -0.8080 -1.0711
   17BDD    C2139430   9.339   7.007   9.646 -0.4891  0.0277 -0.0928
   17BDD    C2239431   9.409   6.996   9.790  1.3665 -0.6242  1.0173
   17BDD    C2339432   9.393   7.107   9.899 -0.1274 -1.4603  0.0309
   17BDD    C2439433   9.505   7.200   9.893 -1.2495  0.8709  1.1511
   17BDD    C2539434   9.357   6.730   9.565 -1.2209  0.9409  0.3084
   17BDD    C2639435   9.496   6.670   9.528  0.6679 -0.3840  0.0445
   18TPM     C139436   9.403   6.534   8.960  0.0208 -0.0286 -0.6255
   18TPM     C239437   9.536   6.546   8.933  0.1593 -0.0226  0.0257
   18TPM     C339438   9.605   6.420   8.924  0.2956 -0.0069  0.7441
   18TPM     C439439   9.524   6.312   8.944  0.2609 -0.0007  0.6405
   18TPM     S139440   9.354   6.362   8.976  0.0516 -0.0144 -0.3799
   19BDTP    C139441   9.695   5.715   8.885  0.2015 -0.1622 -0.2239
   19BDTP    C239442   9.553   5.707   8.903  0.2365 -0.0538  0.1163
   19BDTP    C339443   9.474   5.819   8.917  0.3321  0.0176  0.0942
   19BDTP    C439444   9.535   5.946   8.915  0.3965 -0.0199 -0.2804
   19BDTP    C539445   9.677   5.953   8.897  0.3619 -0.1285 -0.6206
   19BDTP    C639446   9.757   5.841   8.882  0.2661 -0.1997 -0.5989
   19BDTP    C739447   9.473   6.076   8.928  0.4990  0.0391 -0.3765
   19BDTP    C839448   9.560   6.180   8.921  0.5422 -0.0196 -0.7672
   19BDTP    S139449   9.733   6.127   8.897  0.4590 -0.1574 -1.0688
   19BDTP    C939450   9.757   5.584   8.872  0.0992 -0.2211 -0.1280
   19BDTP   C1039451   9.670   5.481   8.878  0.0563 -0.1625  0.2632
   19BDTP    S239452   9.498   5.533   8.903  0.1392 -0.0249  0.5642
   20FTM     S139453   9.306   5.800   8.696  0.3751  0.3726 -0.1170
   20FTM     C139454   9.134   5.852   8.711  0.3667  0.2560  0.1972
   20FTM     C239455   9.105   5.878   8.842  0.5691  0.1733  0.2599
   20FTM     C339456   9.212   5.860   8.935  0.7386  0.1955  0.0715
   20FTM     C439457   9.327   5.818   8.874  0.6640  0.2982 -0.1420
   20FTM     F139458   8.980   5.919   8.884  0.6125  0.0731  0.4914
   20FTM     C539459   9.087   5.885   8.579  0.1609  0.0975 -0.1411
   20FTM     C639460   9.046   6.036   8.547 -0.7729  0.6477 -1.0163
   20FTM     C739461   8.899   6.071   8.558 -1.2553 -0.4714  0.3176
   20FTM     C839462   8.804   6.011   8.456 -0.9250 -0.4574 -1.1244
   20FTM     C939463   8.787   5.869   8.429 -0.0491 -0.6249  0.6337
   20FTM    C1039464   8.679   5.804   8.527 -0.1962 -0.5201 -0.2797
   20FTM    C1139465   9.129   6.145   8.582  0.4066  0.7628 -0.4625
   20FTM    C1239466   9.271   6.132   8.536  0.3127 -1.3933  0.1987
   21FTM     S139467   9.927   5.793   8.677  0.0473  0.8704 -0.2244
   21FTM     C139468  10.101   5.837   8.693  0.3987 -0.5101 -0.0002
   21FTM     C239469  10.125   5.888   8.817  0.7029 -0.9292  0.1163
   21FTM     C339470  10.012   5.895   8.905  0.6821 -0.2197  0.0410
   21FTM     C439471   9.898   5.849   8.847  0.3507  0.7755 -0.1398
   21FTM     F139472  10.250   5.930   8.858  1.0185 -1.9805  0.2992
   21FTM     C539473  10.192   5.792   8.585  0.0646 -0.0864 -0.1405
   21FTM     C639474  10.327   5.865   8.553 -0.8254 -0.1625  0.6046
   21FTM     C739475  10.425   5.790   8.455 -0.1081 -1.5547 -1.4654
   21FTM     C839476  10.492   5.656   8.499 -0.7891  0.4344  0.8423
   21FTM     C939477  10.610   5.614   8.396 -0.8914 -0.4832 -0.4082
   21FTM    C1039478  10.604   5.596   8.240 -0.4649 -0.3420  1.2089
   21FTM    C1139479  10.330   6.014   8.549 -0.5154 -0.4564 -0.3426
   21FTM    C1239480  10.286   6.089   8.416  0.7511  0.6196 -1.0970
   22TPM     C139481   9.685   5.335   8.872 -0.4620 -0.6309  0.2801
   22TPM     C239482   9.595   5.243   8.917 -0.3269 -0.9633 -0.1132
   22TPM     C339483   9.635   5.107   8.895 -0.1171 -0.8116 -0.6862
   22TPM     C439484   9.756   5.095   8.832 -0.0917 -0.3634 -0.7298
   22TPM     S139485   9.828   5.256   8.796 -0.3332 -0.0965 -0.0449
   23BDD     C139486   9.790   4.692   8.808 -0.0350  0.2008  0.4103
   23BDD     C239487   9.913   4.742   8.777  0.0024  0.1261  0.4377
   23BDD     C339488   9.919   4.887   8.782  0.1628  0.1112  0.7157
   23BDD     C439489   9.800   4.945   8.817  0.2454  0.1751  0.8965
   23BDD     S139490   9.672   4.822   8.845  0.1276  0.2580  0.7310
   23BDD     C539491  10.030   4.659   8.742 -0.1078  0.0654  0.2091
   23BDD     C639492  10.042   4.963   8.753  0.2286  0.0346  0.7923
   23BDD     O139493  10.047   5.088   8.757  0.3672  0.0218  1.0319
   23BDD     O239494  10.025   4.534   8.738 -0.2463  0.0782 -0.0308
   23BDD     C739495  10.159   4.880   8.718  0.1190 -0.0263  0.5639
   23BDD     C839496  10.154   4.735   8.713 -0.0415 -0.0116  0.2859
   23BDD     C939497  10.273   4.678   8.678 -0.1242 -0.0753  0.1054
   23BDD     S239498  10.400   4.801   8.650 -0.0067 -0.1583  0.2708
   23BDD    C1039499  10.283   4.931   8.687  0.1564 -0.1011  0.5915
   23BDD    C1139500  10.337   5.070   8.696 -0.2875  0.0181 -0.2818
   23BDD    C1239501  10.400   5.142   8.574 -1.4239 -1.1326  1.4528
   23BDD    C1339502  10.299   5.168   8.455 -0.5027 -1.2867 -1.1750
   23BDD    C1439503  10.289   5.310   8.413  0.4737 -2.0550  0.2122
   23BDD    C1539504  10.213   5.307   8.281 -0.1760  0.2708  0.3784
   23BDD    C1639505  10.258   5.256   8.135  0.2055 -1.0513  0.1698
   23BDD    C1739506  10.548   5.117   8.540  0.1784 -0.5728  0.5231
   23BDD    C1839507  10.622   5.225   8.454  0.4795 -0.5413  0.3735
   23BDD    C1939508  10.318   4.538   8.655 -0.3582 -1.2588  2.3835
   23BDD    C2039509  10.285   4.495   8.498 -0.8620  1.3404 -1.3916
   23BDD    C2139510  10.366   4.365   8.481 -0.4238 -1.2176  1.3717
   23BDD    C2239511  10.509   4.399   8.433 -0.0718 -0.1769  0.4261
   23BDD    C2339512  10.540   4.346   8.296  0.3525  0.1690 -0.4106
   23BDD    C2439513  10.673   4.395   8.252  1.3022 -0.2128  1.5095
   23BDD    C2539514  10.143   4.451   8.481  0.2600 -0.9255  0.7775
   23BDD    C2639515  10.090   4.460   8.327 -0.4583  0.2977  0.4280
   24TPM     C139516   9.732   4.559   8.844 -0.3193  0.2660 -0.2708
   24TPM     C239517   9.773   4.449   8.773 -1.3380  0.2567 -0.8750
   24TPM     C339518   9.717   4.325   8.821 -1.6723  0.4004 -0.8905
   24TPM     C439519   9.634   4.341   8.928 -0.9078  0.5192 -0.2976
   24TPM     S139520   9.620   4.514   8.977  0.3026  0.4583  0.3309
   25BDTP    C139521   9.367   3.908   9.295  0.1907  0.0215  0.1664
   25BDTP    C239522   9.467   3.833   9.226  0.0982 -0.0679  0.1285
   25BDTP    C339523   9.550   3.890   9.130  0.0894 -0.1506  0.0713
   25BDTP    C439524   9.535   4.027   9.102  0.1755 -0.1447  0.0501
   25BDTP    C539525   9.435   4.102   9.171  0.2682 -0.0554  0.0882
   25BDTP    C639526   9.351   4.045   9.266  0.2769  0.0273  0.1456
   25BDTP    C739527   9.609   4.108   9.007  0.1845 -0.2206 -0.0074
   25BDTP    C839528   9.571   4.237   9.002  0.2780 -0.1928 -0.0145
   25BDTP    S139529   9.434   4.276   9.116  0.3681 -0.0669  0.0510
   25BDTP    C939530   9.293   3.827   9.389  0.1819  0.0972  0.2241
   25BDTP   C1039531   9.331   3.698   9.395  0.0882  0.0693  0.2310
   25BDTP    S239532   9.467   3.659   9.280 -0.0018 -0.0566  0.1658
   26FTM     S139533   9.664   3.717   8.937 -0.0026  0.3834 -0.1094
   26FTM     C139534   9.842   3.695   8.950 -0.0017  0.1409 -0.4814
   26FTM     C239535   9.889   3.763   9.058  0.2623 -0.2285 -0.3593
   26FTM     C339536   9.791   3.835   9.135  0.4745 -0.3426  0.0219
   26FTM     C439537   9.666   3.821   9.084  0.3698 -0.0512  0.1969
   26FTM     F139538  10.023   3.765   9.094  0.3271 -0.4851 -0.5848
   26FTM     C539539   9.920   3.615   8.840 -0.7160 -0.4219  0.1083
   26FTM     C639540  10.070   3.591   8.838 -0.3463  0.0123 -0.0816
   26FTM     C739541  10.131   3.457   8.795 -0.6288 -0.1449  0.0712
   26FTM     C839542  10.096   3.332   8.862 -0.1945  0.8118 -0.0760
   26FTM     C939543  10.172   3.199   8.807 -0.0633  0.4851 -0.3465
   26FTM    C1039544  10.118   3.061   8.847 -0.6337 -0.1514 -0.7698
   26FTM    C1139545  10.154   3.716   8.776  0.3194 -1.0914 -0.2965
   26FTM    C1239546  10.280   3.750   8.845 -0.2965  0.3144 -1.5615
   27FTM     S139547   9.276   4.283   9.423 -0.1620 -0.2543  0.4364
   27FTM     C139548   9.097   4.304   9.429 -0.1933 -0.3090 -0.1824
   27FTM     C239549   9.036   4.198   9.369  0.0541 -0.0983 -0.8118
   27FTM     C339550   9.123   4.098   9.315  0.2780  0.1135 -0.8500
   27FTM     C439551   9.255   4.127   9.335  0.1994  0.0635 -0.2297
   27FTM     F139552   8.899   4.186   9.358  0.0927 -0.0848 -1.3905
   27FTM     C539553   9.030   4.419   9.502 -0.9645  0.1187  0.3625
   27FTM     C639554   9.090   4.565   9.518 -0.5287  0.1796 -1.1670
   27FTM     C739555   9.072   4.603   9.667  0.3990 -0.9440 -1.1010
   27FTM     C839556   9.139   4.734   9.726 -1.1251  1.1626 -0.1603
   27FTM     C939557   9.241   4.713   9.843 -0.9796  0.8564 -1.6313
   27FTM    C1039558   9.178   4.709   9.983 -0.5612 -0.5634  0.0882
   27FTM    C1139559   9.056   4.673   9.421 -0.7110 -0.6496  0.9475
   27FTM    C1239560   9.147   4.647   9.302 -0.2318 -0.1865  0.4127
   28TPM     C139561   9.250   3.603   9.450 -0.3834 -0.7164  0.1640
   28TPM     C239562   9.191   3.495   9.393 -0.6714 -0.7370  0.4947
   28TPM     C339563   9.114   3.415   9.485 -0.9303 -0.2238  0.7279
   28TPM     C439564   9.114   3.464   9.613 -0.8394  0.1881  0.5753
   28TPM     S139565   9.213   3.614   9.626 -0.4171 -0.0422  0.1213
   29BDD     C139566   9.112   3.211   9.914 -0.1175  0.4386 -0.0818
   29BDD     C239567   8.982   3.221   9.872 -0.1338  0.3999 -0.0403
   29BDD     C339568   8.965   3.309   9.757 -0.1457  0.1187 -0.2570
   29BDD     C439569   9.082   3.365   9.714 -0.1385 -0.0528 -0.4604
   29BDD     S139570   9.221   3.311   9.813 -0.1156  0.1256 -0.3948
   29BDD     C539571   8.869   3.150   9.935 -0.1392  0.6199  0.2000
   29BDD     C639572   8.833   3.334   9.695 -0.1638  0.0305 -0.2537
   29BDD     O139573   8.818   3.410   9.597 -0.1740 -0.2119 -0.4401
   29BDD     O239574   8.884   3.074  10.034 -0.1292  0.8623  0.3867
   29BDD     C739575   8.720   3.263   9.759 -0.1695  0.2506 -0.0136
   29BDD     C839576   8.737   3.175   9.873 -0.1578  0.5318  0.2029
   29BDD     C939577   8.620   3.119   9.917 -0.1652  0.7033  0.4067
   29BDD     S239578   8.480   3.173   9.818 -0.1878  0.5248  0.3414
   29BDD    C1039579   8.590   3.273   9.717 -0.1857  0.2118  0.0284
   29BDD    C1139580   8.520   3.377   9.623  0.0764 -0.3088  0.9776
   29BDD    C1239581   8.466   3.314   9.486  0.4983 -0.5544  0.1289
   29BDD    C1339582   8.503   3.349   9.344 -0.4155  0.1217 -0.2867
   29BDD    C1439583   8.626   3.427   9.291  0.1945 -0.5437  0.2559
   29BDD    C1539584   8.613   3.579   9.253  0.4960 -0.1893 -0.0932
   29BDD    C1639585   8.639   3.675   9.366  0.4958 -1.3064  0.5031
   29BDD    C1739586   8.331   3.227   9.508  0.4751  0.4419  1.0652
   29BDD    C1839587   8.241   3.192   9.386  0.9527 -0.4212 -0.1530
   29BDD    C1939588   8.600   3.022  10.025 -0.4914  0.6860  0.0638
   29BDD    C2039589   8.518   3.074  10.134  0.7237  0.9681  0.6110
   29BDD    C2139590   8.504   3.210  10.190 -0.7389 -0.0082  0.1183
   29BDD    C2239591   8.638   3.263  10.213 -0.7563  0.0484  0.7274
   29BDD    C2339592   8.611   3.398  10.280  0.2818  0.2478 -0.2956
   29BDD    C2439593   8.728   3.477  10.236  0.5177  0.1030 -0.7431
   29BDD    C2539594   8.498   2.957  10.242 -0.0318 -0.0625 -0.9342
   29BDD    C2639595   8.571   2.959  10.375  0.9909  0.9528 -1.7825
   30TPM     C139596   9.182   3.115   9.992 -0.0546 -0.3481 -0.6957
   30TPM     C239597   9.137   3.079  10.116 -0.2022 -0.6326 -0.8292
   30TPM     C339598   9.234   3.005  10.193 -0.0916 -0.3330 -0.6778
   30TPM     C439599   9.352   2.984  10.128  0.1410  0.1799 -0.4288
   30TPM     S139600   9.350   3.057   9.963  0.2384  0.3254 -0.3657
   31BDTP    C139601   9.840   2.637  10.312  0.1225 -0.5496 -0.0975
   31BDTP    C239602   9.767   2.545  10.232 -0.0887 -0.5151  0.0548
   31BDTP    C339603   9.646   2.577  10.173 -0.1185 -0.4053  0.1743
   31BDTP    C439604   9.594   2.706  10.193  0.0679 -0.3256  0.1423
   31BDTP    C539605   9.668   2.799  10.272  0.2789 -0.3602 -0.0100
   31BDTP    C639606   9.789   2.767  10.332  0.3091 -0.4700 -0.1292
   31BDTP    C739607   9.471   2.763  10.141  0.0778 -0.2072  0.2471
   31BDTP    C839608   9.448   2.891  10.178  0.2835 -0.1519  0.1819
   31BDTP    S139609   9.580   2.959  10.283  0.4935 -0.2419 -0.0217
   31BDTP    C939610   9.964   2.581  10.363  0.1130 -0.6681 -0.2024
   31BDTP   C1039611   9.986   2.453  10.327 -0.0925 -0.7235 -0.1371
   31BDTP    S239612   9.854   2.385  10.221 -0.3029 -0.6335  0.0666
   32FTM     S139613   9.404   2.428  10.199  0.3769  0.2506 -0.1099
   32FTM     C139614   9.347   2.333  10.057 -0.5241  0.0201  0.3881
   32FTM     C239615   9.442   2.334   9.959 -0.8094 -0.7792  0.0830
   32FTM     C339616   9.561   2.408   9.989 -0.3560 -1.2496 -0.5419
   32FTM     C439617   9.558   2.464  10.113  0.2984 -0.7958 -0.7207
   32FTM     F139618   9.426   2.270   9.838 -1.4980 -1.1321  0.3507
   32FTM     C539619   9.212   2.270  10.064  0.2349 -0.2735  0.2451
   32FTM     C639620   9.128   2.221   9.932  0.2122  0.2666  0.7154
   32FTM     C739621   8.972   2.244   9.937 -0.5384  0.0678  0.1548
   32FTM     C839622   8.912   2.365   9.864 -1.1698 -0.6400  0.5160
   32FTM     C939623   8.764   2.367   9.829  0.0742  1.8613  0.9359
   32FTM    C1039624   8.735   2.455   9.712  1.3475 -0.1067 -0.1741
   32FTM    C1139625   9.165   2.167   9.791  0.6153  0.4860 -0.5017
   32FTM    C1239626   9.203   2.256   9.680  0.3682 -0.7420  1.2463
   33FTM     S139627   9.973   3.004  10.301 -0.1609  0.4352  0.1479
   33FTM     C139628  10.008   3.092  10.454 -0.4483  0.2034  0.3485
   33FTM     C239629   9.948   3.029  10.559 -0.6013  0.0145  0.1476
   33FTM     C339630   9.872   2.912  10.526 -0.5064  0.0379 -0.1669
   33FTM     C439631   9.875   2.883  10.393 -0.2737  0.2517 -0.2082
   33FTM     F139632   9.957   3.075  10.689 -0.8359 -0.1909  0.2367
   33FTM     C539633  10.066   3.219  10.439  0.2826  0.2154 -1.3006
   33FTM     C639634  10.221   3.240  10.412  1.2901  0.8095 -0.3120
   33FTM     C739635  10.261   3.297  10.276 -0.3773 -1.1267 -0.4914
   33FTM     C839636  10.242   3.222  10.150  0.3489 -0.6183  0.7247
   33FTM     C939637  10.258   3.319  10.025 -0.3843  1.5327 -0.2516
   33FTM    C1039638  10.214   3.239   9.903  0.0518 -0.0254  1.0234
   33FTM    C1139639  10.337   3.225  10.505  0.5418  1.4729  0.2546
   33FTM    C1239640  10.328   3.114  10.607  1.6891  0.4810  0.8544
   34TPM     C139641  10.088   2.370  10.381 -0.0390  0.6679  0.0121
   34TPM     C239642  10.076   2.237  10.404 -0.6182  0.8317  0.7229
   34TPM     C339643  10.194   2.176  10.460 -0.8428  0.5924  0.9475
   34TPM     C439644  10.297   2.264  10.479 -0.4352  0.2462  0.4078
   34TPM     S139645  10.252   2.431  10.428  0.2700  0.1950 -0.4319
   35BDD     C139646  10.575   2.068  10.679  0.2209 -0.3463 -0.1541
   35BDD     C239647  10.633   2.187  10.648  0.1149 -0.2806 -0.1013
   35BDD     C339648  10.544   2.279  10.579 -0.0005 -0.2863  0.0408
   35BDD     C439649  10.419   2.228  10.559  0.0187 -0.3562  0.0941
   35BDD     S139650  10.404   2.062  10.624  0.1836 -0.4197 -0.0291
   35BDD     C539651  10.773   2.222  10.680  0.1156 -0.2102 -0.1800
   35BDD     C639652  10.586   2.414  10.537 -0.1261 -0.2222  0.1178
   35BDD     O139653  10.509   2.493  10.478 -0.2258 -0.2270  0.2406
   35BDD     O239654  10.850   2.143  10.739  0.2151 -0.2052 -0.3028
   35BDD     C739655  10.726   2.448  10.569 -0.1254 -0.1517  0.0396
   35BDD     C839656  10.815   2.357  10.637 -0.0100 -0.1460 -0.1025
   35BDD     C939657  10.940   2.408  10.658 -0.0296 -0.0761 -0.1564
   35BDD     S239658  10.955   2.574  10.593 -0.1941 -0.0125 -0.0327
   35BDD    C1039659  10.784   2.568  10.538 -0.2313 -0.0860  0.0920
   35BDD    C1139660  10.743   2.700  10.491 -0.5361  0.0364  1.1684
   35BDD    C1239661  10.696   2.723  10.355  0.2009  1.2785  0.3690
   35BDD    C1339662  10.756   2.629  10.239  0.2568 -1.3735  0.9564
   35BDD    C1439663  10.770   2.480  10.245 -0.5483  0.1148  0.3250
   35BDD    C1539664  10.821   2.455  10.099 -0.8360  0.5432 -0.4747
   35BDD    C1639665  10.966   2.484  10.050 -0.3953 -0.5010 -1.3343
   35BDD    C1739666  10.647   2.851  10.290  0.8731  0.0452 -0.0631
   35BDD    C1839667  10.584   2.988  10.363 -0.3514 -0.2198  0.7286
   35BDD    C1939668  11.054   2.345  10.745  0.8932  0.0822 -1.8567
   35BDD    C2039669  11.180   2.324  10.678  0.6623  1.0092  0.4133
   35BDD    C2139670  11.297   2.284  10.768 -0.5038 -0.7738  0.0185
   35BDD    C2239671  11.283   2.147  10.834 -0.5243 -1.3621  0.8804
   35BDD    C2339672  11.388   2.119  10.932  0.7490  0.5286 -1.1448
   35BDD    C2439673  11.364   1.972  10.983 -0.1570 -0.3239  0.4773
   35BDD    C2539674  11.171   2.229  10.542  0.4849 -1.1920 -0.5169
   35BDD    C2639675  11.283   2.212  10.442 -0.0789 -0.3627 -0.0330
   36TPM     C139676  10.601   1.952  10.758 -0.6031 -0.3228 -0.0658
   36TPM     C239677  10.504   1.871  10.811 -0.5124 -0.9183 -0.7842
   36TPM     C339678  10.557   1.761  10.887 -0.3967 -1.2031 -1.2658
   36TPM     C439679  10.693   1.758  10.893 -0.3994 -0.8247 -0.9145
   36TPM     S139680  10.766   1.896  10.801 -0.5486 -0.0735  0.0592
   37BDTP    C139681  10.938   1.447  11.384  0.4444 -0.1932 -0.4237
   37BDTP    C239682  10.981   1.581  11.405  0.2103 -0.1375 -0.2882
   37BDTP    C339683  10.950   1.685  11.318  0.0477 -0.1069 -0.1950
   37BDTP    C439684  10.872   1.654  11.204  0.1194 -0.1324 -0.2372
   37BDTP    C539685  10.829   1.520  11.184  0.3533 -0.1881 -0.3724
   37BDTP    C639686  10.860   1.417  11.271  0.5160 -0.2188 -0.4658
   37BDTP    C739687  10.828   1.744  11.100 -0.0178 -0.1090 -0.1589
   37BDTP    C839688  10.754   1.685  11.003  0.1006 -0.1441 -0.2279
   37BDTP    S139689  10.730   1.507  11.031  0.4025 -0.2117 -0.4022
   37BDTP    C939690  10.983   1.357  11.489  0.5815 -0.2166 -0.5021
   37BDTP   C1039691  11.056   1.416  11.586  0.4630 -0.1815 -0.4327
   37BDTP    S239692  11.080   1.595  11.558  0.1614 -0.1139 -0.2588
   38FTM     S139693  10.942   1.873  11.517  0.5260 -0.6284  0.0155
   38FTM     C139694  11.082   1.985  11.521 -0.0361  0.0911 -0.0331
   38FTM     C239695  11.160   1.966  11.412 -0.3510  0.9987 -0.4387
   38FTM     C339696  11.117   1.865  11.320 -0.1788  1.1854 -0.7291
   38FTM     C439697  11.001   1.805  11.360  0.2833  0.3950 -0.5399
   38FTM     F139698  11.276   2.038  11.388 -0.8140  1.7143 -0.5708
   38FTM     C539699  11.137   2.057  11.647  0.9663 -0.2745 -0.6702
   38FTM     C639700  11.069   2.142  11.758  1.1404  1.0540  0.3235
   38FTM     C739701  10.945   2.227  11.720  0.6544  0.9571  0.2673
   38FTM     C839702  10.975   2.362  11.647  0.0876  0.2196  0.7997
   38FTM     C939703  11.047   2.391  11.526 -0.2967 -0.0414 -0.2924
   38FTM    C1039704  11.112   2.516  11.553 -0.3683 -0.5313 -0.6852
   38FTM    C1139705  11.144   2.175  11.883 -1.3085 -2.0873  0.6303
   38FTM    C1239706  11.175   2.058  11.967 -0.3078 -0.6180 -0.1850
   39FTM     S139707  10.673   1.213  11.323 -0.5349 -0.1509  0.2136
   39FTM     C139708  10.687   1.060  11.229 -0.6189  0.2954 -0.5414
   39FTM     C239709  10.794   1.067  11.145 -0.2971  0.4580 -0.1283
   39FTM     C339710  10.869   1.189  11.148  0.0269  0.2504  0.7787
   39FTM     C439711  10.818   1.279  11.238 -0.0496 -0.0820  1.0695
   39FTM     F139712  10.830   0.964  11.059 -0.2768  0.8045 -0.5467
   39FTM     C539713  10.596   0.941  11.265 -0.6856  1.3012 -0.3300
   39FTM     C639714  10.465   0.902  11.189 -0.3416  0.5267 -0.3906
   39FTM     C739715  10.347   0.996  11.218  0.0136 -1.4135  1.5023
   39FTM     C839716  10.299   0.984  11.356  1.9817  0.4852 -0.5311
   39FTM     C939717  10.226   1.122  11.384 -0.6870  0.9276 -1.8042
   39FTM    C1039718  10.097   1.140  11.308  0.4924  0.2467 -0.0052
   39FTM    C1139719  10.508   0.891  11.043  0.1725  0.1328 -0.0769
   39FTM    C1239720  10.405   0.828  10.967 -0.1035  0.9371  0.8481
   40TPM     C139721  11.094   1.371  11.723 -0.0511 -0.9932 -0.0225
   40TPM     C239722  11.165   1.261  11.759 -0.4232 -1.0578  0.5315
   40TPM     C339723  11.203   1.260  11.898 -0.5698 -0.5719  0.5785
   40TPM     C439724  11.162   1.370  11.967 -0.3094 -0.1368  0.0602
   40TPM     S139725  11.070   1.484  11.861  0.1449 -0.3082 -0.5319
   41BDD     C139726  11.274   1.389  12.354  0.0011  0.3744 -0.0153
   41BDD     C239727  11.338   1.493  12.292  0.1082  0.2584 -0.0995
   41BDD     C339728  11.306   1.503  12.151  0.3762 -0.0237 -0.1819
   41BDD     C439729  11.219   1.407  12.107  0.4692 -0.1185 -0.1593
   41BDD     S139730  11.171   1.297  12.241  0.2277  0.1387 -0.0333
   41BDD     C539731  11.430   1.587  12.360 -0.0310  0.4024 -0.1073
   41BDD     C639732  11.364   1.608  12.064  0.5307 -0.1888 -0.2801
   41BDD     O139733  11.337   1.617  11.942  0.7617 -0.4320 -0.3511
   41BDD     O239734  11.457   1.578  12.482 -0.2620  0.6455 -0.0363
   41BDD     C739735  11.456   1.701  12.132  0.3910 -0.0448 -0.2879
   41BDD     C839736  11.488   1.691  12.273  0.1233  0.2372 -0.2055
   41BDD     C939737  11.575   1.787  12.316  0.0308  0.3320 -0.2281
   41BDD     S239738  11.623   1.897  12.183  0.2719  0.0748 -0.3540
   41BDD    C1039739  11.520   1.805  12.069  0.4988 -0.1609 -0.3721
   41BDD    C1139740  11.503   1.880  11.946 -0.6288 -0.7017  0.8472
   41BDD    C1239741  11.579   1.826  11.816 -0.8848  0.1322  0.0890
   41BDD    C1339742  11.720   1.746  11.822 -0.0968 -0.4102 -0.6520
   41BDD    C1439743  11.854   1.826  11.836  0.1625  0.6400 -0.1085
   41BDD    C1539744  11.953   1.754  11.935 -0.1100 -0.6118  2.0831
   41BDD    C1639745  12.075   1.669  11.870 -0.8321  0.4705  0.1904
   41BDD    C1739746  11.542   1.894  11.692 -0.2261 -0.2139 -0.3648
   41BDD    C1839747  11.618   2.021  11.678 -0.4434 -0.1366  0.1030
   41BDD    C1939748  11.637   1.817  12.456 -0.6762  1.3560 -1.0423
   41BDD    C2039749  11.612   1.956  12.508  0.2192 -1.1077 -0.4555
   41BDD    C2139750  11.677   1.991  12.643 -0.7471 -0.5016  0.8861
   41BDD    C2239751  11.827   1.978  12.663 -0.6819  0.4801 -0.4819
   41BDD    C2339752  11.902   2.114  12.669  0.5715 -0.5383  0.5992
   41BDD    C2439753  12.052   2.105  12.678 -0.9824 -0.1668  0.6175
   41BDD    C2539754  11.452   1.955  12.536 -0.3004  0.0100  0.1885
   41BDD    C2639755  11.386   2.029  12.430  0.0485 -1.4113  0.0009
   42TPM     C139756  11.257   1.345  12.490 -0.3796  0.3493 -0.4894
   42TPM     C239757  11.276   1.212  12.513 -1.2236  0.2194 -0.4613
   42TPM     C339758  11.298   1.180  12.652 -1.4658  0.1048 -0.4495
   42TPM     C439759  11.294   1.288  12.735 -0.8068  0.1473 -0.4686
   42TPM     S139760  11.264   1.440  12.643  0.1790  0.3369 -0.5032
   43BDTP    C139761  11.272   1.176  13.355 -0.8147  0.2031  0.2286
   43BDTP    C239762  11.296   1.316  13.351 -0.2697  0.1139  0.1766
   43BDTP    C339763  11.310   1.387  13.232  0.1953 -0.0126  0.1539
   43BDTP    C439764  11.301   1.315  13.111  0.1206 -0.0532  0.1838
   43BDTP    C539765  11.277   1.174  13.116 -0.4246  0.0361  0.2357
   43BDTP    C639766  11.263   1.104  13.235 -0.8897  0.1626  0.2584
   43BDTP    C739767  11.312   1.366  12.976  0.5384 -0.1792  0.1686
   43BDTP    C839768  11.298   1.272  12.880  0.3364 -0.1888  0.2063
   43BDTP    S139769  11.269   1.105  12.947 -0.4120 -0.0395  0.2661
   43BDTP    C939770  11.261   1.125  13.490 -1.2329  0.3292  0.2438
   43BDTP   C1039771  11.275   1.219  13.587 -1.0304  0.3388  0.2061
   43BDTP    S239772  11.304   1.386  13.520 -0.2823  0.1894  0.1463
   44FTM     S139773  11.433   1.649  13.179  0.0188  0.3898  0.3487
   44FTM     C139774  11.331   1.789  13.228 -0.4082 -0.0169  0.6481
   44FTM     C239775  11.221   1.746  13.294 -0.2706 -0.4909  0.5739
   44FTM     C339776  11.208   1.604  13.310  0.1652 -0.5648  0.2866
   44FTM     C439777  11.313   1.537  13.254  0.3674 -0.1334  0.1359
   44FTM     F139778  11.124   1.832  13.344 -0.5305 -0.8859  0.7616
   44FTM     C539779  11.348   1.940  13.200 -0.0812  1.5755  1.0131
   44FTM     C639780  11.413   1.958  13.062  0.0209 -0.7513 -0.5436
   44FTM     C739781  11.343   1.913  12.941 -0.9731 -0.7949  1.2779
   44FTM     C839782  11.218   2.007  12.898  1.6913  0.0470  0.4788
   44FTM     C939783  11.121   1.967  12.774  0.1872 -0.0493  0.8056
   44FTM    C1039784  11.091   1.816  12.735  0.2842  0.4123  0.3602
   44FTM    C1139785  11.528   2.076  13.045  0.9298  0.9116 -0.4949
   44FTM    C1239786  11.635   2.095  13.154  1.1273  0.1281  0.0720
   45FTM     S139787  11.414   0.849  13.263 -0.0644  0.2093 -0.2460
   45FTM     C139788  11.317   0.698  13.249 -0.5770  0.4629  0.4741
   45FTM     C239789  11.186   0.729  13.228 -0.5946  0.8053  1.0537
   45FTM     C339790  11.154   0.869  13.222 -0.2196  0.8894  0.9750
   45FTM     C439791  11.264   0.947  13.238  0.0955  0.6019  0.3136
   45FTM     F139792  11.087   0.633  13.214 -0.9513  1.0631  1.6899
   45FTM     C539793  11.368   0.549  13.231 -0.1846  0.5120  0.5810
   45FTM     C639794  11.510   0.513  13.183 -0.0355 -1.0713 -1.1162
   45FTM     C739795  11.531   0.376  13.138  0.6412 -0.3022  1.2991
   45FTM     C839796  11.444   0.354  13.006 -1.0081  0.7223  0.6176
   45FTM     C939797  11.522   0.385  12.878 -0.5804  0.8212 -1.0887
   45FTM    C1039798  11.648   0.294  12.846  0.5516  0.8704  1.0157
   45FTM    C1139799  11.632   0.586  13.228 -0.9452  0.5461 -1.9111
   45FTM    C1239800  11.687   0.548  13.367  0.1341 -0.6059  0.8828
   46TPM     C139801  11.255   1.191  13.730 -0.6938  0.2544  0.1363
   46TPM     C239802  11.203   1.278  13.822 -0.8483  0.3313 -0.0219
   46TPM     C339803  11.212   1.231  13.958 -0.4487  0.7426  0.0986
   46TPM     C439804  11.271   1.108  13.970  0.0102  0.9791  0.3487
   46TPM     S139805  11.319   1.042  13.809 -0.0269  0.6988  0.4522
   47BDD     C139806  11.163   0.935  14.310 -0.2925 -0.3530  0.2960
   47BDD     C239807  11.273   0.864  14.270 -0.2429 -0.2078  0.1748
   47BDD     C339808  11.336   0.918  14.151 -0.3450 -0.0240  0.2034
   47BDD     C439809  11.273   1.029  14.101 -0.4707 -0.0317  0.3461
   47BDD     S139810  11.130   1.073  14.201 -0.4702 -0.2695  0.4544
   47BDD     C539811  11.325   0.745  14.340 -0.1001 -0.2327  0.0281
   47BDD     C639812  11.456   0.857  14.090 -0.3140  0.1526  0.0883
   47BDD     O139813  11.510   0.904  13.987 -0.4017  0.3111  0.1131
   47BDD     O239814  11.271   0.698  14.443 -0.0124 -0.3912  0.0033
   47BDD     C739815  11.507   0.738  14.159 -0.1709  0.1277 -0.0584
   47BDD     C839816  11.445   0.684  14.279 -0.0689 -0.0561 -0.0871
   47BDD     C939817  11.508   0.573  14.328  0.0567 -0.0484 -0.2297
   47BDD     S239818  11.650   0.528  14.228  0.0563  0.1895 -0.3380
   47BDD    C1039819  11.617   0.667  14.119 -0.1214  0.2728 -0.1796
   47BDD    C1139820  11.726   0.680  14.008  0.4703  0.3886 -0.2014
   47BDD    C1239821  11.736   0.606  13.870 -0.0116  1.1527  0.6073
   47BDD    C1339822  11.615   0.544  13.788 -0.1441 -1.5145  0.4086
   47BDD    C1439823  11.483   0.510  13.862  0.9885  1.8624 -0.6309
   47BDD    C1539824  11.353   0.517  13.778 -1.1029 -0.9604 -0.0558
   47BDD    C1639825  11.349   0.639  13.671 -1.1419 -0.0828 -0.7078
   47BDD    C1739826  11.859   0.621  13.784  0.6521  0.9525  0.8593
   47BDD    C1839827  11.985   0.661  13.864  0.2510  1.4960 -1.1471
   47BDD    C1939828  11.485   0.497  14.448  0.1333  0.1929 -1.0607
   47BDD    C2039829  11.401   0.362  14.445 -0.1049 -0.6563 -0.3086
   47BDD    C2139830  11.466   0.248  14.388  1.1269  0.9750  1.0570
   47BDD    C2239831  11.445   0.232  14.222 -0.2981  1.5317 -0.8851
   47BDD    C2339832  11.486   0.086  14.220  0.1178  1.2619 -1.1033
   47BDD    C2439833  11.483   0.028  14.087  0.1332  0.5076  0.8144
   47BDD    C2539834  11.251   0.361  14.417 -1.2505 -0.5247  0.4134
   47BDD    C2639835  11.152   0.405  14.519  0.8604  0.0046 -0.5449
   48TPM     C139836  11.065   0.928  14.419  0.5768 -0.0680  0.3589
   48TPM     C239837  11.032   1.042  14.486  0.7222 -0.2306  0.7175
   48TPM     C339838  10.915   1.030  14.568  0.3626 -0.1826  0.2233
   48TPM     C439839  10.858   0.906  14.565 -0.0572  0.0164 -0.5120
   48TPM     S139840  10.949   0.795  14.457 -0.0306  0.1599 -0.6386
   49BDTP    C139841  10.285   0.704  14.726 -0.0381  0.1596  0.8463
   49BDTP    C239842  10.370   0.608  14.789  0.0474  0.0964  0.6368
   49BDTP    C339843  10.509   0.617  14.786  0.0455  0.0506  0.3829
   49BDTP    C439844  10.566   0.725  14.718 -0.0455  0.0677  0.3327
   49BDTP    C539845  10.482   0.821  14.655 -0.1314  0.1308  0.5422
   49BDTP    C639846  10.343   0.812  14.658 -0.1290  0.1766  0.7961
   49BDTP    C739847  10.707   0.755  14.701 -0.0656  0.0284  0.0862
   49BDTP    C839848  10.732   0.867  14.629 -0.1612  0.0586  0.1001
   49BDTP    S139849  10.580   0.951  14.573 -0.2391  0.1410  0.4277
   49BDTP    C939850  10.145   0.673  14.743 -0.0181  0.1988  1.0929
   49BDTP   C1039851  10.120   0.561  14.815  0.0775  0.1686  1.0789
   49BDTP    S239852  10.271   0.478  14.871  0.1555  0.0862  0.7514
   50FTM     S139853  10.590   0.550  15.053 -0.1638 -0.3290  0.2210
   50FTM     C139854  10.654   0.382  15.069  0.3023 -0.2115 -0.3296
   50FTM     C239855  10.673   0.328  14.946  0.2496  0.1679 -0.5078
   50FTM     C339856  10.640   0.411  14.834 -0.1478  0.3850 -0.2335
   50FTM     C439857  10.594   0.533  14.873 -0.4074  0.1647  0.1676
   50FTM     F139858  10.721   0.199  14.927  0.5572  0.3410 -0.9297
   50FTM     C539859  10.675   0.326  15.203  1.2419  0.0458 -0.1724
   50FTM     C639860  10.796   0.309  15.275 -0.1874 -0.7892 -1.6179
   50FTM     C739861  10.915   0.374  15.211 -0.1825 -0.9043  0.9862
   50FTM     C839862  10.934   0.526  15.228  0.2548  0.9428 -0.1110
   50FTM     C939863  11.048   0.580  15.147 -1.8684 -0.1040  0.3027
   50FTM    C1039864  11.067   0.551  14.989 -0.0483  0.3546  0.0071
   50FTM    C1139865  10.793   0.288  15.429  1.2763  0.4107 -1.0005
   50FTM    C1239866  10.669   0.217  15.509  0.6765  0.2678  0.6851
   51FTM     S139867  10.230   0.925  14.404 -0.3873  0.2858 -0.3605
   51FTM     C139868  10.178   1.097  14.416 -1.1140  0.0260  0.4855
   51FTM     C239869  10.189   1.140  14.544 -0.8705 -0.4297  0.6225
   51FTM     C339870  10.237   1.044  14.639 -0.1221 -0.6005  0.0907
   51FTM     C439871  10.264   0.924  14.582  0.2190 -0.2646 -0.4718
   51FTM     F139872  10.156   1.269  14.583 -1.3113 -0.7193  1.2374
   51FTM     C539873  10.115   1.168  14.306 -0.4743 -0.5093  0.5954
   51FTM     C639874  10.099   1.317  14.273  1.0149  0.3656  1.9217
   51FTM     C739875  10.233   1.381  14.272  0.3739 -0.0258  0.8351
   51FTM     C839876  10.253   1.531  14.301  0.5579  0.1672  0.5261
   51FTM     C939877  10.189   1.626  14.192 -0.3545  0.8694 -0.3771
   51FTM    C1039878  10.140   1.747  14.250  1.3033 -0.7633  0.3814
   51FTM    C1139879   9.999   1.351  14.151 -0.8900  0.7391  1.1659
   51FTM    C1239880  10.031   1.300  14.006 -0.2312 -1.6003  1.0924
   52TPM     C139881   9.984   0.527  14.862  0.3140  0.8081  0.5568
   52TPM     C239882   9.953   0.404  14.913  0.3841  0.5524  0.0007
   52TPM     C339883   9.817   0.393  14.959  0.2232  0.0790 -0.5744
   52TPM     C439884   9.744   0.507  14.942  0.0308 -0.0262 -0.4566
   52TPM     S139885   9.842   0.638  14.867  0.0377  0.4683  0.3962
   53BDD     C139886   9.348   0.517  14.937  0.0342 -0.2668 -0.3685
   53BDD     C239887   9.379   0.490  15.068  0.1292 -0.0466 -0.3433
   53BDD     C339888   9.521   0.488  15.095  0.1442  0.1718 -0.4053
   53BDD     C439889   9.598   0.514  14.984  0.0608  0.1150 -0.4769
   53BDD     S139890   9.496   0.543  14.839 -0.0429 -0.2159 -0.4716
   53BDD     C539891   9.278   0.464  15.173  0.2096 -0.0288 -0.2613
   53BDD     C639892   9.577   0.460  15.229  0.2413  0.4290 -0.3912
   53BDD     O139893   9.700   0.459  15.252  0.2544  0.6174 -0.4447
   53BDD     O239894   9.155   0.465  15.150  0.1965 -0.2171 -0.2078
   53BDD     C739895   9.476   0.435  15.334  0.3211  0.4468 -0.3092
   53BDD     C839896   9.333   0.436  15.307  0.3059  0.2284 -0.2472
   53BDD     C939897   9.257   0.410  15.417  0.3898  0.2853 -0.1756
   53BDD     S239898   9.359   0.381  15.562  0.4933  0.6162 -0.1809
   53BDD    C1039899   9.507   0.407  15.464  0.4163  0.6670 -0.2840
   53BDD    C1139900   9.628   0.411  15.548 -0.4913 -0.3831 -0.5635
   53BDD    C1239901   9.710   0.282  15.548  1.1608 -0.4083  0.7791
   53BDD    C1339902   9.844   0.277  15.610 -0.0390 -0.3880  0.4638
   53BDD    C1439903   9.944   0.349  15.501 -0.3182 -0.0443  0.2252
   53BDD    C1539904  10.070   0.264  15.446  0.3414 -2.1584 -1.4751
   53BDD    C1639905  10.165   0.213  15.555  1.7896  0.1222 -1.0482
   53BDD    C1739906   9.647   0.145  15.593 -0.3602 -0.3675  0.4284
   53BDD    C1839907   9.553   0.067  15.489  0.8354 -0.9827  0.1271
   53BDD    C1939908   9.102   0.377  15.460 -0.0316  0.1921  0.4800
   53BDD    C2039909   9.029   0.257  15.404  0.1749 -0.4258  1.6158
   53BDD    C2139910   8.884   0.257  15.471  1.6657  0.1002 -0.1835
   53BDD    C2239911   8.891   0.246  15.631 -0.0514 -0.3897  0.5159
   53BDD    C2339912   8.767   0.190  15.688 -0.9460  0.3918 -0.3188
   53BDD    C2439913   8.670   0.298  15.721 -0.1941 -0.5734 -0.3334
   53BDD    C2539914   9.049   0.200  15.260  0.0359  1.4775 -0.0664
   53BDD    C2639915   9.044   0.053  15.257  0.7247  0.7586  0.2836
   54TPM     C139916   9.224   0.503  14.857  0.1457  0.2895  0.2557
   54TPM     C239917   9.244   0.433  14.741  0.4072  1.0120 -0.1452
   54TPM     C339918   9.123   0.381  14.683  0.5999  0.8832 -0.4358
   54TPM     C439919   9.011   0.411  14.755  0.4855  0.0623 -0.2564
   54TPM     S139920   9.049   0.508  14.902  0.1221 -0.6169  0.2976
   55BDTP    C139921   8.389   0.382  14.705  0.0007 -0.4688 -0.1139
   55BDTP    C239922   8.424   0.244  14.705  0.0985 -0.4438 -0.2405
   55BDTP    C339923   8.556   0.201  14.711  0.1349 -0.3551 -0.3902
   55BDTP    C439924   8.658   0.298  14.718  0.0722 -0.2877 -0.4167
   55BDTP    C539925   8.622   0.436  14.718 -0.0255 -0.3127 -0.2902
   55BDTP    C639926   8.490   0.479  14.712 -0.0620 -0.4014 -0.1404
   55BDTP    C739927   8.801   0.278  14.725  0.0935 -0.1913 -0.5615
   55BDTP    C839928   8.873   0.392  14.730  0.0174 -0.1434 -0.5499
   55BDTP    S139929   8.770   0.542  14.727 -0.0918 -0.2136 -0.3540
   55BDTP    C939930   8.245   0.403  14.698 -0.0205 -0.5652  0.0309
   55BDTP   C1039931   8.173   0.289  14.693  0.0553 -0.6131  0.0193
   55BDTP    S239932   8.276   0.139  14.696  0.1645 -0.5429 -0.1766
   56FTM     S139933   8.569  -0.060  14.840 -0.0155  0.2587 -0.7826
   56FTM     C139934   8.615  -0.193  14.728 -0.0438 -0.0459 -0.4359
   56FTM     C239935   8.635  -0.144  14.603  0.0927 -0.3569 -0.5385
   56FTM     C339936   8.617  -0.002  14.587  0.2248 -0.3765 -0.8848
   56FTM     C439937   8.581   0.058  14.704  0.1880 -0.0707 -1.0527
   56FTM     F139938   8.672  -0.223  14.496  0.1061 -0.6421 -0.3251
   56FTM     C539939   8.625  -0.321  14.790 -0.0076 -0.6188  0.2362
   56FTM     C639940   8.730  -0.416  14.766  0.1024  1.0744  0.3781
   56FTM     C739941   8.680  -0.555  14.704 -0.8570  0.7951 -0.5844
   56FTM     C839942   8.622  -0.535  14.570  0.1918  0.4903  1.0662
   56FTM     C939943   8.617  -0.670  14.507  0.2387 -0.4690 -0.8211
   56FTM    C1039944   8.679  -0.700  14.386  0.2011  0.0626  1.0803
   56FTM    C1139945   8.873  -0.371  14.776  0.2153 -0.2135  0.8116
   56FTM    C1239946   8.970  -0.481  14.795  0.0538 -0.0505 -0.3382
   57FTM     S139947   8.518   0.725  14.568  0.2444 -0.0611  0.5574
   57FTM     C139948   8.408   0.859  14.614  0.1839  0.0283  0.1608
   57FTM     C239949   8.328   0.820  14.716  0.1025  0.2469  0.1813
   57FTM     C339950   8.347   0.686  14.764  0.0820  0.3555  0.4990
   57FTM     C439951   8.445   0.621  14.696  0.1506  0.2156  0.7292
   57FTM     F139952   8.232   0.903  14.773  0.0412  0.3617 -0.0863
   57FTM     C539953   8.416   0.986  14.527  0.2071 -0.4410 -1.4602
   57FTM     C639954   8.399   0.973  14.372 -0.5568  0.2883 -0.6745
   57FTM     C739955   8.392   1.122  14.335 -0.2529 -0.9253 -0.1576
   57FTM     C839956   8.266   1.203  14.360 -0.3465 -0.1482  0.2675
   57FTM     C939957   8.281   1.345  14.412 -0.6985 -0.4861  1.0683
   57FTM    C1039958   8.182   1.453  14.347  0.5848  0.3405  1.4549
   57FTM    C1139959   8.487   0.889  14.286  0.2082  1.3805 -0.1059
   57FTM    C1239960   8.616   0.955  14.241  0.3672  0.3556  0.4523
   58TPM     C139961   8.040   0.292  14.637 -0.4082 -0.1419 -0.7942
   58TPM     C239962   7.985   0.386  14.555 -0.3533 -0.3493 -1.0702
   58TPM     C339963   7.866   0.341  14.487 -0.4269 -0.4509 -0.8763
   58TPM     C439964   7.830   0.214  14.518 -0.5375 -0.3208 -0.4525
   58TPM     S139965   7.944   0.139  14.635 -0.5581 -0.0581 -0.2640
   59BDD     C139966   7.723  -0.065  14.268  0.8097  0.4129 -0.2271
   59BDD     C239967   7.616   0.022  14.272  0.6964  0.2708 -0.1495
   59BDD     C339968   7.636   0.133  14.363  0.5691  0.2403 -0.0837
   59BDD     C439969   7.757   0.130  14.427  0.5872  0.3596 -0.1122
   59BDD     S139970   7.854  -0.012  14.378  0.7648  0.5181 -0.2232
   59BDD     C539971   7.493   0.005  14.192  0.7012  0.1583 -0.1329
   59BDD     C639972   7.534   0.239  14.383  0.4340  0.0942  0.0051
   59BDD     O139973   7.551   0.335  14.461  0.3242  0.0679  0.0618
   59BDD     O239974   7.476  -0.092  14.114  0.8110  0.1848 -0.1895
   59BDD     C739975   7.411   0.221  14.303  0.4387 -0.0186  0.0216
   59BDD     C839976   7.391   0.110  14.212  0.5660  0.0119 -0.0442
   59BDD     C939977   7.271   0.113  14.148  0.5480 -0.1073 -0.0156
   59BDD     S239978   7.173   0.255  14.197  0.3703 -0.2657  0.0954
   59BDD    C1039979   7.305   0.308  14.307  0.3253 -0.1607  0.0994
   59BDD    C1139980   7.271   0.436  14.377  0.4955 -0.4702  0.2333
   59BDD    C1239981   7.198   0.432  14.508  0.8577  1.1470  0.3488
   59BDD    C1339982   7.270   0.407  14.636  0.7876  0.4298  0.4236
   59BDD    C1439983   7.251   0.497  14.759 -0.1664  1.0226  0.4733
   59BDD    C1539984   7.315   0.429  14.886 -0.4710  0.8454  0.0334
   59BDD    C1639985   7.458   0.477  14.901 -1.0067 -0.0061 -0.4238
   59BDD    C1739986   7.054   0.373  14.503  0.9363 -1.0446  0.5907
   59BDD    C1839987   7.029   0.230  14.552 -0.5192 -0.0562  0.6284
   59BDD    C1939988   7.201   0.010  14.057  0.2804  0.4749  0.9168
   59BDD    C2039989   7.102  -0.077  14.142  0.0598  0.2684  0.7508
   59BDD    C2139990   7.153  -0.202  14.234  0.3049  0.1962  0.7407
   59BDD    C2239991   7.158  -0.176  14.387  0.0787  0.4266 -0.9239
   59BDD    C2339992   7.034  -0.182  14.473 -1.1223 -0.8413 -1.2724
   59BDD    C2439993   6.958  -0.308  14.482  1.7944  0.9262  0.6813
   59BDD    C2539994   6.966  -0.008  14.145  1.0904  0.3409 -1.1638
   59BDD    C2639995   6.858  -0.071  14.061 -1.5063 -0.0168 -0.8915
   60TPM     C139996   7.749  -0.203  14.220 -0.1349 -0.1650 -0.2076
   60TPM     C239997   7.806  -0.296  14.302 -0.2359 -0.5984 -0.6202
   60TPM     C339998   7.826  -0.424  14.239 -0.3575 -0.3378 -1.2043
   60TPM     C439999   7.784  -0.429  14.109 -0.3491  0.2943 -1.2370
   60TPM     S140000   7.715  -0.271  14.056 -0.1860  0.6121 -0.5272
  11.40000  11.40000  11.40000
