24P3HT after 800ns
33792
    1HTM     C1    1   8.753   0.354   9.086  0.3262  0.1974 -0.2043
    1HTM     C2    2   8.837   0.246   9.091  0.1500  0.0535 -0.3333
    1HTM     C3    3   8.814   0.161   9.205  0.1545  0.0722 -0.3188
    1HTM     C4    4   8.714   0.203   9.286  0.3340  0.2303 -0.1776
    1HTM     S1    5   8.639   0.356   9.225  0.5132  0.3690 -0.0524
    2TAL     C5    6   8.918   0.049   9.217  1.7808  0.9267  0.9926
    2TAL     C6    7   8.915  -0.087   9.120 -0.3380 -0.1083 -0.3502
    2TAL     C7    8   8.774  -0.137   9.081 -0.3794 -0.5756 -1.2038
    2TAL     C8    9   8.717  -0.213   9.207 -0.5181 -0.9588  0.0696
    2TAL     C9   10   8.581  -0.274   9.159  0.1240 -0.5549 -1.1674
    2TAL    C10   11   8.468  -0.178   9.137 -0.0283  0.2796  0.7845
    3HTM    C11   12   8.665   0.157   9.409 -0.5464  0.3710 -0.0984
    3HTM    C12   13   8.608   0.033   9.422  0.0808  0.0776 -0.1099
    3HTM    C13   14   8.552   0.008   9.552  0.6602 -0.4223  0.0536
    3HTM    C14   15   8.566   0.113   9.638  0.4749 -0.5101  0.1895
    3HTM     S2   16   8.651   0.252   9.561 -0.4530  0.0360  0.1218
    4TAL    C15   17   8.494  -0.126   9.569 -0.3623  0.7480  1.3116
    4TAL    C16   18   8.347  -0.132   9.601  0.9741 -0.7776  0.3135
    4TAL    C17   19   8.303  -0.281   9.600 -0.1442 -0.5140 -0.6343
    4TAL    C18   20   8.156  -0.286   9.563  0.6277  0.5849 -0.4058
    4TAL    C19   21   8.092  -0.428   9.550 -0.8003  0.1369  0.9251
    4TAL    C20   22   7.957  -0.432   9.480 -0.0234  0.5296 -0.4291
    5HTM    C21   23   8.516   0.129   9.764 -0.0548 -0.1581 -0.0632
    5HTM    C22   24   8.405   0.192   9.811 -0.3309 -0.6344 -0.0656
    5HTM    C23   25   8.390   0.186   9.954 -0.3405 -0.7512 -0.0717
    5HTM    C24   26   8.490   0.118  10.016 -0.0710 -0.3640 -0.0739
    5HTM     S3   27   8.612   0.056   9.899  0.2173  0.1824 -0.0685
    6TAL    C25   28   8.258   0.257  10.003  0.1187 -0.0359  0.6283
    6TAL    C26   29   8.201   0.275  10.144  0.3474 -0.2400  0.4289
    6TAL    C27   30   8.056   0.338  10.131  0.0244  0.5959  0.1323
    6TAL    C28   31   7.968   0.343  10.250 -0.7419 -1.3203 -0.6340
    6TAL    C29   32   7.868   0.467  10.234  0.6291 -0.3118  0.1000
    6TAL    C30   33   7.779   0.487  10.362 -0.1199  0.5351 -0.7295
    7HTM    C31   34   8.531   0.085  10.148  0.0356  0.7780  0.0489
    7HTM    C32   35   8.440   0.078  10.250 -0.1376  0.6382 -0.1139
    7HTM    C33   36   8.500   0.073  10.381 -0.3529  0.2011 -0.0274
    7HTM    C34   37   8.636   0.076  10.379 -0.3442  0.0076  0.2013
    7HTM     S4   38   8.700   0.086  10.210 -0.0608  0.3652  0.3262
    8TAL    C35   39   8.413   0.096  10.510 -0.6991 -0.9970 -0.1420
    8TAL    C36   40   8.267   0.118  10.512 -0.3490  0.8984  0.4415
    8TAL    C37   41   8.197   0.162  10.637  0.6265 -0.1398  0.0396
    8TAL    C38   42   8.063   0.215  10.588 -0.3439 -0.8004 -1.2929
    8TAL    C39   43   7.953   0.223  10.700  0.9668 -0.7588 -0.6427
    8TAL    C40   44   7.824   0.295  10.658 -0.0088 -0.9552  0.7749
    9HTM    C41   45   8.720   0.036  10.483  0.1710 -0.0014 -0.2466
    9HTM    C42   46   8.777   0.110  10.581 -0.1438  0.0776 -0.1224
    9HTM    C43   47   8.836   0.032  10.687 -0.2615  0.1597  0.0066
    9HTM    C44   48   8.825  -0.103  10.668 -0.0364  0.1431 -0.0193
    9HTM     S5   49   8.737  -0.141  10.515  0.3443  0.0220 -0.2100
   10TAL    C45   50   8.929   0.097  10.785 -0.4094  0.5611  0.4701
   10TAL    C46   51   8.893   0.225  10.843 -0.5177  0.0532 -1.1004
   10TAL    C47   52   9.004   0.260  10.938 -0.0242 -0.2510 -0.8221
   10TAL    C48   53   8.986   0.391  11.022  1.2538 -0.3288 -0.0790
   10TAL    C49   54   9.070   0.402  11.144 -0.6481  0.0316 -0.5388
   10TAL    C50   55   9.010   0.502  11.252 -0.5192  0.1723  0.4929
   11HTM    C51   56   8.848  -0.214  10.757 -0.2403 -0.7191 -0.3251
   11HTM    C52   57   8.906  -0.333  10.724 -0.8693 -1.0304 -0.3281
   11HTM    C53   58   8.929  -0.419  10.837 -0.7868 -0.9074 -0.2502
   11HTM    C54   59   8.889  -0.366  10.956 -0.0941 -0.5025 -0.1879
   11HTM     S6   60   8.819  -0.202  10.935  0.5114 -0.2429 -0.2230
   12TAL    C55   61   9.007  -0.552  10.816 -0.0970  0.6773 -0.5582
   12TAL    C56   62   9.074  -0.585  10.690  0.8543  0.1179  0.6659
   12TAL    C57   63   9.156  -0.708  10.707  1.1357  0.3683 -0.6125
   12TAL    C58   64   9.230  -0.726  10.578  0.9735  0.3591 -0.5890
   12TAL    C59   65   9.333  -0.828  10.615  0.1581 -0.3959  1.2050
   12TAL    C60   66   9.436  -0.810  10.507 -0.8204 -0.4951 -0.3198
   13HTM    C61   67   8.907  -0.410  11.094  0.0695  0.3680  0.6498
   13HTM    C62   68   8.934  -0.323  11.196 -1.1761 -0.0498  1.3866
   13HTM    C63   69   8.974  -0.387  11.318 -1.6539 -0.5367  1.2943
   13HTM    C64   70   8.978  -0.523  11.310 -0.7727 -0.4897  0.4870
   13HTM     S7   71   8.930  -0.581  11.146  0.7412  0.1777 -0.2248
   14TAL    C65   72   9.037  -0.287  11.421  0.7870  0.7732 -0.6687
   14TAL    C66   73   9.188  -0.256  11.437  0.5539  0.4953  0.3507
   14TAL    C67   74   9.269  -0.222  11.313  0.7867  0.2283  0.4152
   14TAL    C68   75   9.207  -0.105  11.239 -0.1043 -0.9517  0.9485
   14TAL    C69   76   9.300  -0.024  11.140 -0.5624  0.8823 -0.4129
   14TAL    C70   77   9.444   0.012  11.191  0.2854  0.3909 -0.1239
   15HTM    C71   78   9.005  -0.612  11.412  0.1004 -0.7745  0.4113
   15HTM    C72   79   8.911  -0.689  11.475  0.2575 -0.7470  0.6837
   15HTM    C73   80   8.950  -0.732  11.606  0.3994 -0.3047  0.7899
   15HTM    C74   81   9.073  -0.688  11.645  0.3504  0.0049  0.5983
   15HTM     S8   82   9.151  -0.588  11.516  0.1200 -0.2399  0.2664
   16TAL    C75   83   8.845  -0.790  11.701 -0.1206 -0.1082 -0.1008
   16TAL    C76   84   8.842  -0.944  11.708 -0.1109 -0.0548  0.1767
   16TAL    C77   85   8.715  -1.030  11.715  0.7586 -0.0517  0.6725
   16TAL    C78   86   8.591  -0.971  11.635 -1.1830  0.3085 -0.0750
   16TAL    C79   87   8.606  -0.954  11.482 -0.0117  0.1372 -0.3350
   16TAL    C80   88   8.466  -0.926  11.409  0.3889 -0.0568 -0.2224
   17HTM    C81   89   9.158  -0.698  11.760 -0.0188  0.0795 -0.7810
   17HTM    C82   90   9.154  -0.785  11.865 -0.5977 -0.2401 -1.0570
   17HTM    C83   91   9.243  -0.750  11.973 -0.9553 -0.7339 -0.5891
   17HTM    C84   92   9.315  -0.636  11.950 -0.6487 -0.7906  0.0435
   17HTM     S9   93   9.276  -0.564  11.789  0.1210 -0.2205  0.0980
   18TAL    C85   94   9.251  -0.848  12.090  0.8055  0.6584  0.4421
   18TAL    C86   95   9.119  -0.920  12.153 -1.0603  0.4267  0.6967
   18TAL    C87   96   9.067  -0.855  12.283  0.4853  0.8466 -0.5789
   18TAL    C88   97   9.139  -0.871  12.421  0.5206 -0.6154  0.8443
   18TAL    C89   98   9.071  -0.781  12.533 -0.2611 -0.2105 -0.2173
   18TAL    C90   99   9.154  -0.745  12.661 -0.0273  1.4482  0.4227
   19HTM    C91  100   9.420  -0.566  12.033 -0.1370 -0.3682 -0.5474
   19HTM    C92  101   9.435  -0.432  12.051 -0.7250 -0.3328 -0.2749
   19HTM    C93  102   9.537  -0.397  12.148 -1.0884 -0.0837  0.0250
   19HTM    C94  103   9.599  -0.505  12.203 -0.7778  0.0705 -0.0188
   19HTM    S10  104   9.534  -0.660  12.137  0.0041 -0.0877 -0.4456
   20TAL    C95  105   9.582  -0.254  12.170 -0.2337  0.0541 -0.4690
   20TAL    C96  106   9.493  -0.127  12.194 -0.1458  0.6620  0.0289
   20TAL    C97  107   9.592  -0.010  12.211  0.3386 -0.1221 -0.6001
   20TAL    C98  108   9.658   0.007  12.348  0.0204 -0.6878  0.7968
   20TAL    C99  109   9.712   0.159  12.368  0.3040  0.8288 -0.5672
   20TAL   C100  110   9.729   0.203  12.514  0.2244  0.2014  0.8778
   21HTM   C101  111   9.715  -0.515  12.278 -0.0206  0.5652 -0.0288
   21HTM   C102  112   9.728  -0.510  12.414 -0.1671  0.6490 -0.0184
   21HTM   C103  113   9.864  -0.513  12.460 -0.2253  0.4320  0.1412
   21HTM   C104  114   9.956  -0.521  12.359 -0.1233  0.1829  0.2525
   21HTM    S11  115   9.876  -0.525  12.198  0.0558  0.2032  0.1637
   22TAL   C105  116   9.879  -0.537  12.605  0.0654 -0.6162 -0.4357
   22TAL   C106  117   9.783  -0.597  12.697 -0.8277 -0.0006  0.2917
   22TAL   C107  118   9.765  -0.747  12.681  0.5501  0.6307  0.0109
   22TAL   C108  119   9.620  -0.803  12.682  0.5935 -0.5556  0.3516
   22TAL   C109  120   9.527  -0.761  12.561 -0.3201  0.1831  0.5571
   22TAL   C110  121   9.527  -0.873  12.458 -0.3391 -0.0281  0.0890
   23HTM   C111  122  10.104  -0.539  12.358  0.5587  0.4025 -0.8681
   23HTM   C112  123  10.182  -0.590  12.259  0.9304  0.6466 -0.7057
   23HTM   C113  124  10.323  -0.587  12.288  0.8100  0.3505 -0.0645
   23HTM   C114  125  10.352  -0.534  12.410  0.3466 -0.1197  0.2622
   23HTM    S12  126  10.203  -0.483  12.498  0.0237 -0.2253 -0.2186
   24TAL   C115  127  10.418  -0.650  12.197 -0.0780 -0.5883  0.9439
   24TAL   C116  128  10.374  -0.776  12.115 -0.0306  0.2882 -0.7668
   24TAL   C117  129  10.320  -0.884  12.207  0.4439  0.4558 -0.4945
   24TAL   C118  130  10.391  -0.931  12.338  0.5697 -0.3381  0.4020
   24TAL   C119  131  10.541  -0.948  12.355  0.7309  0.3659 -0.5436
   24TAL   C120  132  10.578  -1.024  12.472 -0.2068  0.5931 -0.0230
   25HTM   C121  133  10.473  -0.528  12.488  0.0960  0.2856 -0.1761
   25HTM   C122  134  10.601  -0.523  12.440  0.0824  0.0920 -0.2337
   25HTM   C123  135  10.701  -0.520  12.543  0.1425 -0.2680 -0.2800
   25HTM   C124  136  10.651  -0.523  12.669  0.2020 -0.3490 -0.2576
   25HTM    S13  137  10.470  -0.529  12.668  0.1866  0.0262 -0.1758
   26TAL   C125  138  10.849  -0.483  12.485  1.1187 -1.0194 -0.0538
   26TAL   C126  139  10.977  -0.460  12.562  0.2268 -0.6722 -1.2391
   26TAL   C127  140  11.015  -0.305  12.548  0.4123  0.8283 -0.9613
   26TAL   C128  141  11.137  -0.248  12.628  0.8969 -0.3078 -0.8659
   26TAL   C129  142  11.163  -0.101  12.617 -0.1074  0.4288 -0.0697
   26TAL   C130  143  11.302  -0.074  12.637 -0.8139 -0.1300 -1.2089
   27HTM   C131  144  10.724  -0.517  12.789  0.1169 -0.5715  0.0874
   27HTM   C132  145  10.724  -0.420  12.885 -0.1968 -0.8860  0.4109
   27HTM   C133  146  10.810  -0.449  12.997 -0.3939 -1.1518  0.4960
   27HTM   C134  147  10.876  -0.568  12.986 -0.2305 -1.0400  0.2373
   27HTM    S14  148  10.834  -0.653  12.833  0.1882 -0.5864 -0.1367
   28TAL   C135  149  10.809  -0.351  13.105  0.2789 -1.6929 -0.3021
   28TAL   C136  150  10.912  -0.250  13.130 -0.2644 -0.1324 -1.0995
   28TAL   C137  151  10.953  -0.154  13.019 -0.2773 -0.2711 -0.3450
   28TAL   C138  152  10.862  -0.040  12.973  0.0997 -0.1099  0.9933
   28TAL   C139  153  10.789   0.051  13.066 -0.8707  0.8112  0.0481
   28TAL   C140  154  10.652   0.092  13.015 -0.1620 -0.5134 -0.1180
   29HTM   C141  155  10.960  -0.631  13.089 -0.6031  0.0787 -0.1425
   29HTM   C142  156  11.087  -0.676  13.071 -0.4490  0.5755 -0.3334
   29HTM   C143  157  11.152  -0.717  13.192 -0.0308  1.0173 -0.4039
   29HTM   C144  158  11.075  -0.702  13.304  0.1338  0.8573 -0.2669
   29HTM    S15  159  10.912  -0.636  13.263 -0.2292  0.1309 -0.0364
   30TAL   C145  160  11.294  -0.753  13.188 -0.6371 -1.1753 -0.3406
   30TAL   C146  161  11.325  -0.901  13.168 -0.3878  1.8347  0.7204
   30TAL   C147  162  11.399  -0.975  13.281 -0.1563 -0.1463 -0.5085
   30TAL   C148  163  11.543  -0.920  13.309  0.2139  0.3749  0.7534
   30TAL   C149  164  11.637  -0.982  13.405 -0.8753 -0.4291  0.7327
   30TAL   C150  165  11.603  -1.026  13.551  0.2033  0.3418  0.6942
   31HTM   C151  166  11.094  -0.754  13.448 -0.0052 -0.5280  0.0137
   31HTM   C152  167  11.008  -0.809  13.538  0.1383 -0.7980 -0.0111
   31HTM   C153  168  11.070  -0.852  13.660  0.2475 -0.6628 -0.0190
   31HTM   C154  169  11.205  -0.829  13.664  0.1873 -0.2903 -0.0002
   31HTM    S16  170  11.263  -0.752  13.512 -0.0135 -0.0790  0.0291
   32TAL   C155  171  10.989  -0.883  13.795 -0.6923 -0.2542 -0.0554
   32TAL   C156  172  10.839  -0.925  13.777 -0.1160 -0.2471  0.1391
   32TAL   C157  173  10.754  -0.918  13.908  0.2347 -0.1722 -0.1939
   32TAL   C158  174  10.721  -0.786  13.961  0.9766  0.8432 -0.5847
   32TAL   C159  175  10.582  -0.799  14.026  0.1296  0.3306  0.6561
   32TAL   C160  176  10.573  -0.698  14.134 -0.0991  0.2511 -0.4612
   33HTM   C161  177  11.305  -0.837  13.777  0.0588 -0.7420  0.3273
   33HTM   C162  178  11.397  -0.924  13.826 -0.4399 -0.9725  0.8793
   33HTM   C163  179  11.443  -0.892  13.959 -0.3354 -0.4547  0.7212
   33HTM   C164  180  11.387  -0.780  14.011  0.2430  0.1716  0.0488
   33HTM    S17  181  11.269  -0.705  13.896  0.7042  0.1547 -0.4407
   34TAL   C165  182  11.539  -0.986  14.026  0.9145  1.2893 -0.0155
   34TAL   C166  183  11.503  -1.140  14.009 -0.6640 -0.8381 -0.1107
   34TAL   C167  184  11.590  -1.226  14.094  0.0443 -0.0468 -1.2494
   34TAL   C168  185  11.733  -1.263  14.043  1.0935 -0.5737 -0.3590
   34TAL   C169  186  11.740  -1.337  13.910 -0.0231 -0.2090 -0.6315
   34TAL   C170  187  11.886  -1.361  13.858  0.4593 -0.6346 -0.3231
   35HTM   C171  188  11.418  -0.706  14.136  1.0936  0.0099 -0.2611
   35HTM   C172  189  11.460  -0.755  14.257  0.0085 -0.4523 -0.0476
   35HTM   C173  190  11.451  -0.659  14.364 -1.1339 -0.9201  0.3108
   35HTM   C174  191  11.403  -0.538  14.325 -0.9197 -0.8151  0.3706
   35HTM    S18  192  11.365  -0.535  14.149  0.7543 -0.1115 -0.0243
   36TAL   C175  193  11.465  -0.711  14.504 -0.3692  0.6620 -1.0791
   36TAL   C176  194  11.550  -0.841  14.538 -0.0866 -0.4309  0.1295
   36TAL   C177  195  11.472  -0.924  14.651  0.2199 -0.2354 -0.7676
   36TAL   C178  196  11.360  -1.019  14.614  0.2909  0.6096  0.5180
   36TAL   C179  197  11.308  -1.031  14.473 -0.7334  0.0358 -0.3127
   36TAL   C180  198  11.204  -1.142  14.453  0.7260  0.5745 -0.6631
   37HTM   C181  199  11.370  -0.414  14.396 -0.5498 -0.1974 -0.3288
   37HTM   C182  200  11.272  -0.391  14.488 -0.7406  0.1595 -0.6130
   37HTM   C183  201  11.258  -0.252  14.523 -0.2211  0.1998 -0.5358
   37HTM   C184  202  11.344  -0.169  14.458  0.3659 -0.1266 -0.1929
   37HTM    S19  203  11.451  -0.261  14.346  0.3076 -0.5125  0.0615
   38TAL   C185  204  11.150  -0.198  14.619 -1.0738 -0.0562  0.2654
   38TAL   C186  205  11.027  -0.267  14.669  0.3319 -0.2022 -0.2848
   38TAL   C187  206  10.953  -0.358  14.579  0.4747 -0.4825 -0.3053
   38TAL   C188  207  10.833  -0.433  14.634 -0.1905 -1.2559  0.9251
   38TAL   C189  208  10.754  -0.524  14.537  0.3433  0.8035 -0.1028
   38TAL   C190  209  10.656  -0.445  14.444  0.1115 -0.2105 -0.0577
   39HTM   C191  210  11.354  -0.029  14.445  0.4068  0.2217 -0.1136
   39HTM   C192  211  11.254   0.063  14.436  0.4229  0.2592  0.0763
   39HTM   C193  212  11.297   0.192  14.389  0.3578  0.2027 -0.1403
   39HTM   C194  213  11.431   0.198  14.362  0.2921  0.1220 -0.4950
   39HTM    S20  214  11.512   0.041  14.394  0.3074  0.1115 -0.5842
   40TAL   C195  215  11.199   0.306  14.355 -0.3618  0.7411 -0.1685
   40TAL   C196  216  11.045   0.298  14.374  0.3149 -0.3693  0.1134
   40TAL   C197  217  10.967   0.243  14.502 -0.4360 -0.6020  0.6296
   40TAL   C198  218  10.943   0.352  14.593 -1.4271  0.8082  0.8127
   40TAL   C199  219  10.818   0.426  14.549  1.5152 -0.3619  1.1573
   40TAL   C200  220  10.767   0.543  14.637 -0.6250  0.0881 -0.2866
   41HTM   C201  221  11.506   0.298  14.304 -0.6656  0.3008 -0.0031
   41HTM   C202  222  11.574   0.404  14.355 -1.0174  0.5752 -0.0964
   41HTM   C203  223  11.631   0.491  14.255 -0.7484  0.3120 -0.1736
   41HTM   C204  224  11.607   0.450  14.127 -0.1915 -0.1632 -0.1390
   41HTM    S21  225  11.509   0.299  14.123  0.0382 -0.3162 -0.0054
   42TAL   C205  226  11.698   0.627  14.301 -0.0862  0.2782 -0.4022
   42TAL   C206  227  11.630   0.728  14.405 -0.4207  0.9891  1.1616
   42TAL   C207  228  11.505   0.801  14.364  0.7258  0.1669 -0.4924
   42TAL   C208  229  11.381   0.714  14.405  0.0579 -0.3356  0.4370
   42TAL   C209  230  11.344   0.698  14.551 -0.0376  0.5461  0.8659
   42TAL   C210  231  11.217   0.617  14.573 -1.0611  0.1811 -0.5583
   43HTM   C211  232  11.641   0.508  13.999  0.1034 -0.3350 -0.1054
   43HTM   C212  233  11.600   0.468  13.875 -0.1124 -0.1443 -0.0952
   43HTM   C213  234  11.679   0.522  13.768 -0.4090  0.1654 -0.1631
   43HTM   C214  235  11.781   0.602  13.809 -0.4195  0.2110 -0.2249
   43HTM    S22  236  11.785   0.617  13.989 -0.0526 -0.1366 -0.2022
   44TAL   C215  237  11.640   0.496  13.619  0.6638 -0.2700 -0.2866
   44TAL   C216  238  11.497   0.531  13.592  0.0064  0.1443 -0.5890
   44TAL   C217  239  11.475   0.501  13.449  0.3059  0.6780  0.6657
   44TAL   C218  240  11.369   0.601  13.411  0.5595  0.2262  0.2605
   44TAL   C219  241  11.317   0.594  13.270  0.0340  0.0158  0.7652
   44TAL   C220  242  11.254   0.715  13.210  0.0062 -0.3098  1.0084
   45HTM   C221  243  11.868   0.695  13.733  0.1349 -0.0297  0.2968
   45HTM   C222  244  11.992   0.739  13.771  0.3415  0.0369 -0.4154
   45HTM   C223  245  12.046   0.841  13.686 -0.2225  0.0961 -0.7144
   45HTM   C224  246  11.965   0.876  13.582 -0.8591  0.0747 -0.2302
   45HTM    S23  247  11.811   0.781  13.585 -0.7953 -0.0228  0.6479
   46TAL   C225  248  12.178   0.916  13.723  1.3400  0.0802 -0.9208
   46TAL   C226  249  12.193   0.976  13.860 -1.0746 -0.2008 -0.4707
   46TAL   C227  250  12.083   1.084  13.886 -0.9875  0.2945  0.3391
   46TAL   C228  251  12.081   1.209  13.792  0.2722  0.0456  0.5075
   46TAL   C229  252  12.137   1.332  13.872 -0.7158  0.2260  0.4352
   46TAL   C230  253  12.127   1.463  13.790  0.1487 -0.0874 -0.0760
   47HTM   C231  254  11.989   0.959  13.474 -0.1516 -0.5953  0.7975
   47HTM   C232  255  12.077   0.943  13.371  0.2996 -1.0790  1.2453
   47HTM   C233  256  12.057   1.036  13.263  0.9332 -1.4081  0.8324
   47HTM   C234  257  11.953   1.123  13.283  0.9651 -1.1754  0.0699
   47HTM    S24  258  11.873   1.093  13.442  0.1913 -0.5174 -0.1879
   48TAL   C235  259  12.151   1.017  13.146 -0.7996 -0.3202  0.4425
   48TAL   C236  260  12.116   1.108  13.024 -0.4478 -0.1630 -0.6783
   48TAL   C237  261  12.237   1.176  12.957 -0.0607  0.8066 -0.5287
   48TAL   C238  262  12.286   1.290  13.029 -0.4347 -1.3803 -0.2592
   48TAL   C239  263  12.411   1.346  12.946  0.8267  0.6231 -0.2145
   48TAL   C240  264  12.540   1.352  13.014 -0.7296  0.9121  0.1840
    1HTM     C1  265   5.155   2.772   4.660 -0.5270 -0.1455  0.2744
    1HTM     C2  266   5.143   2.855   4.768 -0.4677 -0.7535  0.7586
    1HTM     C3  267   5.020   2.929   4.769 -0.2722 -0.4314  1.0163
    1HTM     C4  268   4.939   2.904   4.663 -0.1825  0.4223  0.7283
    1HTM     S1  269   5.012   2.783   4.551 -0.3392  0.8892  0.1046
    2TAL     C5  270   4.997   3.019   4.881 -0.1064  0.1471 -0.6516
    2TAL     C6  271   5.099   3.120   4.933  0.7222 -0.7466 -0.4002
    2TAL     C7  272   5.176   3.094   5.062 -0.1156  0.1723 -0.3328
    2TAL     C8  273   5.128   3.120   5.190  0.4507 -0.3376 -0.6612
    2TAL     C9  274   5.061   3.255   5.231 -0.6341  0.7062 -0.6031
    2TAL    C10  275   4.983   3.242   5.357  0.2277  0.1605  0.8364
    3HTM    C11  276   4.799   2.931   4.647 -0.1073 -0.0503 -0.0961
    3HTM    C12  277   4.689   2.856   4.676  0.0790 -0.3597 -0.1757
    3HTM    C13  278   4.565   2.930   4.670 -0.1099 -0.6670 -0.1140
    3HTM    C14  279   4.581   3.061   4.636 -0.4401 -0.5917  0.0129
    3HTM     S2  280   4.755   3.101   4.609 -0.5390 -0.1235  0.0646
    4TAL    C15  281   4.441   2.854   4.712  0.4589 -0.1577 -0.5681
    4TAL    C16  282   4.399   2.765   4.588 -0.0567 -0.0751 -0.7816
    4TAL    C17  283   4.300   2.653   4.613 -0.6210  0.2397  1.2536
    4TAL    C18  284   4.258   2.584   4.475  0.2511  0.0004 -0.3089
    4TAL    C19  285   4.186   2.668   4.369 -0.1628  0.2298 -1.0345
    4TAL    C20  286   4.267   2.697   4.240  0.4160 -0.4869  0.0326
    5HTM    C21  287   4.491   3.177   4.621 -0.3696 -0.2442  0.1343
    5HTM    C22  288   4.510   3.311   4.636 -0.2520 -0.3375  0.9681
    5HTM    C23  289   4.387   3.387   4.631 -0.1543 -0.1734  1.0669
    5HTM    C24  290   4.276   3.311   4.614 -0.1974  0.0450  0.3086
    5HTM     S3  291   4.317   3.135   4.602 -0.3661  0.0606 -0.5961
    6TAL    C25  292   4.385   3.539   4.644 -0.6836 -0.0812  0.5973
    6TAL    C26  293   4.506   3.620   4.580  0.2348  0.2230  0.5097
    6TAL    C27  294   4.526   3.748   4.651 -0.2902  0.4490  0.6619
    6TAL    C28  295   4.610   3.866   4.594 -0.2515  1.4982  0.7619
    6TAL    C29  296   4.761   3.833   4.555  0.8776  1.6309 -0.2438
    6TAL    C30  297   4.844   3.939   4.491 -0.1231 -0.0612  0.2887
    7HTM    C31  298   4.134   3.340   4.602  0.2542 -0.1258 -0.7002
    7HTM    C32  299   4.083   3.455   4.552  0.4812 -0.3166 -1.3977
    7HTM    C33  300   3.939   3.456   4.545  0.4835 -0.0898 -1.4255
    7HTM    C34  301   3.881   3.341   4.589  0.2582  0.2738 -0.7490
    7HTM     S4  302   4.004   3.222   4.644  0.0237  0.3588 -0.0187
    8TAL    C35  303   3.867   3.574   4.490  1.1706  0.0212  0.6596
    8TAL    C36  304   3.891   3.719   4.554  0.4570 -0.0384  0.1193
    8TAL    C37  305   3.839   3.746   4.696 -0.4656  0.5376  0.1130
    8TAL    C38  306   3.692   3.750   4.716  0.2166 -0.4303  0.0133
    8TAL    C39  307   3.646   3.756   4.857  0.0774 -0.4974 -0.6953
    8TAL    C40  308   3.502   3.782   4.891  0.4829  0.6410  0.6263
    9HTM    C41  309   3.743   3.298   4.603 -0.6800  0.0787  0.2613
    9HTM    C42  310   3.627   3.365   4.629 -1.0800 -0.6124  0.3055
    9HTM    C43  311   3.511   3.280   4.637 -0.5745 -1.3101  0.3383
    9HTM    C44  312   3.539   3.148   4.618  0.2109 -1.1510  0.3192
    9HTM     S5  313   3.715   3.121   4.588  0.3743 -0.0994  0.2577
   10TAL    C45  314   3.358   3.319   4.671 -0.8287  0.2625 -0.5858
   10TAL    C46  315   3.312   3.461   4.623  0.9953  0.6309 -0.6684
   10TAL    C47  316   3.170   3.462   4.564  0.5588 -0.1782  0.7263
   10TAL    C48  317   3.100   3.600   4.544  0.3686 -0.0175 -1.3911
   10TAL    C49  318   2.968   3.604   4.468 -0.3687 -0.4666  0.2488
   10TAL    C50  319   2.982   3.574   4.303  0.6059  0.7340 -0.5628
   11HTM    C51  320   3.457   3.038   4.600  0.0701  0.5033 -0.1238
   11HTM    C52  321   3.378   2.971   4.690 -0.2754  1.1883  0.0924
   11HTM    C53  322   3.298   2.867   4.630 -0.4777  1.1088  0.4973
   11HTM    C54  323   3.317   2.853   4.496 -0.2868  0.3631  0.5898
   11HTM     S6  324   3.437   2.973   4.433  0.1671 -0.3018  0.1692
   12TAL    C55  325   3.190   2.786   4.701 -0.2076 -1.0689  0.1435
   12TAL    C56  326   3.257   2.699   4.802 -0.4759  0.2482 -1.5503
   12TAL    C57  327   3.297   2.756   4.944 -0.2363  0.0312  0.3716
   12TAL    C58  328   3.426   2.694   4.996  0.1992  0.6566 -0.2381
   12TAL    C59  329   3.449   2.731   5.135  0.5491  0.4545 -0.0716
   12TAL    C60  330   3.546   2.636   5.203 -0.3159  0.5158  0.0751
   13HTM    C61  331   3.259   2.738   4.413  0.2032 -0.7826  0.5359
   13HTM    C62  332   3.152   2.736   4.329  0.0681 -0.5181  0.7002
   13HTM    C63  333   3.127   2.608   4.270 -0.2507 -0.4218  0.6224
   13HTM    C64  334   3.215   2.511   4.309 -0.3587 -0.6128  0.3986
   13HTM     S7  335   3.337   2.576   4.424 -0.0638 -0.9315  0.2680
   14TAL    C65  336   3.000   2.583   4.177  0.3431  0.6678 -1.0960
   14TAL    C66  337   2.868   2.577   4.271  0.5862 -0.3326  1.4464
   14TAL    C67  338   2.762   2.533   4.168  0.0684  0.2517 -0.1525
   14TAL    C68  339   2.693   2.634   4.068 -0.0299 -0.0155 -0.8489
   14TAL    C69  340   2.585   2.568   3.981 -0.1750 -0.0021 -0.3861
   14TAL    C70  341   2.545   2.633   3.848  0.3344 -1.2744 -0.2605
   15HTM    C71  342   3.236   2.376   4.273  0.2773  0.1240  0.7450
   15HTM    C72  343   3.350   2.314   4.230  0.6544  0.0336  1.7967
   15HTM    C73  344   3.329   2.177   4.190  0.8973  0.0710  1.5396
   15HTM    C74  345   3.201   2.135   4.203  0.7055  0.1901  0.2920
   15HTM     S8  346   3.094   2.265   4.267  0.1990  0.2645 -0.6623
   16TAL    C75  347   3.440   2.083   4.154  0.4963  0.1707 -1.0426
   16TAL    C76  348   3.568   2.136   4.095 -0.1339  1.0931  0.4474
   16TAL    C77  349   3.655   2.023   4.054 -0.1176  0.5170 -0.4630
   16TAL    C78  350   3.753   2.035   3.939  0.9100  0.3407  0.3026
   16TAL    C79  351   3.678   2.082   3.816 -0.5312  0.8112  0.4384
   16TAL    C80  352   3.759   2.044   3.687  0.5035 -0.1615 -0.5710
   17HTM    C81  353   3.145   1.998   4.178 -0.4316  0.3744 -0.1149
   17HTM    C82  354   3.126   1.893   4.263 -1.2146  0.7468  0.1868
   17HTM    C83  355   3.085   1.772   4.197 -1.0077  0.5659  0.3860
   17HTM    C84  356   3.073   1.784   4.062 -0.0668  0.0556  0.2364
   17HTM     S9  357   3.113   1.951   4.007  0.6362 -0.2383 -0.1712
   18TAL    C85  358   3.034   1.655   4.268 -0.3437  0.0464 -0.5909
   18TAL    C86  359   3.129   1.546   4.301 -0.4780  0.2851  0.6523
   18TAL    C87  360   3.174   1.553   4.446 -0.2174 -0.1718 -0.1939
   18TAL    C88  361   3.249   1.432   4.501 -0.5714  0.5868 -0.8273
   18TAL    C89  362   3.297   1.423   4.652 -0.6727 -0.8441  0.8462
   18TAL    C90  363   3.339   1.280   4.691 -0.7047  0.2418  0.3392
   19HTM    C91  364   3.044   1.683   3.963  0.1967  0.2573  0.0176
   19HTM    C92  365   2.920   1.653   3.916  0.2789 -0.2546  0.1190
   19HTM    C93  366   2.920   1.555   3.810  0.5813 -0.3775  0.2331
   19HTM    C94  367   3.045   1.510   3.777  0.7297  0.0407  0.2188
   19HTM    S10  368   3.172   1.590   3.878  0.4970  0.6267  0.0587
   20TAL    C95  369   2.793   1.499   3.743 -0.0210  0.1007 -0.1100
   20TAL    C96  370   2.689   1.434   3.833 -0.1327  0.2966 -1.3796
   20TAL    C97  371   2.596   1.319   3.773  0.2878  0.5541 -0.3229
   20TAL    C98  372   2.505   1.344   3.645  0.1321  0.4586  1.2594
   20TAL    C99  373   2.394   1.435   3.690  0.8389 -0.5392  0.2137
   20TAL   C100  374   2.362   1.556   3.599  0.4885  0.8595 -0.3693
   21HTM   C101  375   3.090   1.389   3.710  0.4314  0.3242  0.0010
   21HTM   C102  376   3.183   1.296   3.747  0.2285  0.2691  0.3773
   21HTM   C103  377   3.204   1.192   3.650  0.0075 -0.1756  0.7932
   21HTM   C104  378   3.127   1.206   3.538  0.0419 -0.4595  0.7342
   21HTM    S11  379   3.021   1.352   3.547  0.3586 -0.1851  0.1441
   22TAL   C105  380   3.290   1.071   3.674  0.6803 -0.6624 -0.0047
   22TAL   C106  381   3.447   1.080   3.683 -0.2478 -0.5987 -0.5632
   22TAL   C107  382   3.504   1.166   3.565 -0.4285  0.2333 -0.4872
   22TAL   C108  383   3.652   1.148   3.540 -0.1214  0.5870 -0.1792
   22TAL   C109  384   3.692   1.012   3.479 -0.4079  0.1522 -1.1078
   22TAL   C110  385   3.828   0.979   3.506 -0.1053  0.1133 -0.6494
   23HTM   C111  386   3.125   1.142   3.418  0.5865 -0.1653  0.1300
   23HTM   C112  387   3.168   1.212   3.309  0.3787 -0.0151  0.1449
   23HTM   C113  388   3.208   1.129   3.198 -0.2226  0.1383 -0.2011
   23HTM   C114  389   3.197   0.996   3.223 -0.4733  0.1051 -0.4797
   23HTM    S12  390   3.134   0.964   3.389  0.0346 -0.1243 -0.3256
   24TAL   C115  391   3.259   1.206   3.075  0.7131 -0.3701  0.0975
   24TAL   C116  392   3.183   1.331   3.022  0.2375 -0.6114 -0.0864
   24TAL   C117  393   3.065   1.284   2.938  0.4183  0.9361  0.0351
   24TAL   C118  394   2.986   1.387   2.857 -0.5528  0.1075 -0.0882
   24TAL   C119  395   3.056   1.495   2.776 -0.1031 -0.3477  0.0941
   24TAL   C120  396   2.971   1.571   2.680  0.6053 -0.2553  0.5369
   25HTM   C121  397   3.242   0.879   3.146 -0.2642 -0.2006 -0.3138
   25HTM   C122  398   3.359   0.876   3.075 -0.5798 -0.1234 -0.8512
   25HTM   C123  399   3.381   0.752   3.006 -0.8279 -0.0987 -0.9779
   25HTM   C124  400   3.282   0.661   3.023 -0.7013 -0.1571 -0.5372
   25HTM    S13  401   3.151   0.725   3.129 -0.2556 -0.2485  0.0768
   26TAL   C125  402   3.510   0.723   2.932 -0.4615 -0.0837 -0.3758
   26TAL   C126  403   3.574   0.820   2.826  0.2301  0.7883  0.5943
   26TAL   C127  404   3.696   0.790   2.735  0.3668  0.7038 -0.0547
   26TAL   C128  405   3.758   0.646   2.736  0.0875  0.6458 -0.0784
   26TAL   C129  406   3.706   0.560   2.624 -0.0245 -0.1853 -0.1191
   26TAL   C130  407   3.790   0.445   2.631  0.0907  0.1916  0.3840
   27HTM   C131  408   3.266   0.517   2.985  0.3899 -0.4313  0.6613
   27HTM   C132  409   3.167   0.433   3.024  0.7890 -0.7762  0.9555
   27HTM   C133  410   3.189   0.296   2.987  1.0923 -0.6807  0.7788
   27HTM   C134  411   3.306   0.275   2.920  0.9244 -0.2631  0.3499
   27HTM    S14  412   3.397   0.429   2.898  0.3660  0.0444  0.1343
   28TAL   C135  413   3.088   0.178   3.011 -0.6430 -0.6775 -0.0501
   28TAL   C136  414   3.035   0.159   3.149 -0.4648 -0.2322 -0.4758
   28TAL   C137  415   2.983   0.026   3.189 -0.7813  0.3432 -0.1069
   28TAL   C138  416   2.926  -0.003   3.319  0.3493  0.8598 -0.7255
   28TAL   C139  417   2.830  -0.118   3.330 -0.0214 -0.3118 -0.1084
   28TAL   C140  418   2.870  -0.258   3.278 -0.9181 -0.1373  0.7219
   29HTM   C141  419   3.369   0.161   2.853  0.4331  0.9408  0.0315
   29HTM   C142  420   3.302   0.077   2.770  0.2577  1.5807 -0.4907
   29HTM   C143  421   3.388  -0.009   2.693  0.0649  1.4257 -0.5353
   29HTM   C144  422   3.521   0.010   2.718  0.0934  0.6677 -0.0473
   29HTM    S15  423   3.547   0.139   2.841  0.3680  0.0862  0.5110
   30TAL   C145  424   3.324  -0.127   2.621  0.5984 -0.0237 -0.4403
   30TAL   C146  425   3.321  -0.271   2.681  0.1293 -0.3146  0.0246
   30TAL   C147  426   3.285  -0.369   2.574 -0.1819  0.4490 -0.4546
   30TAL   C148  427   3.388  -0.418   2.471  0.7949  0.7389  0.4293
   30TAL   C149  428   3.394  -0.376   2.331 -0.4570 -0.3412  0.3016
   30TAL   C150  429   3.261  -0.358   2.257  0.0880  0.6884  0.1326
   31HTM   C151  430   3.627  -0.042   2.638  0.0862  0.0042  0.4242
   31HTM   C152  431   3.671   0.012   2.521  0.3320  0.3662  0.6800
   31HTM   C153  432   3.747  -0.078   2.439  0.6889  0.6843  0.6549
   31HTM   C154  433   3.762  -0.202   2.494  0.7152  0.5646  0.3800
   31HTM    S16  434   3.680  -0.214   2.654  0.2880  0.0368  0.1296
   32TAL   C155  435   3.795  -0.033   2.295 -0.2672  0.9680 -1.1547
   32TAL   C156  436   3.847   0.107   2.277  0.9815  0.7780 -0.0258
   32TAL   C157  437   3.907   0.121   2.141 -1.0134 -0.2386 -0.5224
   32TAL   C158  438   3.981   0.244   2.111 -0.0332 -0.0113 -0.5033
   32TAL   C159  439   3.954   0.299   1.983  0.2542  0.3648  0.2961
   32TAL   C160  440   4.076   0.377   1.936  0.3457  0.7854  0.0189
   33HTM   C161  441   3.809  -0.321   2.432  0.0701 -0.1368 -0.2572
   33HTM   C162  442   3.777  -0.370   2.309  0.4974 -0.0365 -0.4106
   33HTM   C163  443   3.833  -0.500   2.283  0.7613  0.0753 -0.4058
   33HTM   C164  444   3.908  -0.550   2.386  0.5352  0.0601 -0.2486
   33HTM    S17  445   3.913  -0.435   2.525 -0.0328 -0.0975 -0.0934
   34TAL   C165  446   3.789  -0.595   2.166  0.7264  0.8997  0.3619
   34TAL   C166  447   3.664  -0.551   2.097  0.2826 -0.2108  0.1241
   34TAL   C167  448   3.695  -0.463   1.985  0.0530 -0.1572  0.4411
   34TAL   C168  449   3.563  -0.393   1.940 -0.3595 -0.9330  0.5914
   34TAL   C169  450   3.565  -0.249   1.900  0.2005 -0.0260  0.9587
   34TAL   C170  451   3.462  -0.179   1.980  0.2927 -0.4556  0.0355
   35HTM   C171  452   3.983  -0.670   2.382 -0.0548  0.2714 -1.3731
   35HTM   C172  453   4.105  -0.699   2.331  0.0393  0.2265 -1.1275
   35HTM   C173  454   4.132  -0.840   2.319  0.3881  0.1979 -0.1913
   35HTM   C174  455   4.029  -0.919   2.361  0.5597  0.2210  0.2769
   35HTM    S18  456   3.890  -0.820   2.420  0.2923  0.2812 -0.4337
   36TAL   C175  457   4.255  -0.887   2.243  0.4197  0.7344 -0.1815
   36TAL   C176  458   4.308  -0.803   2.129  0.1759 -0.6951  0.1466
   36TAL   C177  459   4.416  -0.864   2.046 -0.0214 -1.4817  0.2635
   36TAL   C178  460   4.542  -0.903   2.120  0.0718  0.7238 -0.4365
   36TAL   C179  461   4.647  -0.947   2.021 -0.6402 -1.2808  1.1135
   36TAL   C180  462   4.735  -0.829   1.960  0.5776  0.7735  0.1729
   37HTM   C181  463   4.003  -1.061   2.346  0.5003  0.0544  0.4333
   37HTM   C182  464   4.074  -1.147   2.267  1.3752 -0.0203  1.2684
   37HTM   C183  465   4.039  -1.285   2.285  1.3334 -0.0219  1.1764
   37HTM   C184  466   3.942  -1.306   2.378  0.4267  0.0510  0.2711
   37HTM    S19  467   3.885  -1.150   2.450 -0.4516  0.1284 -0.5417
   38TAL   C185  468   4.111  -1.399   2.205  0.6292 -0.7754  0.2445
   38TAL   C186  469   4.267  -1.387   2.209  0.1240  0.0291 -0.4183
   38TAL   C187  470   4.329  -1.416   2.348 -0.6650  0.2267  0.0725
   38TAL   C188  471   4.489  -1.413   2.343  0.5588 -0.6193 -0.5656
   38TAL   C189  472   4.557  -1.504   2.245 -0.1860 -0.0541  0.8314
   38TAL   C190  473   4.701  -1.511   2.260 -0.7055 -0.4180  0.0063
   39HTM   C191  474   3.873  -1.427   2.419 -0.1430 -0.3082  0.5741
   39HTM   C192  475   3.740  -1.446   2.444 -0.0867 -0.3383  0.8579
   39HTM   C193  476   3.705  -1.583   2.470 -0.0192 -0.3657  0.8072
   39HTM   C194  477   3.810  -1.669   2.466 -0.0242 -0.3564  0.4847
   39HTM    S20  478   3.964  -1.583   2.427 -0.1151 -0.3122  0.2180
   40TAL   C195  479   3.554  -1.616   2.480 -0.0403  0.0838 -0.9307
   40TAL   C196  480   3.453  -1.537   2.396 -0.8064 -0.6924 -0.7592
   40TAL   C197  481   3.315  -1.563   2.444 -0.3175  0.1076 -0.3493
   40TAL   C198  482   3.196  -1.572   2.352  0.1835  0.6669  0.3036
   40TAL   C199  483   3.055  -1.638   2.384 -0.5395 -0.5281 -0.9788
   40TAL   C200  484   3.058  -1.790   2.434  0.1687 -0.0511 -0.1631
   41HTM   C201  485   3.827  -1.809   2.492 -0.2524  0.1110  0.2257
   41HTM   C202  486   3.941  -1.879   2.465 -0.1101  0.2596  0.4287
   41HTM   C203  487   3.931  -2.019   2.499 -0.0329  0.2209  0.2890
   41HTM   C204  488   3.811  -2.055   2.551 -0.1162  0.0424 -0.0206
   41HTM    S21  489   3.699  -1.914   2.562 -0.3001 -0.0913 -0.1609
   42TAL   C205  490   4.058  -2.088   2.464 -0.1036 -0.8087  0.0997
   42TAL   C206  491   4.059  -2.234   2.445 -0.7029  1.0142 -0.0285
   42TAL   C207  492   4.197  -2.278   2.384  0.4861 -0.0619 -0.5251
   42TAL   C208  493   4.230  -2.426   2.352  0.1646 -0.5982 -0.7512
   42TAL   C209  494   4.355  -2.414   2.263 -0.6060 -0.3131  0.2334
   42TAL   C210  495   4.416  -2.549   2.223  0.2782  0.3729  0.2721
   43HTM   C211  496   3.753  -2.194   2.586  0.2661  0.1081 -0.3660
   43HTM   C212  497   3.797  -2.291   2.671  0.1118  0.3498 -0.0046
   43HTM   C213  498   3.701  -2.397   2.691 -0.1208  0.6508  0.5158
   43HTM   C214  499   3.585  -2.380   2.621 -0.1438  0.6385  0.5514
   43HTM    S22  500   3.587  -2.228   2.524  0.1285  0.2429 -0.0746
   44TAL   C215  501   3.717  -2.514   2.792 -0.4945 -0.2517  0.0477
   44TAL   C216  502   3.862  -2.557   2.841 -0.5012  0.2236  0.4699
   44TAL   C217  503   3.980  -2.608   2.749  0.4547 -0.4914 -0.1819
   44TAL   C218  504   3.936  -2.713   2.648 -0.0249 -0.5070  0.4090
   44TAL   C219  505   3.880  -2.844   2.709 -0.7359 -0.9274  0.1672
   44TAL   C220  506   3.856  -2.938   2.596 -1.1024 -0.4109  0.9631
   45HTM   C221  507   3.461  -2.467   2.613  0.1000  0.4050 -0.4526
   45HTM   C222  508   3.442  -2.598   2.646  0.5332  0.4059 -0.1886
   45HTM   C223  509   3.306  -2.642   2.633  0.6192  0.0099  0.2012
   45HTM   C224  510   3.221  -2.545   2.589  0.2515 -0.2932  0.2344
   45HTM    S23  511   3.307  -2.389   2.562 -0.2355 -0.1001 -0.2278
   46TAL   C225  512   3.242  -2.769   2.699 -0.2779  0.2049  0.2621
   46TAL   C226  513   3.318  -2.889   2.766 -0.1560 -0.1979 -0.0143
   46TAL   C227  514   3.403  -2.957   2.664  0.2019 -0.6094  0.1159
   46TAL   C228  515   3.461  -3.093   2.696  0.0248  0.1505  0.6167
   46TAL   C229  516   3.376  -3.219   2.714  0.8715  0.2132 -0.3857
   46TAL   C230  517   3.458  -3.352   2.717 -0.9733  0.2031  0.0624
   47HTM   C231  518   3.082  -2.554   2.530 -0.0254 -0.9064 -0.0473
   47HTM   C232  519   3.029  -2.454   2.453  0.2668 -1.2528 -0.7176
   47HTM   C233  520   2.899  -2.485   2.400  0.2131 -1.2628 -0.5809
   47HTM   C234  521   2.852  -2.608   2.436 -0.1200 -0.9246  0.1935
   47HTM    S24  522   2.970  -2.696   2.541 -0.3939 -0.5638  0.8151
   48TAL   C235  523   2.819  -2.396   2.306 -0.4433 -0.3814  0.8372
   48TAL   C236  524   2.848  -2.248   2.281  0.0229  0.0613 -0.4767
   48TAL   C237  525   2.829  -2.156   2.394 -0.7551  0.0312 -0.4407
   48TAL   C238  526   2.685  -2.143   2.456  0.1233  1.0101 -0.2346
   48TAL   C239  527   2.662  -2.059   2.589  1.0787 -0.2870  0.7610
   48TAL   C240  528   2.507  -2.044   2.611  0.0322 -0.0336  0.0441
    1HTM     C1  529   6.806   9.192   0.290 -0.4389 -0.6182 -0.3638
    1HTM     C2  530   6.686   9.135   0.259  0.2468 -1.9896 -0.6983
    1HTM     C3  531   6.669   9.109   0.118  1.0326 -2.4667 -0.7146
    1HTM     C4  532   6.776   9.144   0.042  0.9460 -1.4597 -0.3925
    1HTM     S1  533   6.908   9.215   0.143 -0.1432  0.1827 -0.0410
    2TAL     C5  534   6.532   9.052   0.077 -0.7962 -0.4515 -1.0747
    2TAL     C6  535   6.409   9.131   0.022 -0.0210 -0.0052  0.6061
    2TAL     C7  536   6.343   9.255   0.091 -0.3213  0.0299 -0.7641
    2TAL     C8  537   6.206   9.294   0.041 -0.9700  0.2862  0.3015
    2TAL     C9  538   6.092   9.195   0.039 -0.3086  0.4291  0.8465
    2TAL    C10  539   5.956   9.247   0.013  0.9691 -0.6027  0.4985
    3HTM    C11  540   6.791   9.145  -0.099 -0.1907 -0.2131  0.4434
    3HTM    C12  541   6.900   9.093  -0.161 -0.2966 -0.5367  0.5198
    3HTM    C13  542   6.896   9.105  -0.305 -0.0219 -0.2396  0.5343
    3HTM    C14  543   6.784   9.166  -0.352  0.2934  0.3108  0.4685
    3HTM     S2  544   6.673   9.213  -0.217  0.2677  0.4974  0.3828
    4TAL    C15  545   7.012   9.065  -0.400 -0.1380 -0.2243 -0.0833
    4TAL    C16  546   7.154   9.072  -0.346  0.9880  0.6257 -0.2333
    4TAL    C17  547   7.225   9.197  -0.392  0.6913  0.3198 -0.9868
    4TAL    C18  548   7.363   9.214  -0.330  0.0280 -0.3671 -0.3002
    4TAL    C19  549   7.391   9.224  -0.183 -0.2667 -0.6925 -0.3185
    4TAL    C20  550   7.484   9.119  -0.142 -0.8324 -0.1536  0.6426
    5HTM    C21  551   6.727   9.210  -0.478 -1.1421 -0.1833  0.6125
    5HTM    C22  552   6.727   9.334  -0.532 -0.7864 -0.1469  0.6859
    5HTM    C23  553   6.671   9.339  -0.665  0.4973 -0.1426  0.1132
    5HTM    C24  554   6.628   9.218  -0.711  1.1203 -0.1758 -0.3972
    5HTM     S3  555   6.656   9.088  -0.590  0.1263 -0.2148 -0.1924
    6TAL    C25  556   6.654   9.466  -0.756  0.7952  0.1501 -0.0508
    6TAL    C26  557   6.697   9.599  -0.683 -0.1434 -0.0466 -0.5503
    6TAL    C27  558   6.684   9.730  -0.766  0.3145 -0.5449 -0.3545
    6TAL    C28  559   6.667   9.860  -0.690 -0.0581  0.2008  0.0677
    6TAL    C29  560   6.650   9.988  -0.780  0.4831  0.6772 -0.6272
    6TAL    C30  561   6.602  10.108  -0.699 -0.3102 -0.2016 -0.4279
    7HTM    C31  562   6.555   9.176  -0.826  0.5122 -0.3428  0.0015
    7HTM    C32  563   6.449   9.092  -0.813  0.7098 -0.5844  0.0744
    7HTM    C33  564   6.376   9.071  -0.935  0.6082 -0.6609  0.1473
    7HTM    C34  565   6.427   9.139  -1.042  0.3331 -0.4767  0.1297
    7HTM     S4  566   6.572   9.235  -0.996  0.1797 -0.1909  0.0194
    8TAL    C35  567   6.265   8.974  -0.936  0.3913  0.1988  0.4322
    8TAL    C36  568   6.127   9.008  -0.876 -0.6357 -0.4170 -0.8304
    8TAL    C37  569   6.024   8.884  -0.881 -0.4680 -0.7850 -0.6398
    8TAL    C38  570   5.889   8.936  -0.836  0.6472  0.0609 -0.2132
    8TAL    C39  571   5.851   8.974  -0.695 -0.8119  0.5091 -0.1485
    8TAL    C40  572   5.748   9.088  -0.681  0.3850  0.5274  0.4354
    9HTM    C41  573   6.380   9.139  -1.184  0.0632 -0.0771 -0.2953
    9HTM    C42  574   6.452   9.196  -1.284 -0.0664 -0.3202 -0.5269
    9HTM    C43  575   6.399   9.170  -1.416 -0.3470 -0.4756 -0.3836
    9HTM    C44  576   6.286   9.093  -1.415 -0.4315 -0.3510 -0.0429
    9HTM     S5  577   6.238   9.048  -1.247 -0.1610 -0.0255  0.1249
   10TAL    C45  578   6.479   9.209  -1.540  0.5310  0.1929 -0.3336
   10TAL    C46  579   6.428   9.335  -1.615 -0.0133  0.2553  0.2865
   10TAL    C47  580   6.501   9.358  -1.746  0.7914  0.7398  0.6942
   10TAL    C48  581   6.431   9.314  -1.873 -0.4340 -0.2695 -1.4339
   10TAL    C49  582   6.312   9.389  -1.913  0.4627 -0.6585 -0.0136
   10TAL    C50  583   6.248   9.331  -2.040  1.0068 -0.3561 -1.2268
   11HTM    C51  584   6.200   9.029  -1.516 -0.4331  0.3507 -0.1808
   11HTM    C52  585   6.165   8.898  -1.504 -0.3269  0.3331 -0.0527
   11HTM    C53  586   6.077   8.852  -1.609  0.0811  0.0362 -0.2689
   11HTM    C54  587   6.046   8.948  -1.701  0.2860 -0.1723 -0.5617
   11HTM     S6  588   6.125   9.105  -1.661 -0.0228 -0.0095 -0.5877
   12TAL    C55  589   6.047   8.706  -1.620  0.8945  0.6385  0.6486
   12TAL    C56  590   6.076   8.618  -1.493  0.9415 -0.7316  0.2784
   12TAL    C57  591   6.175   8.495  -1.496  0.3928  1.4162  1.6261
   12TAL    C58  592   6.103   8.378  -1.553  0.1347 -0.6773  0.8826
   12TAL    C59  593   6.178   8.254  -1.595  1.2670 -0.8566  0.3322
   12TAL    C60  594   6.205   8.140  -1.488 -0.4113 -0.3600  0.2377
   13HTM    C61  595   5.958   8.955  -1.816  0.0295  0.4504  0.1296
   13HTM    C62  596   5.945   8.852  -1.904 -0.2460  0.1552  0.5105
   13HTM    C63  597   5.836   8.868  -1.997 -0.4462 -0.0858  0.7020
   13HTM    C64  598   5.765   8.983  -1.979 -0.3231  0.0256  0.4672
   13HTM     S7  599   5.832   9.082  -1.844  0.0579  0.4468 -0.0177
   14TAL    C65  600   5.830   8.762  -2.116  0.9927 -0.0955 -0.5197
   14TAL    C66  601   5.887   8.827  -2.244  0.0702  0.4213  0.8862
   14TAL    C67  602   5.861   8.745  -2.365 -0.5121  0.1834 -0.3546
   14TAL    C68  603   5.893   8.816  -2.492 -0.2927  0.4168 -0.0280
   14TAL    C69  604   5.832   8.749  -2.613 -0.7702  0.5817  1.0372
   14TAL    C70  605   5.882   8.817  -2.739 -0.0428 -0.5652  0.3815
   15HTM    C71  606   5.643   9.034  -2.046 -0.1511 -0.2908  0.3996
   15HTM    C72  607   5.560   8.973  -2.136  0.1104  0.1044 -0.1209
   15HTM    C73  608   5.437   9.045  -2.158  0.2842  0.3307 -0.3560
   15HTM    C74  609   5.427   9.160  -2.086  0.1549  0.1084 -0.0147
   15HTM     S8  610   5.572   9.187  -1.983 -0.1990 -0.4082  0.6348
   16TAL    C75  611   5.344   8.989  -2.265 -0.4836  0.7320  0.4427
   16TAL    C76  612   5.389   8.912  -2.399  0.4711 -0.3582 -0.3229
   16TAL    C77  613   5.369   8.763  -2.405 -0.3317 -0.1074  0.3428
   16TAL    C78  614   5.406   8.681  -2.289 -1.0852  1.5399 -1.0055
   16TAL    C79  615   5.545   8.607  -2.266 -0.2715  0.4428  0.2326
   16TAL    C80  616   5.545   8.471  -2.197  0.1168  0.0840 -0.8065
   17HTM    C81  617   5.317   9.259  -2.079 -0.1953  0.4315 -0.5607
   17HTM    C82  618   5.195   9.247  -2.019 -0.1864  0.4458 -0.5397
   17HTM    C83  619   5.115   9.366  -2.026  0.0885  0.6714  0.0573
   17HTM    C84  620   5.176   9.470  -2.090  0.2891  0.8293  0.4914
   17HTM     S9  621   5.341   9.424  -2.148  0.1455  0.7042  0.1776
   18TAL    C85  622   4.973   9.387  -1.972 -0.7912  0.2019 -0.9560
   18TAL    C86  623   4.919   9.296  -1.852 -0.2009  1.9386  0.4888
   18TAL    C87  624   4.796   9.331  -1.778  0.2951  0.1974 -0.1008
   18TAL    C88  625   4.760   9.258  -1.643  0.3814 -0.9953  0.0447
   18TAL    C89  626   4.766   9.101  -1.623  0.2208 -1.1403 -0.6345
   18TAL    C90  627   4.649   9.075  -1.537  0.4568  0.6729 -0.2734
   19HTM    C91  628   5.123   9.609  -2.098  0.6058  0.1124  0.3386
   19HTM    C92  629   5.081   9.682  -2.205  0.8817 -0.0269  0.1336
   19HTM    C93  630   5.004   9.799  -2.169  0.2818 -0.3016 -0.2350
   19HTM    C94  631   4.987   9.814  -2.035 -0.4515 -0.3716 -0.3109
   19HTM    S10  632   5.068   9.682  -1.942 -0.4411 -0.0941  0.0800
   20TAL    C95  633   4.963   9.895  -2.286  1.1896  0.3459  0.5645
   20TAL    C96  634   5.047  10.028  -2.279  0.7826 -0.0921  0.3571
   20TAL    C97  635   5.077  10.111  -2.397  0.4039  0.0868 -0.2244
   20TAL    C98  636   5.094  10.028  -2.529  0.2855  0.5267  0.0410
   20TAL    C99  637   5.142  10.137  -2.634  0.8229  1.1942  0.3940
   20TAL   C100  638   5.196  10.067  -2.758 -0.3891  0.1913 -0.1671
   21HTM   C101  639   4.919   9.916  -1.959  0.0444 -0.6198  0.1191
   21HTM   C102  640   4.797   9.970  -1.988 -0.0987 -0.9735  0.0546
   21HTM   C103  641   4.749  10.061  -1.887 -0.1744 -0.7068 -0.2191
   21HTM   C104  642   4.834  10.076  -1.782 -0.0889 -0.1498 -0.3637
   21HTM    S11  643   4.983   9.977  -1.802  0.0952  0.0829 -0.1634
   22TAL   C105  644   4.612  10.127  -1.908  0.8122  0.0891  0.0229
   22TAL   C106  645   4.493  10.030  -1.883  0.1911  0.5179  0.8820
   22TAL   C107  646   4.356  10.097  -1.877 -0.8387  0.6841 -0.1164
   22TAL   C108  647   4.288  10.095  -1.742 -0.3358 -1.4223 -0.1664
   22TAL   C109  648   4.150  10.169  -1.745 -1.2569 -0.6312  0.2628
   22TAL   C110  649   4.087  10.138  -1.606  0.2273  0.2306  0.8574
   23HTM   C111  650   4.827  10.150  -1.655  0.1158 -0.0771 -0.9765
   23HTM   C112  651   4.859  10.099  -1.533  0.4280 -0.7661 -1.3304
   23HTM   C113  652   4.849  10.195  -1.426  0.6108 -1.3791 -0.7472
   23HTM   C114  653   4.810  10.319  -1.467  0.4381 -1.1575  0.0516
   23HTM    S12  654   4.782  10.324  -1.645  0.0278 -0.1496  0.1297
   24TAL   C115  655   4.874  10.150  -1.287 -0.5806  0.9459 -0.0270
   24TAL   C116  656   5.006  10.075  -1.250 -0.3148  0.9408 -0.6742
   24TAL   C117  657   5.133  10.158  -1.228 -0.0631  1.6374 -0.6510
   24TAL   C118  658   5.242  10.054  -1.197 -0.9333 -0.3083  0.6859
   24TAL   C119  659   5.263  10.014  -1.048  0.7679  0.1434 -0.7603
   24TAL   C120  660   5.203   9.875  -1.012  0.4011 -0.6579  0.1323
   25HTM   C121  661   4.806  10.450  -1.398 -0.7185  0.0411 -0.3695
   25HTM   C122  662   4.890  10.556  -1.412 -1.4470  0.5452 -1.1115
   25HTM   C123  663   4.870  10.660  -1.314 -1.5074  0.6430 -1.2264
   25HTM   C124  664   4.771  10.632  -1.225 -0.8247  0.2135 -0.5717
   25HTM    S13  665   4.694  10.473  -1.258 -0.0470 -0.3522  0.2469
   26TAL   C125  666   4.952  10.787  -1.320 -0.2089 -0.1212 -0.4564
   26TAL   C126  667   5.103  10.790  -1.292  0.1251  0.6098 -0.0727
   26TAL   C127  668   5.151  10.722  -1.161  1.4409 -0.5297  0.3793
   26TAL   C128  669   5.205  10.582  -1.193 -0.8454  0.4895  1.2434
   26TAL   C129  670   5.363  10.583  -1.198 -0.2872  0.1850 -0.4798
   26TAL   C130  671   5.427  10.443  -1.172  0.3282  0.2302 -0.5261
   27HTM   C131  672   4.706  10.717  -1.126  0.1651 -0.1437  0.5302
   27HTM   C132  673   4.585  10.691  -1.070  0.3128 -0.4617  0.7041
   27HTM   C133  674   4.536  10.797  -0.987  0.0488 -0.4951  0.5920
   27HTM   C134  675   4.619  10.905  -0.980 -0.3006 -0.2028  0.3325
   27HTM    S14  676   4.768  10.880  -1.079 -0.3232  0.1403  0.2086
   28TAL   C135  677   4.392  10.812  -0.933  0.7227  0.1611  0.0938
   28TAL   C136  678   4.302  10.693  -0.911 -0.8477  0.2876 -0.1617
   28TAL   C137  679   4.158  10.711  -0.859  0.5245  0.7735  0.2229
   28TAL   C138  680   4.137  10.752  -0.711 -0.9498 -0.1812  0.4595
   28TAL   C139  681   4.167  10.897  -0.681  0.5051 -0.4580  0.4371
   28TAL   C140  682   4.233  10.918  -0.541 -0.0005 -0.0652 -0.2998
   29HTM   C141  683   4.589  11.045  -0.928  0.1567 -0.5411  0.9470
   29HTM   C142  684   4.606  11.157  -1.004  0.6037 -0.7393  0.7463
   29HTM   C143  685   4.540  11.273  -0.950  0.4290 -0.5546  0.1428
   29HTM   C144  686   4.472  11.250  -0.834 -0.1512 -0.2156 -0.1169
   29HTM    S15  687   4.487  11.077  -0.783 -0.5252 -0.1025  0.3851
   30TAL   C145  688   4.549  11.416  -1.022  1.1281  1.0213 -0.9172
   30TAL   C146  689   4.680  11.467  -1.054 -0.1976  0.6687 -0.4487
   30TAL   C147  690   4.700  11.555  -1.168 -0.2061 -1.9327 -0.1939
   30TAL   C148  691   4.822  11.641  -1.134  0.6889  0.0931  0.0540
   30TAL   C149  692   4.803  11.737  -1.018 -0.2140  0.0929  1.6117
   30TAL   C150  693   4.927  11.787  -0.957 -0.4150 -0.1656 -0.3724
   31HTM   C151  694   4.395  11.332  -0.747  0.0014 -0.0144  0.1265
   31HTM   C152  695   4.390  11.469  -0.742 -0.7217  0.0008 -0.5858
   31HTM   C153  696   4.286  11.520  -0.656 -0.8340 -0.1003 -0.6595
   31HTM   C154  697   4.213  11.423  -0.595 -0.1964 -0.1926 -0.0033
   31HTM    S16  698   4.268  11.258  -0.642  0.6013 -0.1587  0.7648
   32TAL   C155  699   4.276  11.675  -0.630 -0.5326  0.3472 -0.2286
   32TAL   C156  700   4.294  11.752  -0.761  0.4374  0.7166  0.0388
   32TAL   C157  701   4.347  11.885  -0.743  0.6215 -0.6988 -0.4695
   32TAL   C158  702   4.282  11.988  -0.655 -0.1223  0.1486  0.5491
   32TAL   C159  703   4.364  12.114  -0.633 -0.2368 -0.2655 -0.0601
   32TAL   C160  704   4.296  12.201  -0.524  0.4483 -0.0830  0.2299
   33HTM   C161  705   4.145  11.430  -0.469  0.7077  0.5780  0.1211
   33HTM   C162  706   4.118  11.333  -0.378  0.4414  0.3255 -0.2246
   33HTM   C163  707   4.043  11.379  -0.264 -0.2496 -0.0755 -0.5043
   33HTM   C164  708   4.013  11.512  -0.269 -0.5103 -0.1287 -0.3720
   33HTM    S17  709   4.078  11.589  -0.418  0.1015  0.3271  0.1199
   34TAL   C165  710   3.998  11.294  -0.148  0.6691  0.3801 -0.2976
   34TAL   C166  711   3.866  11.200  -0.172 -0.4875  1.1607 -0.1308
   34TAL   C167  712   3.880  11.094  -0.287  0.2456  0.0939 -0.1068
   34TAL   C168  713   3.805  11.143  -0.408 -0.7830 -0.3006 -0.0809
   34TAL   C169  714   3.659  11.099  -0.399  0.5396  0.9366  0.2123
   34TAL   C170  715   3.584  11.082  -0.534 -0.0592 -0.6833 -0.1676
   35HTM   C171  716   3.931  11.584  -0.175  0.3468 -0.8221  0.1025
   35HTM   C172  717   3.815  11.649  -0.204  0.5991 -0.5898 -0.4168
   35HTM   C173  718   3.767  11.734  -0.098  0.6528  0.0496 -0.8936
   35HTM   C174  719   3.848  11.734   0.012  0.4414  0.3050 -0.7381
   35HTM    S18  720   3.990  11.626  -0.010  0.1559 -0.2466  0.0288
   36TAL   C175  721   3.644  11.811  -0.108  0.6492 -0.3617  0.5049
   36TAL   C176  722   3.530  11.770  -0.203  0.2727  0.7147  1.3321
   36TAL   C177  723   3.404  11.850  -0.172  0.5456  0.4109 -0.1771
   36TAL   C178  724   3.312  11.875  -0.302  0.2890  0.7542 -1.9106
   36TAL   C179  725   3.363  11.903  -0.436  1.0085 -0.2007 -0.9075
   36TAL   C180  726   3.300  12.029  -0.488  0.1934 -0.1978 -0.1885
   37HTM   C181  727   3.828  11.798   0.144 -0.0782 -0.3378  0.1785
   37HTM   C182  728   3.931  11.835   0.225 -0.0866 -0.4621  0.2464
   37HTM   C183  729   3.888  11.888   0.352 -0.1138 -0.1641  0.1134
   37HTM   C184  730   3.752  11.891   0.367 -0.1262  0.1874 -0.0559
   37HTM    S19  731   3.668  11.827   0.221 -0.1042  0.1692 -0.0605
   38TAL   C185  732   3.986  11.925   0.471  0.1460 -0.4984 -1.2257
   38TAL   C186  733   4.038  12.067   0.453 -1.0033 -0.4846 -1.0033
   38TAL   C187  734   4.122  12.120   0.578  0.7418  0.0173 -0.3785
   38TAL   C188  735   4.170  12.269   0.571 -0.5005 -0.3266 -0.6094
   38TAL   C189  736   4.285  12.301   0.666  0.0143 -1.1405  0.7852
   38TAL   C190  737   4.252  12.301   0.810  0.1581  0.0490  0.0386
   39HTM   C191  738   3.664  11.935   0.473 -0.3071 -0.2556 -0.1848
   39HTM   C192  739   3.681  11.900   0.604  0.0185 -0.2847 -0.2338
   39HTM   C193  740   3.559  11.901   0.680  0.2469 -0.0446  0.1332
   39HTM   C194  741   3.449  11.936   0.608  0.0954  0.1675  0.4618
   39HTM    S20  742   3.491  11.971   0.436 -0.3509  0.0798  0.3325
   40TAL   C195  743   3.567  11.864   0.828  0.2021 -0.5705  0.7563
   40TAL   C196  744   3.555  11.708   0.861  0.9276 -1.7432  0.9183
   40TAL   C197  745   3.553  11.706   1.010 -0.2410 -0.6174 -0.2867
   40TAL   C198  746   3.555  11.563   1.076 -0.9354 -0.5177 -0.6027
   40TAL   C199  747   3.434  11.482   1.054  0.2346  0.1919 -0.5588
   40TAL   C200  748   3.435  11.347   1.134  0.3617 -1.6703  0.1219
   41HTM   C201  749   3.299  11.934   0.645  0.2646  0.4703 -0.0296
   41HTM   C202  750   3.195  11.954   0.559  0.3753  0.9515 -0.0562
   41HTM   C203  751   3.065  11.940   0.620  0.2962  0.8699 -0.2407
   41HTM   C204  752   3.070  11.909   0.752  0.1251  0.3267 -0.3548
   41HTM    S21  753   3.240  11.895   0.811  0.0502 -0.1278 -0.2371
   42TAL   C205  754   2.948  11.932   0.526 -0.1884  0.3230  0.0887
   42TAL   C206  755   2.901  12.063   0.460  0.4166 -0.9427 -0.1567
   42TAL   C207  756   2.844  12.163   0.564 -0.2352  0.1090  0.4523
   42TAL   C208  757   2.883  12.299   0.593 -0.3192 -0.7761 -0.2386
   42TAL   C209  758   2.900  12.384   0.467  0.8662 -0.6075 -0.5551
   42TAL   C210  759   2.915  12.535   0.484  0.1042  0.0235  0.7644
   43HTM   C211  760   2.966  11.860   0.847  0.1802  0.8209  0.4961
   43HTM   C212  761   2.832  11.884   0.845  0.1864  0.8528  0.4674
   43HTM   C213  762   2.760  11.819   0.951  0.0432  0.2322  0.0032
   43HTM   C214  763   2.839  11.746   1.034 -0.0723 -0.2728 -0.3220
   43HTM    S22  764   3.012  11.753   0.985 -0.0085 -0.0017 -0.0653
   44TAL   C215  765   2.612  11.845   0.986  0.2118  1.3502  0.8206
   44TAL   C216  766   2.494  11.758   0.908  0.1788 -0.9897 -0.1836
   44TAL   C217  767   2.503  11.612   0.936  0.1093 -0.0826  0.4831
   44TAL   C218  768   2.389  11.531   0.897 -0.4662  0.2532 -0.5210
   44TAL   C219  769   2.400  11.379   0.915  0.2963  0.3801  0.1951
   44TAL   C220  770   2.251  11.323   0.937 -0.8734  0.1229  0.7032
   45HTM   C221  771   2.819  11.683   1.162  0.1672  0.0685  0.5416
   45HTM   C222  772   2.847  11.728   1.288  0.0991 -0.0924  0.6138
   45HTM   C223  773   2.813  11.633   1.392 -0.0231 -0.1963  0.4798
   45HTM   C224  774   2.759  11.517   1.345 -0.0483 -0.1147  0.3055
   45HTM    S23  775   2.747  11.518   1.165  0.0814  0.1014  0.2970
   46TAL   C225  776   2.881  11.632   1.526 -1.1373 -0.5862  0.1873
   46TAL   C226  777   2.850  11.753   1.622  0.6507 -0.0755  0.3211
   46TAL   C227  778   2.909  11.726   1.763  0.7710  0.0575  1.1155
   46TAL   C228  779   2.840  11.617   1.835  1.4244  0.5951  0.0225
   46TAL   C229  780   2.686  11.611   1.865 -1.7440  0.1809  0.3037
   46TAL   C230  781   2.647  11.513   1.969 -0.0208  0.6126  0.0713
   47HTM   C231  782   2.689  11.410   1.402 -0.6895  0.6796 -0.0637
   47HTM   C232  783   2.675  11.282   1.357  0.3813  0.5181  0.0126
   47HTM   C233  784   2.608  11.195   1.449  1.1678 -0.0191  0.0924
   47HTM   C234  785   2.571  11.256   1.565  0.6969 -0.2671  0.0769
   47HTM    S24  786   2.618  11.430   1.567 -0.7881  0.1619 -0.0406
   48TAL   C235  787   2.598  11.047   1.428  0.2068 -1.0952 -1.0645
   48TAL   C236  788   2.544  10.957   1.545 -0.3098 -0.1937  0.2879
   48TAL   C237  789   2.420  10.866   1.516 -1.3865 -0.0032 -0.0040
   48TAL   C238  790   2.366  10.815   1.644  0.0794  0.8795  0.5668
   48TAL   C239  791   2.292  10.681   1.629  1.1465 -0.2517 -0.1163
   48TAL   C240  792   2.288  10.569   1.740 -0.7300  0.5811  0.2445
    1HTM     C1  793   9.338   6.983   4.938 -0.3322  0.6235 -0.4970
    1HTM     C2  794   9.379   7.103   4.890 -0.8631  0.9382 -0.1819
    1HTM     C3  795   9.443   7.187   4.988 -0.7141  0.7248 -0.0970
    1HTM     C4  796   9.451   7.129   5.112 -0.0699  0.2473 -0.3475
    1HTM     S1  797   9.377   6.964   5.113  0.4028  0.0286 -0.7129
    2TAL     C5  798   9.527   7.298   4.928  0.5227  1.3861 -0.0669
    2TAL     C6  799   9.452   7.429   4.935 -1.1387 -0.1019 -0.6571
    2TAL     C7  800   9.539   7.534   5.006  0.2656  0.3973  1.0365
    2TAL     C8  801   9.465   7.670   4.997 -1.9644 -0.3160 -0.2371
    2TAL     C9  802   9.425   7.739   4.869 -0.4910 -0.5107  0.8937
    2TAL    C10  803   9.347   7.859   4.905  0.4713 -0.4222  0.7092
    3HTM    C11  804   9.503   7.191   5.235  0.3211 -0.3086  0.0006
    3HTM    C12  805   9.630   7.187   5.287  0.5074  0.6490 -0.3475
    3HTM    C13  806   9.649   7.275   5.400  0.2837  1.1075 -0.6584
    3HTM    C14  807   9.537   7.345   5.434 -0.0731  0.4997 -0.5473
    3HTM     S2  808   9.398   7.306   5.326 -0.1550 -0.7086 -0.0375
    4TAL    C15  809   9.783   7.262   5.470 -0.9553  1.5156 -0.6930
    4TAL    C16  810   9.904   7.315   5.404 -0.2422 -0.0765 -1.0890
    4TAL    C17  811  10.039   7.277   5.463  0.9579  0.5772 -0.5328
    4TAL    C18  812  10.050   7.278   5.612 -0.4121 -0.0580 -0.9788
    4TAL    C19  813  10.075   7.139   5.674 -0.3608  0.4939  1.0091
    4TAL    C20  814  10.093   7.143   5.819  0.2026 -0.2904  0.3132
    5HTM    C21  815   9.514   7.429   5.554 -0.2497  0.0864 -0.6497
    5HTM    C22  816   9.560   7.400   5.679  0.2372 -0.2601 -0.9012
    5HTM    C23  817   9.528   7.501   5.777  0.6354 -0.5159 -0.5018
    5HTM    C24  818   9.458   7.606   5.727  0.4522 -0.3647  0.0543
    5HTM     S3  819   9.426   7.586   5.550 -0.2429  0.1165  0.1173
    6TAL    C25  820   9.574   7.498   5.916  0.0856 -1.1502 -0.0530
    6TAL    C26  821   9.719   7.457   5.931 -0.4653  0.3609  0.0303
    6TAL    C27  822   9.816   7.559   5.884  0.1756 -1.0967  0.1376
    6TAL    C28  823   9.872   7.673   5.978  0.4708  0.5965 -0.5970
    6TAL    C29  824   9.953   7.649   6.103 -0.1944  1.1585 -0.6893
    6TAL    C30  825  10.095   7.583   6.065  1.3820 -0.3214  0.0149
    7HTM    C31  826   9.424   7.737   5.783  0.0821 -0.4262  0.1065
    7HTM    C32  827   9.469   7.852   5.724 -0.1948 -0.5671 -0.3895
    7HTM    C33  828   9.410   7.972   5.777 -0.1833 -0.4560 -0.6266
    7HTM    C34  829   9.319   7.949   5.877  0.1020 -0.2302 -0.3115
    7HTM     S4  830   9.302   7.773   5.911  0.3810 -0.1403  0.3141
    8TAL    C35  831   9.432   8.101   5.697 -0.6526  0.1289  0.0850
    8TAL    C36  832   9.577   8.151   5.705 -0.8181 -0.0230 -0.0077
    8TAL    C37  833   9.601   8.252   5.823 -0.3283  0.3649  0.2782
    8TAL    C38  834   9.542   8.395   5.808  0.2964 -0.2066 -0.1284
    8TAL    C39  835   9.621   8.475   5.694 -0.2936 -0.4408  0.6069
    8TAL    C40  836   9.557   8.606   5.645  0.4624 -0.1814 -0.3211
    9HTM    C41  837   9.248   8.051   5.953 -0.2518  0.2420 -0.1071
    9HTM    C42  838   9.224   8.184   5.938 -0.4690  0.2205  0.0325
    9HTM    C43  839   9.155   8.244   6.050 -0.4358  0.0226  0.1599
    9HTM    C44  840   9.127   8.156   6.150 -0.1932 -0.1068  0.1172
    9HTM     S5  841   9.185   7.990   6.111  0.0139  0.0126 -0.0886
   10TAL    C45  842   9.106   8.385   6.030  0.1099  0.0884 -0.0170
   10TAL    C46  843   9.181   8.510   6.064 -0.6291  0.7546 -0.0701
   10TAL    C47  844   9.082   8.627   6.048 -0.6593 -0.0606 -0.3215
   10TAL    C48  845   9.146   8.752   6.112  0.9825 -0.3942  0.5359
   10TAL    C49  846   9.052   8.881   6.119  0.4541  1.7078  0.5168
   10TAL    C50  847   8.939   8.903   6.216  0.0833  0.9795  0.4068
   11HTM    C51  848   9.046   8.174   6.261  0.2296  0.0268 -0.1964
   11HTM    C52  849   8.946   8.096   6.310  0.4408 -0.1924 -0.1123
   11HTM    C53  850   8.878   8.153   6.424  0.3688 -0.3085 -0.0964
   11HTM    C54  851   8.927   8.274   6.462  0.1027 -0.1783 -0.1688
   11HTM     S6  852   9.063   8.327   6.355 -0.0794  0.1039 -0.2630
   12TAL    C55  853   8.757   8.088   6.485  0.2344  0.2667  0.8407
   12TAL    C56  854   8.624   8.131   6.418 -0.0919 -0.0614 -0.0716
   12TAL    C57  855   8.525   8.080   6.514 -1.3719  0.4452  0.2059
   12TAL    C58  856   8.381   8.096   6.471 -0.7603  0.7643  0.9821
   12TAL    C59  857   8.262   8.041   6.547 -0.2691  0.1598 -0.2863
   12TAL    C60  858   8.253   8.090   6.690  0.0558  0.1496 -0.1914
   13HTM    C61  859   8.905   8.366   6.567  0.1224  0.3224 -0.2281
   13HTM    C62  860   8.971   8.481   6.597 -0.0691  0.4048 -0.1175
   13HTM    C63  861   8.928   8.543   6.720 -0.2077  0.2441 -0.0845
   13HTM    C64  862   8.829   8.474   6.784 -0.1215  0.0390 -0.1699
   13HTM     S7  863   8.783   8.325   6.694  0.1433  0.0333 -0.2995
   14TAL    C65  864   8.993   8.666   6.776  0.1125  0.5800 -0.8415
   14TAL    C66  865   9.040   8.771   6.696 -0.8759 -0.9081  0.7302
   14TAL    C67  866   9.166   8.738   6.606  1.1021  1.2549 -0.4662
   14TAL    C68  867   9.227   8.816   6.495  0.1352 -0.0777 -1.3557
   14TAL    C69  868   9.377   8.804   6.449  0.0039  1.3774 -0.0642
   14TAL    C70  869   9.482   8.902   6.500 -0.3026 -0.1622 -0.4838
   15HTM    C71  870   8.771   8.499   6.915  0.2506  0.2609  0.4220
   15HTM    C72  871   8.659   8.573   6.943  0.3910  0.4849  0.3973
   15HTM    C73  872   8.637   8.593   7.084  0.4680  0.6366  0.3883
   15HTM    C74  873   8.731   8.535   7.163  0.3872  0.5282  0.4057
   15HTM     S8  874   8.856   8.450   7.066  0.2050  0.2238  0.4355
   16TAL    C75  875   8.532   8.693   7.115  0.9672 -0.9554  0.3358
   16TAL    C76  876   8.523   8.834   7.041 -0.1620  0.1170 -0.2247
   16TAL    C77  877   8.636   8.920   7.097  0.2542  0.0856 -0.5396
   16TAL    C78  878   8.621   9.062   7.057  0.3852 -2.2224  0.8909
   16TAL    C79  879   8.520   9.149   7.137  0.4194 -0.2112  0.0996
   16TAL    C80  880   8.517   9.157   7.281 -0.2947 -0.4279 -0.4562
   17HTM    C81  881   8.734   8.525   7.300 -0.4885  0.0120  0.0609
   17HTM    C82  882   8.844   8.506   7.379 -0.3297  0.3557 -0.0730
   17HTM    C83  883   8.814   8.491   7.519 -0.0632  0.7911  0.0350
   17HTM    C84  884   8.681   8.499   7.547 -0.0187  0.7794  0.2515
   17HTM     S9  885   8.583   8.526   7.398 -0.3122  0.2128  0.3363
   18TAL    C85  886   8.933   8.457   7.605 -0.6142 -1.3789  0.0805
   18TAL    C86  887   8.976   8.561   7.704  0.3817  0.3127 -0.2472
   18TAL    C87  888   9.044   8.510   7.826  0.6070  0.5780 -1.1614
   18TAL    C88  889   9.138   8.610   7.883  0.0504 -0.7484 -0.0949
   18TAL    C89  890   9.112   8.754   7.927  0.4788 -0.3697 -0.2759
   18TAL    C90  891   9.010   8.758   8.040 -0.5805 -0.8741  1.0984
   19HTM    C91  892   8.607   8.465   7.669 -0.1089  0.6369 -0.5594
   19HTM    C92  893   8.627   8.508   7.797 -0.0675  0.5834 -0.5484
   19HTM    C93  894   8.521   8.473   7.888  0.1302  0.2286 -0.4498
   19HTM    C94  895   8.419   8.404   7.829  0.2395  0.0113 -0.3855
   19HTM    S10  896   8.450   8.377   7.653  0.0997  0.2403 -0.4452
   20TAL    C95  897   8.521   8.524   8.038  0.4101  0.3627 -0.3163
   20TAL    C96  898   8.588   8.428   8.131  0.5109 -0.4510  0.0579
   20TAL    C97  899   8.645   8.472   8.261 -0.2739 -0.9984  0.2459
   20TAL    C98  900   8.725   8.603   8.257 -0.3419  0.6894 -0.2622
   20TAL    C99  901   8.752   8.653   8.395 -0.0119 -0.5347 -0.5473
   20TAL   C100  902   8.856   8.765   8.418 -0.2469 -0.0999 -0.2650
   21HTM   C101  903   8.296   8.369   7.887  0.2681 -0.7263 -0.1824
   21HTM   C102  904   8.175   8.412   7.840  0.4215 -0.3581 -0.2489
   21HTM   C103  905   8.062   8.359   7.913  0.2303  0.3521 -0.0160
   21HTM   C104  906   8.097   8.277   8.016 -0.0686  0.5256  0.2281
   21HTM    S11  907   8.276   8.259   8.028 -0.1327 -0.2003  0.1823
   22TAL   C105  908   7.929   8.401   7.872  0.4694  1.1175 -0.8691
   22TAL   C106  909   7.930   8.547   7.824  0.3854 -0.1841  0.3992
   22TAL   C107  910   7.892   8.639   7.935 -0.6855 -0.4305 -0.0912
   22TAL   C108  911   7.889   8.780   7.880  1.1081 -0.0871 -0.4426
   22TAL   C109  912   7.818   8.887   7.966 -0.2266 -0.5137 -0.3458
   22TAL   C110  913   7.827   9.022   7.908 -1.1599  0.1874  0.2949
   23HTM   C111  914   8.008   8.216   8.115  0.0665 -0.0751  0.0113
   23HTM   C112  915   7.914   8.275   8.194  0.1905  0.0761  0.0453
   23HTM   C113  916   7.821   8.183   8.254  0.2042  0.2027  0.2644
   23HTM   C114  917   7.844   8.053   8.220  0.0904  0.1481  0.3977
   23HTM    S12  918   7.985   8.037   8.110 -0.0438 -0.0689  0.2551
   24TAL   C115  919   7.690   8.234   8.312 -0.2705  0.8575  0.4737
   24TAL   C116  920   7.588   8.287   8.214  0.2620  0.3352  0.2641
   24TAL   C117  921   7.463   8.356   8.276 -0.2135 -0.2954 -0.3823
   24TAL   C118  922   7.501   8.476   8.352 -0.5671 -0.5747 -0.9195
   24TAL   C119  923   7.366   8.503   8.425  0.5660 -0.5121 -0.0078
   24TAL   C120  924   7.370   8.648   8.481 -0.9087  0.0832 -0.2793
   25HTM   C121  925   7.788   7.928   8.261  0.1961  0.7737  0.1279
   25HTM   C122  926   7.656   7.893   8.248  0.1601  0.9338  0.0622
   25HTM   C123  927   7.627   7.758   8.290  0.0590  0.8117 -0.3958
   25HTM   C124  928   7.737   7.690   8.334  0.0181  0.5583 -0.6797
   25HTM    S13  929   7.886   7.791   8.327  0.1047  0.4537 -0.3881
   26TAL   C125  930   7.486   7.694   8.281 -0.1820  0.0328 -0.8081
   26TAL   C126  931   7.366   7.751   8.357 -0.9695 -0.8586 -1.2312
   26TAL   C127  932   7.361   7.905   8.407  0.4302  0.6542 -0.7688
   26TAL   C128  933   7.238   7.911   8.505 -0.5947  0.2029 -0.7521
   26TAL   C129  934   7.205   8.051   8.572 -0.4401 -0.0787  0.0061
   26TAL   C130  935   7.100   8.052   8.690  0.7825  0.6860 -0.1469
   27HTM   C131  936   7.728   7.560   8.398 -0.1752 -0.6095  0.5529
   27HTM   C132  937   7.742   7.523   8.528 -0.7744 -1.0738  0.4907
   27HTM   C133  938   7.736   7.380   8.549 -1.0481 -1.1408 -0.0179
   27HTM   C134  939   7.718   7.309   8.434 -0.6573 -0.7275 -0.3439
   27HTM    S14  940   7.707   7.417   8.290  0.0922 -0.2176 -0.0315
   28TAL   C135  941   7.735   7.311   8.687 -0.8188 -0.2860  0.4880
   28TAL   C136  942   7.754   7.372   8.829  0.0329  0.2713 -0.3889
   28TAL   C137  943   7.872   7.464   8.851 -0.3544  0.0255 -0.3314
   28TAL   C138  944   7.924   7.453   8.991 -0.0639  0.1842 -0.1470
   28TAL   C139  945   8.061   7.515   9.011 -0.2582  0.7248 -0.6641
   28TAL   C140  946   8.048   7.591   9.146  0.1897 -0.3194  0.7822
   29HTM   C141  947   7.702   7.166   8.413 -1.1176  0.0184 -0.1290
   29HTM   C142  948   7.650   7.118   8.297 -1.7034 -0.3306  0.2694
   29HTM   C143  949   7.638   6.974   8.294 -0.8773 -0.4127  0.4294
   29HTM   C144  950   7.681   6.914   8.409  0.3383 -0.1267  0.1531
   29HTM    S15  951   7.741   7.034   8.529  0.5355  0.2722 -0.3342
   30TAL   C145  952   7.584   6.893   8.180 -0.3560  0.1885  0.5157
   30TAL   C146  953   7.454   6.924   8.108 -0.0970  0.1878 -0.5240
   30TAL   C147  954   7.458   7.046   8.026  0.2681 -0.2465  0.2277
   30TAL   C148  955   7.572   7.049   7.920 -0.3984 -1.7161 -0.0722
   30TAL   C149  956   7.573   7.186   7.835  0.4280  0.1876  1.0836
   30TAL   C150  957   7.567   7.328   7.885  0.2646 -0.4189 -0.0331
   31HTM   C151  958   7.677   6.780   8.472  0.1949 -0.2947 -0.4627
   31HTM   C152  959   7.787   6.701   8.488  0.0739 -0.4752 -0.5143
   31HTM   C153  960   7.768   6.596   8.585  0.0056 -0.3328 -0.3707
   31HTM   C154  961   7.644   6.595   8.642  0.0748 -0.0437 -0.2101
   31HTM    S16  962   7.540   6.727   8.578  0.2325  0.0719 -0.2272
   32TAL   C155  963   7.870   6.481   8.609  0.3892 -0.0423  0.3373
   32TAL   C156  964   7.888   6.380   8.492 -0.0073  0.2190  0.5540
   32TAL   C157  965   7.763   6.292   8.453  0.3777  0.1366 -0.1453
   32TAL   C158  966   7.731   6.189   8.566 -1.6567  0.1129  1.2067
   32TAL   C159  967   7.754   6.036   8.548  1.3736 -0.1513  0.1858
   32TAL   C160  968   7.895   6.001   8.490  1.2467  0.2160 -0.3668
   33HTM   C161  969   7.594   6.510   8.750  0.2834  0.0816 -0.1615
   33HTM   C162  970   7.472   6.449   8.750  0.3759 -0.1054 -0.4475
   33HTM   C163  971   7.443   6.377   8.871  0.2297 -0.2074 -0.5419
   33HTM   C164  972   7.543   6.383   8.964  0.0256 -0.0981 -0.3280
   33HTM    S17  973   7.682   6.481   8.904  0.0022  0.1441  0.0121
   34TAL   C165  974   7.318   6.280   8.876  0.3646 -0.6551 -0.2200
   34TAL   C166  975   7.191   6.313   8.787 -0.0825 -0.0303 -0.2311
   34TAL   C167  976   7.101   6.445   8.835  0.0849  0.6017  0.0206
   34TAL   C168  977   6.983   6.496   8.739  0.1630  0.9550  0.7176
   34TAL   C169  978   6.862   6.406   8.742 -0.2730 -0.8465  0.4207
   34TAL   C170  979   6.764   6.443   8.849  0.1013  1.1157 -1.5539
   35HTM   C171  980   7.553   6.323   9.094  0.8289  0.5518 -0.4638
   35HTM   C172  981   7.549   6.189   9.123  0.5577  0.4634 -0.8922
   35HTM   C173  982   7.561   6.160   9.263 -0.4990  0.0349 -0.8676
   35HTM   C174  983   7.575   6.271   9.342 -1.0332 -0.2033 -0.4207
   35HTM    S18  984   7.573   6.422   9.243 -0.2373  0.0974  0.0074
   36TAL   C175  985   7.554   6.018   9.320 -0.1732 -1.1592  0.4185
   36TAL   C176  986   7.565   5.892   9.239  0.3982  0.3481 -0.3095
   36TAL   C177  987   7.463   5.830   9.138  0.3374 -0.2025 -0.7380
   36TAL   C178  988   7.372   5.892   9.044  0.1477  0.1364  0.4206
   36TAL   C179  989   7.234   5.945   9.092  0.1457 -0.4332  0.5401
   36TAL   C180  990   7.133   5.983   8.977 -0.3590 -0.0545  0.1213
   37HTM   C181  991   7.597   6.281   9.481  0.0562  0.0698  0.0470
   37HTM   C182  992   7.690   6.223   9.562 -0.1076 -0.1516  0.0792
   37HTM   C183  993   7.683   6.267   9.699 -0.2515 -0.3697  0.1407
   37HTM   C184  994   7.584   6.357   9.722 -0.1972 -0.3143  0.1555
   37HTM    S19  995   7.492   6.396   9.572  0.0416  0.0201  0.0922
   38TAL   C185  996   7.770   6.210   9.815  0.3798  0.2043 -0.7507
   38TAL   C186  997   7.913   6.253   9.812  0.9995  0.3027  0.0755
   38TAL   C187  998   7.990   6.253   9.945 -0.2045  0.8500 -0.0265
   38TAL   C188  999   7.938   6.332  10.068  0.0090  0.6048  0.1747
   38TAL   C189 1000   7.922   6.479  10.039  0.2625  0.6210 -0.0720
   38TAL   C190 1001   7.917   6.570  10.161 -0.1287  0.0721  0.4097
   39HTM   C191 1002   7.519   6.405   9.833 -0.7214  0.6863 -0.1972
   39HTM   C192 1003   7.391   6.451   9.826 -1.0031  0.0240  0.3670
   39HTM   C193 1004   7.334   6.484   9.954 -0.7622 -0.6562  0.6610
   39HTM   C194 1005   7.418   6.464  10.059 -0.2966 -0.5125  0.3209
   39HTM    S20 1006   7.578   6.401  10.004 -0.1251  0.5009 -0.4026
   40TAL   C195 1007   7.195   6.549   9.973  0.1800 -1.0438  1.0685
   40TAL   C196 1008   7.095   6.561   9.848  1.1419 -0.7228  0.5180
   40TAL   C197 1009   6.958   6.589   9.910 -0.2455 -0.2319 -0.0651
   40TAL   C198 1010   6.842   6.606   9.823  1.0781  0.2384  0.2751
   40TAL   C199 1011   6.712   6.656   9.884  0.2814  0.5818 -0.2869
   40TAL   C200 1012   6.591   6.642   9.809 -0.2542  0.3352 -0.6548
   41HTM   C201 1013   7.403   6.484  10.195  1.0775  0.3465 -0.6191
   41HTM   C202 1014   7.339   6.588  10.258  0.9797  0.3078 -0.6546
   41HTM   C203 1015   7.355   6.588  10.401  0.0557 -0.2671 -0.5326
   41HTM   C204 1016   7.431   6.485  10.447 -0.5512 -0.6668 -0.4041
   41HTM    S21 1017   7.489   6.378  10.313  0.0016 -0.3455 -0.4275
   42TAL   C205 1018   7.304   6.712  10.478  0.0316 -0.4093  0.1662
   42TAL   C206 1019   7.189   6.788  10.414 -0.6825 -0.1023 -0.0677
   42TAL   C207 1020   7.122   6.866  10.522 -0.2065  0.1298 -1.0866
   42TAL   C208 1021   7.010   6.948  10.444  1.2081 -0.4937 -1.1275
   42TAL   C209 1022   6.909   7.005  10.553  1.4390  0.1633  0.0831
   42TAL   C210 1023   6.799   7.100  10.503 -0.4676  0.2448  0.7711
   43HTM   C211 1024   7.483   6.450  10.583 -0.9345  1.1586  0.1793
   43HTM   C212 1025   7.499   6.330  10.645 -1.6572  0.9013 -0.1088
   43HTM   C213 1026   7.572   6.339  10.769 -1.1368  0.0948 -0.3457
   43HTM   C214 1027   7.612   6.465  10.801 -0.0171 -0.2632 -0.2382
   43HTM    S22 1028   7.560   6.584  10.676  0.4705  0.3962  0.1738
   44TAL   C215 1029   7.608   6.208  10.840 -1.0370  0.4436 -0.5222
   44TAL   C216 1030   7.756   6.178  10.842  0.3714 -0.0219  0.5524
   44TAL   C217 1031   7.792   6.060  10.925  0.6700  0.6316 -0.8575
   44TAL   C218 1032   7.936   6.043  10.968 -0.1639 -0.5057  1.3014
   44TAL   C219 1033   8.038   6.006  10.846  0.3859 -1.2029 -0.0064
   44TAL   C220 1034   8.062   5.857  10.869 -0.5132 -0.3101  1.1908
   45HTM   C221 1035   7.692   6.520  10.916 -0.8368  0.3304  0.1677
   45HTM   C222 1036   7.787   6.616  10.897 -1.3566  0.7901 -0.1582
   45HTM   C223 1037   7.886   6.621  11.000 -0.9329  1.1611 -0.5726
   45HTM   C224 1038   7.868   6.528  11.099 -0.0902  0.9840 -0.5626
   45HTM    S23 1039   7.721   6.427  11.068  0.2365  0.3302 -0.0249
   46TAL   C225 1040   7.992   6.724  10.991 -0.7967 -1.2736  0.5104
   46TAL   C226 1041   7.959   6.858  11.063 -0.4707  0.6720  0.0591
   46TAL   C227 1042   8.084   6.922  11.121  0.0079 -0.4048  0.1863
   46TAL   C228 1043   8.069   7.000  11.250  0.2462  0.4134 -0.9632
   46TAL   C229 1044   8.206   7.003  11.338 -0.5033 -0.2327  0.8215
   46TAL   C230 1045   8.271   6.886  11.411  0.2041 -0.3567 -0.4711
   47HTM   C231 1046   7.962   6.490  11.205  0.0006 -0.0132 -0.1288
   47HTM   C232 1047   7.974   6.360  11.242  0.4154 -0.1500 -0.7239
   47HTM   C233 1048   8.080   6.336  11.337  0.5426 -0.2631 -0.8928
   47HTM   C234 1049   8.148   6.449  11.372  0.2256 -0.2124 -0.4266
   47HTM    S24 1050   8.083   6.594  11.288 -0.2633 -0.0166  0.2674
   48TAL   C235 1051   8.118   6.203  11.393  0.5461  0.2316  0.4524
   48TAL   C236 1052   8.143   6.106  11.273 -0.6547 -0.8618 -0.0126
   48TAL   C237 1053   8.160   5.961  11.291 -0.3650  0.5219 -0.7714
   48TAL   C238 1054   8.036   5.891  11.348 -0.5586  0.4888  0.3508
   48TAL   C239 1055   7.971   5.821  11.243  0.6675  0.4782 -0.3260
   48TAL   C240 1056   7.849   5.739  11.290 -0.5701 -0.1637  0.7641
    1HTM     C1 1057   3.683   5.454   3.581  0.0456 -0.3063  0.3806
    1HTM     C2 1058   3.580   5.543   3.582  0.2194 -0.0973  0.1292
    1HTM     C3 1059   3.610   5.666   3.650  0.4953  0.0827 -0.3087
    1HTM     C4 1060   3.736   5.671   3.701  0.5317  0.0112 -0.3911
    1HTM     S1 1061   3.828   5.520   3.667  0.2180 -0.2916  0.0814
    2TAL     C5 1062   3.490   5.761   3.665  0.4807 -0.2405  0.4847
    2TAL     C6 1063   3.507   5.908   3.690 -0.2387 -1.5363 -0.5213
    2TAL     C7 1064   3.389   5.983   3.758 -0.2026  0.0842  0.2270
    2TAL     C8 1065   3.415   6.131   3.785 -0.1859  0.7546 -0.2513
    2TAL     C9 1066   3.292   6.202   3.820  0.3840  0.9138  1.2538
    2TAL    C10 1067   3.317   6.311   3.907  0.1144  0.1566 -0.0036
    3HTM    C11 1068   3.773   5.744   3.825 -0.5721 -0.5455  0.4854
    3HTM    C12 1069   3.788   5.683   3.946 -0.9313  0.1471  0.8945
    3HTM    C13 1070   3.832   5.772   4.051 -0.7491  0.6579  0.3983
    3HTM    C14 1071   3.849   5.900   4.010 -0.2509  0.3547 -0.3889
    3HTM     S2 1072   3.813   5.920   3.835  0.0289 -0.6069 -0.5664
    4TAL    C15 1073   3.821   5.713   4.200 -1.1006  0.5178  1.1480
    4TAL    C16 1074   3.948   5.704   4.294  0.2136 -0.1874 -0.1459
    4TAL    C17 1075   3.917   5.641   4.428 -0.1579  0.2504 -0.1249
    4TAL    C18 1076   4.020   5.543   4.463 -0.2466 -0.3774 -0.4893
    4TAL    C19 1077   4.051   5.518   4.611 -0.5607 -0.1457  0.3342
    4TAL    C20 1078   4.089   5.649   4.698 -0.9145 -0.0485  0.2031
    5HTM    C21 1079   3.901   6.015   4.079 -0.0613 -0.2617  0.1626
    5HTM    C22 1080   4.003   6.025   4.169 -0.4888 -0.1649  0.6472
    5HTM    C23 1081   4.049   6.160   4.190 -0.5914 -0.1419  0.7257
    5HTM    C24 1082   3.981   6.253   4.116 -0.2421 -0.2212  0.3011
    5HTM     S3 1083   3.854   6.176   4.013  0.2473 -0.3319 -0.2353
    6TAL    C25 1084   4.163   6.199   4.282 -0.7413  0.2329  0.0399
    6TAL    C26 1085   4.207   6.102   4.393 -0.0698 -0.7208  0.7606
    6TAL    C27 1086   4.117   6.076   4.507  0.6007 -0.4427 -0.2099
    6TAL    C28 1087   4.053   6.183   4.596 -0.1850  0.3014 -0.9288
    6TAL    C29 1088   3.957   6.102   4.699  0.2469  0.2607 -0.0726
    6TAL    C30 1089   3.888   6.178   4.819  0.7558  0.3486 -0.1517
    7HTM    C31 1090   3.986   6.399   4.120 -0.3929  0.4074 -0.8501
    7HTM    C32 1091   3.891   6.487   4.162 -0.5659  0.6906 -1.7983
    7HTM    C33 1092   3.930   6.625   4.152 -0.1525  0.5860 -1.6605
    7HTM    C34 1093   4.056   6.643   4.102  0.3359  0.2231 -0.6072
    7HTM     S4 1094   4.135   6.485   4.065  0.3113 -0.0169  0.2993
    8TAL    C35 1095   3.856   6.743   4.226  0.5857  0.8214 -0.1564
    8TAL    C36 1096   3.833   6.731   4.386 -0.7663 -0.1737  1.0402
    8TAL    C37 1097   3.756   6.828   4.463  1.3442 -0.0044  0.3814
    8TAL    C38 1098   3.608   6.813   4.428 -0.2744 -0.3594  0.4974
    8TAL    C39 1099   3.541   6.909   4.522 -0.4897 -0.3280  0.3877
    8TAL    C40 1100   3.391   6.919   4.512 -0.5880  0.0737  0.2527
    9HTM    C41 1101   4.138   6.763   4.075  0.7909  0.2391  0.0960
    9HTM    C42 1102   4.239   6.770   3.983  0.8956  0.3392  0.2167
    9HTM    C43 1103   4.293   6.902   3.967  0.7300  0.4094  0.2260
    9HTM    C44 1104   4.235   6.996   4.047  0.4992  0.3633  0.1122
    9HTM     S5 1105   4.105   6.925   4.149  0.4728  0.2262 -0.0164
   10TAL    C45 1106   4.394   6.938   3.856  0.2196  0.2096  0.2478
   10TAL    C46 1107   4.330   6.959   3.723 -0.3538 -0.2795 -0.0052
   10TAL    C47 1108   4.422   6.985   3.606 -0.9238  0.5516  0.4848
   10TAL    C48 1109   4.450   6.844   3.531 -0.1590 -0.0454  1.4742
   10TAL    C49 1110   4.559   6.853   3.430 -1.2136  0.1590 -0.4121
   10TAL    C50 1111   4.708   6.842   3.495  0.7959  0.0136  0.0412
   11HTM    C51 1112   4.255   7.138   4.073  0.0211  0.4165  0.3419
   11HTM    C52 1113   4.153   7.225   4.095  0.1392  0.4187  0.9102
   11HTM    C53 1114   4.195   7.363   4.102  0.2155  0.3922  0.9862
   11HTM    C54 1115   4.329   7.381   4.084  0.1558  0.3701  0.4760
   11HTM     S6 1116   4.414   7.223   4.058 -0.0026  0.3809 -0.1451
   12TAL    C55 1117   4.091   7.469   4.123 -0.1295  0.5849  0.2530
   12TAL    C56 1118   4.037   7.518   4.245  0.4008  0.0015 -0.3664
   12TAL    C57 1119   4.027   7.409   4.357  0.4386 -0.4619 -0.4974
   12TAL    C58 1120   4.142   7.391   4.452  0.5340 -0.0854  0.1743
   12TAL    C59 1121   4.143   7.263   4.531 -1.0064 -0.9877 -0.2787
   12TAL    C60 1122   4.240   7.154   4.488 -0.1432  0.0164  0.3113
   13HTM    C61 1123   4.413   7.488   4.112 -0.3726  0.0675  0.6314
   13HTM    C62 1124   4.523   7.504   4.190 -0.2602 -0.0824  0.5057
   13HTM    C63 1125   4.570   7.640   4.197  0.0594 -0.1794  0.2838
   13HTM    C64 1126   4.496   7.728   4.124  0.1908 -0.1034  0.2403
   13HTM     S7 1127   4.359   7.645   4.040 -0.0810  0.0981  0.4781
   14TAL    C65 1128   4.694   7.681   4.279  0.3454  0.2328  0.0638
   14TAL    C66 1129   4.828   7.617   4.238  0.0407 -0.0473 -0.1217
   14TAL    C67 1130   4.958   7.698   4.261  0.7185  1.1629 -0.9523
   14TAL    C68 1131   5.089   7.618   4.239 -0.7707 -0.1649  0.0732
   14TAL    C69 1132   5.218   7.683   4.295 -0.3051  0.3884  0.8455
   14TAL    C70 1133   5.255   7.822   4.239  0.1313  0.3775 -0.0416
   15HTM    C71 1134   4.506   7.872   4.106 -0.6363 -0.0508 -0.3591
   15HTM    C72 1135   4.447   7.945   4.007 -0.5643  0.1022 -0.2892
   15HTM    C73 1136   4.465   8.087   4.022 -0.3825  0.0689 -0.1791
   15HTM    C74 1137   4.537   8.123   4.132 -0.3156 -0.1096 -0.1650
   15HTM     S8 1138   4.588   7.978   4.227 -0.4786 -0.2503 -0.2907
   16TAL    C75 1139   4.379   8.170   3.930  0.4604 -0.3087 -0.7622
   16TAL    C76 1140   4.452   8.234   3.807 -0.4115 -0.0526  0.3742
   16TAL    C77 1141   4.468   8.153   3.677 -0.0714 -0.5923 -0.3304
   16TAL    C78 1142   4.375   8.041   3.641 -0.0483  0.4980 -0.1874
   16TAL    C79 1143   4.241   8.066   3.577  0.9932  0.1443  0.5846
   16TAL    C80 1144   4.230   8.049   3.427 -0.0305  0.8960 -0.0124
   17HTM    C81 1145   4.577   8.261   4.174  0.6758 -0.2192  0.1869
   17HTM    C82 1146   4.529   8.329   4.282  0.2648  0.0336 -0.1488
   17HTM    C83 1147   4.571   8.466   4.287 -0.3461  0.2499 -0.6856
   17HTM    C84 1148   4.651   8.503   4.183 -0.4010  0.1619 -0.7589
   17HTM     S9 1149   4.680   8.366   4.070  0.3202 -0.2038 -0.1513
   18TAL    C85 1150   4.528   8.567   4.391 -0.2417 -0.6487  0.6308
   18TAL    C86 1151   4.379   8.605   4.393 -0.2783  0.7293  0.0498
   18TAL    C87 1152   4.313   8.691   4.504 -0.3310  0.9756 -0.7443
   18TAL    C88 1153   4.166   8.669   4.538  0.5667  0.0901 -0.7759
   18TAL    C89 1154   4.130   8.531   4.605  0.2609 -0.6546  0.0069
   18TAL    C90 1155   4.215   8.510   4.733 -1.1769  0.1344 -0.5748
   19HTM    C91 1156   4.704   8.626   4.135 -0.4601  0.4585 -0.2282
   19HTM    C92 1157   4.637   8.735   4.089 -0.1355  0.3979 -0.8652
   19HTM    C93 1158   4.724   8.840   4.041  0.1997  0.1869 -0.7265
   19HTM    C94 1159   4.856   8.810   4.051  0.1308  0.0869  0.0166
   19HTM    S10 1160   4.882   8.646   4.122 -0.3667  0.2527  0.6031
   20TAL    C95 1161   4.660   8.962   3.980  0.9878 -0.1631 -0.4218
   20TAL    C96 1162   4.548   9.040   4.057 -0.1881  0.2557  0.7025
   20TAL    C97 1163   4.562   9.055   4.205  0.3995  0.3668 -0.2003
   20TAL    C98 1164   4.462   9.166   4.246 -0.3951  1.0774  0.2270
   20TAL    C99 1165   4.476   9.182   4.395  0.2311  0.1074 -0.6815
   20TAL   C100 1166   4.370   9.276   4.460  0.1545 -0.3643  0.1098
   21HTM   C101 1167   4.971   8.895   4.022 -0.5331 -0.0031  0.1737
   21HTM   C102 1168   5.090   8.874   4.085 -0.6821  0.2146  0.5280
   21HTM   C103 1169   5.185   8.980   4.066 -0.5934  0.0911  0.2848
   21HTM   C104 1170   5.139   9.082   3.987 -0.3766 -0.2207 -0.2548
   21HTM    S11 1171   4.970   9.051   3.931 -0.2667 -0.3843 -0.4995
   22TAL   C105 1172   5.324   8.978   4.122 -0.1095 -0.7824 -0.9293
   22TAL   C106 1173   5.447   8.940   4.042  0.3040 -0.7453  1.0527
   22TAL   C107 1174   5.448   8.820   3.949  0.4933 -0.3304  0.1658
   22TAL   C108 1175   5.369   8.685   3.993  0.0079 -0.3479  0.8281
   22TAL   C109 1176   5.354   8.591   3.876  0.5917  0.8229 -0.6209
   22TAL   C110 1177   5.245   8.612   3.771 -0.4817  0.1901 -0.1270
   23HTM   C111 1178   5.208   9.194   3.927 -0.2137  0.7866 -0.4534
   23HTM   C112 1179   5.208   9.224   3.794 -0.0385  0.9859 -0.4092
   23HTM   C113 1180   5.316   9.311   3.755  0.3327  0.6127 -0.2340
   23HTM   C114 1181   5.398   9.347   3.857  0.4406  0.1294 -0.1445
   23HTM    S12 1182   5.345   9.274   4.013  0.0787  0.1069 -0.2758
   24TAL   C115 1183   5.333   9.358   3.608  0.6545  0.2280 -0.2598
   24TAL   C116 1184   5.294   9.257   3.498  0.0319 -0.5340 -0.1337
   24TAL   C117 1185   5.373   9.129   3.502  1.3089 -0.2726  0.5526
   24TAL   C118 1186   5.526   9.108   3.492  0.5295 -1.1169 -0.0769
   24TAL   C119 1187   5.585   8.970   3.472 -0.1583 -1.2304  0.1253
   24TAL   C120 1188   5.736   8.979   3.498  0.7627 -1.0867 -0.0860
   25HTM   C121 1189   5.526   9.408   3.846 -0.4564  0.0066 -0.6437
   25HTM   C122 1190   5.649   9.355   3.870 -0.5250 -0.1047 -0.5308
   25HTM   C123 1191   5.757   9.443   3.835 -0.4147 -0.1459 -0.2978
   25HTM   C124 1192   5.716   9.563   3.785 -0.2622 -0.0658 -0.2330
   25HTM    S13 1193   5.536   9.574   3.777 -0.2455  0.0693 -0.4629
   26TAL   C125 1194   5.902   9.389   3.841 -0.2697 -0.3215 -0.3358
   26TAL   C126 1195   5.937   9.322   3.980  0.4066  0.6821  0.2421
   26TAL   C127 1196   6.086   9.299   4.029  0.0692  0.4480 -1.1132
   26TAL   C128 1197   6.186   9.419   4.010 -0.5285 -0.0415  0.3352
   26TAL   C129 1198   6.242   9.441   3.863  0.2033 -0.3327 -0.2270
   26TAL   C130 1199   6.316   9.568   3.836 -0.2177 -0.3661  0.1913
   27HTM   C131 1200   5.782   9.680   3.730  0.0386 -0.1912 -0.6033
   27HTM   C132 1201   5.906   9.684   3.675  0.1146  0.0203 -0.4209
   27HTM   C133 1202   5.943   9.814   3.624  0.1273  0.1812 -0.0098
   27HTM   C134 1203   5.847   9.909   3.640  0.0612  0.0922  0.1212
   27HTM    S14 1204   5.701   9.841   3.722 -0.0231 -0.2037 -0.2674
   28TAL   C135 1205   6.074   9.834   3.538  0.0250  0.2155  0.1769
   28TAL   C136 1206   6.142   9.719   3.448  0.0913  0.3485 -0.6464
   28TAL   C137 1207   6.271   9.762   3.394  0.3012  0.4230 -0.5767
   28TAL   C138 1208   6.365   9.642   3.374  0.8229 -0.1795  0.4320
   28TAL   C139 1209   6.496   9.689   3.304 -0.4900  0.8756 -0.0804
   28TAL   C140 1210   6.590   9.582   3.234  0.5006  0.0796 -0.3847
   29HTM   C141 1211   5.849  10.044   3.596 -0.3008  0.3602  0.1935
   29HTM   C142 1212   5.891  10.156   3.661 -0.5075  0.2806  0.4696
   29HTM   C143 1213   5.853  10.279   3.595 -0.1053  0.3580  0.3787
   29HTM   C144 1214   5.782  10.260   3.480  0.4076  0.4966  0.0332
   29HTM    S15 1215   5.758  10.084   3.446  0.4230  0.5405 -0.2060
   30TAL   C145 1216   5.889  10.418   3.647  0.5310 -0.3602  0.2122
   30TAL   C146 1217   5.797  10.446   3.765 -0.1436  0.2499 -0.3380
   30TAL   C147 1218   5.855  10.538   3.866  0.3691 -0.4627 -0.7802
   30TAL   C148 1219   5.754  10.597   3.964  0.4588 -0.3585 -0.4755
   30TAL   C149 1220   5.812  10.721   4.042  0.1074  0.2368 -0.5777
   30TAL   C150 1221   5.705  10.795   4.118  0.1492 -0.1082 -0.7535
   31HTM   C151 1222   5.721  10.350   3.380 -0.4466 -0.2459 -0.0705
   31HTM   C152 1223   5.591  10.389   3.368 -0.3986 -0.1772 -0.3746
   31HTM   C153 1224   5.566  10.473   3.254 -0.1059 -0.2417 -0.4871
   31HTM   C154 1225   5.677  10.498   3.179  0.0692 -0.3596 -0.2690
   31HTM    S16 1226   5.823  10.417   3.248 -0.1234 -0.3986  0.0985
   32TAL   C155 1227   5.428  10.508   3.216  0.6121 -0.2668 -0.6423
   32TAL   C156 1228   5.300  10.413   3.219 -0.0057 -0.1117 -0.3040
   32TAL   C157 1229   5.315  10.280   3.145  0.0981  0.4676  0.1044
   32TAL   C158 1230   5.178  10.204   3.125  0.2051 -1.1314 -0.4474
   32TAL   C159 1231   5.110  10.233   2.994  1.0403 -0.7819 -0.4713
   32TAL   C160 1232   4.967  10.199   2.987  0.3587  0.4355  0.0782
   33HTM   C161 1233   5.695  10.580   3.057  0.3860  0.7938  0.1661
   33HTM   C162 1234   5.806  10.651   3.022  0.0789  1.3707  0.3407
   33HTM   C163 1235   5.785  10.738   2.909 -0.1869  1.2462  0.2918
   33HTM   C164 1236   5.659  10.733   2.858 -0.0824  0.5744  0.0800
   33HTM    S17 1237   5.555  10.617   2.950  0.3631  0.0427 -0.0753
   34TAL   C165 1238   5.904  10.808   2.849  0.4060  1.2768 -0.2020
   34TAL   C166 1239   5.920  10.958   2.827  0.5899 -0.4431  0.4525
   34TAL   C167 1240   5.962  11.037   2.954 -0.8894 -0.2308  0.3345
   34TAL   C168 1241   5.867  11.061   3.065 -0.3343 -1.1168 -0.7679
   34TAL   C169 1242   5.903  11.192   3.137 -0.4799  0.0180  0.2886
   34TAL   C170 1243   5.849  11.202   3.280 -0.3168 -0.0204  1.1647
   35HTM   C171 1244   5.577  10.815   2.770 -0.1656  0.7306 -0.2039
   35HTM   C172 1245   5.455  10.866   2.804 -0.3287  0.5432 -0.5068
   35HTM   C173 1246   5.390  10.937   2.697 -0.3090  0.1854 -0.7618
   35HTM   C174 1247   5.463  10.942   2.582 -0.1311  0.1000 -0.6533
   35HTM    S18 1248   5.620  10.855   2.599  0.0268  0.4677 -0.2172
   36TAL   C175 1249   5.254  11.006   2.716  0.9064  1.4088  0.3324
   36TAL   C176 1250   5.171  10.961   2.834  0.2959 -0.5618  0.7041
   36TAL   C177 1251   5.026  10.978   2.815  0.2110  0.2025  0.4958
   36TAL   C178 1252   4.933  10.948   2.929  2.0242  0.3281 -1.4611
   36TAL   C179 1253   4.777  10.916   2.905  0.3499 -0.2423  0.6027
   36TAL   C180 1254   4.698  11.006   2.805  1.1335  0.1535 -0.9549
   37HTM   C181 1255   5.436  10.997   2.454 -0.1944 -0.7717  0.0159
   37HTM   C182 1256   5.328  11.054   2.393 -0.1318 -0.6391  0.0283
   37HTM   C183 1257   5.351  11.087   2.254  0.1416  0.0238  0.2232
   37HTM   C184 1258   5.476  11.055   2.210  0.2875  0.3966  0.3593
   37HTM    S19 1259   5.575  10.980   2.341  0.0892 -0.0642  0.2511
   38TAL   C185 1260   5.244  11.126   2.156 -0.0567  0.8720 -1.3883
   38TAL   C186 1261   5.197  11.277   2.176 -0.5182 -0.4468 -1.0422
   38TAL   C187 1262   5.293  11.393   2.161  0.4694 -0.2574  0.2403
   38TAL   C188 1263   5.285  11.507   2.259  1.1157 -0.4253 -0.3693
   38TAL   C189 1264   5.306  11.481   2.418 -0.5323 -0.0766 -0.3373
   38TAL   C190 1265   5.311  11.619   2.487 -1.1231  0.5325  0.3927
   39HTM   C191 1266   5.545  11.056   2.074 -0.0549 -0.1960  0.0331
   39HTM   C192 1267   5.640  10.969   2.027  0.2023  0.1125 -0.0285
   39HTM   C193 1268   5.678  10.993   1.891  0.2319  0.4059  0.0301
   39HTM   C194 1269   5.614  11.098   1.833 -0.0027  0.3212  0.1363
   39HTM    S20 1270   5.498  11.176   1.948 -0.2812 -0.1393  0.1709
   40TAL   C195 1271   5.772  10.890   1.830 -0.0081 -0.0264 -0.2741
   40TAL   C196 1272   5.900  10.847   1.907 -0.0868  0.1541  0.2148
   40TAL   C197 1273   6.030  10.858   1.839  0.9355  0.2077  0.3631
   40TAL   C198 1274   6.070  10.737   1.764  1.2816  0.4019 -0.2112
   40TAL   C199 1275   6.111  10.604   1.834 -0.0496 -0.1524 -0.8423
   40TAL   C200 1276   6.231  10.544   1.759 -0.8097  0.0845  0.2890
   41HTM   C201 1277   5.622  11.168   1.705 -0.3178 -0.1387  0.2715
   41HTM   C202 1278   5.530  11.247   1.642 -0.3593 -0.2058  0.2486
   41HTM   C203 1279   5.583  11.321   1.531 -0.3169  0.0629  0.4481
   41HTM   C204 1280   5.716  11.300   1.509 -0.2430  0.3348  0.6230
   41HTM    S21 1281   5.785  11.183   1.628 -0.2211  0.2721  0.5489
   42TAL   C205 1282   5.497  11.397   1.435 -0.6423 -1.0863  0.7502
   42TAL   C206 1283   5.386  11.325   1.349 -0.0544  0.0621 -0.5045
   42TAL   C207 1284   5.423  11.221   1.240 -0.2894  0.0008 -0.1711
   42TAL   C208 1285   5.421  11.257   1.093 -0.7509 -0.3610  1.0530
   42TAL   C209 1286   5.298  11.310   1.011 -0.6244 -0.4046  0.5709
   42TAL   C210 1287   5.375  11.370   0.896 -0.7589 -0.7535  0.0933
   43HTM   C211 1288   5.818  11.351   1.416  0.3077  0.8307  0.2545
   43HTM   C212 1289   5.809  11.396   1.287  0.0834  1.8479  0.6028
   43HTM   C213 1290   5.937  11.423   1.226  0.0076  1.7994  0.4220
   43HTM   C214 1291   6.043  11.399   1.308  0.1744  0.7453 -0.0643
   43HTM    S22 1292   5.990  11.340   1.470  0.4420 -0.2758 -0.3336
   44TAL   C215 1293   5.945  11.460   1.079  1.4392 -1.5021 -0.7127
   44TAL   C216 1294   5.911  11.341   0.987  0.7310  0.8037 -1.1799
   44TAL   C217 1295   5.931  11.395   0.844  0.0147  1.1647  0.0769
   44TAL   C218 1296   5.869  11.300   0.740  0.5102 -0.9464 -0.1499
   44TAL   C219 1297   5.855  11.358   0.600 -0.5026  0.1473  0.1838
   44TAL   C220 1298   5.974  11.319   0.504  0.5655 -0.6752 -0.4500
   45HTM   C221 1299   6.184  11.415   1.305 -0.2145 -0.3827  0.5775
   45HTM   C222 1300   6.268  11.334   1.235  0.0256 -0.7119  1.2285
   45HTM   C223 1301   6.404  11.380   1.232 -0.0540 -0.4771  1.1012
   45HTM   C224 1302   6.425  11.496   1.301 -0.3548  0.0313  0.3531
   45HTM    S23 1303   6.271  11.557   1.374 -0.5622  0.2545 -0.2533
   46TAL   C225 1304   6.507  11.301   1.147 -0.0380 -0.6661  0.5089
   46TAL   C226 1305   6.460  11.220   1.019 -0.1187 -0.5188  0.5989
   46TAL   C227 1306   6.572  11.164   0.926  0.0444 -0.7639 -0.5205
   46TAL   C228 1307   6.682  11.253   0.879  0.3039  0.2944 -0.7365
   46TAL   C229 1308   6.789  11.191   0.808 -0.6588  0.7736  0.6818
   46TAL   C230 1309   6.764  11.111   0.682 -0.1928  0.3079  0.5487
   47HTM   C231 1310   6.537  11.568   1.330 -0.1088 -0.5191  0.4679
   47HTM   C232 1311   6.576  11.615   1.452  0.3560 -1.4912  0.7110
   47HTM   C233 1312   6.699  11.689   1.450  0.2692 -1.3428  0.8001
   47HTM   C234 1313   6.755  11.699   1.326 -0.2619 -0.2576  0.6249
   47HTM    S24 1314   6.655  11.615   1.202 -0.6966  0.6683  0.3315
   48TAL   C235 1315   6.747  11.738   1.582 -0.3013 -0.3082  1.2959
   48TAL   C236 1316   6.858  11.839   1.590  0.1720 -0.8125 -0.6170
   48TAL   C237 1317   6.800  11.974   1.656 -0.6172 -0.4390 -0.1035
   48TAL   C238 1318   6.909  12.077   1.714  0.7223  0.8775 -0.7709
   48TAL   C239 1319   7.038  12.118   1.646  0.0532  0.9637 -0.4148
   48TAL   C240 1320   7.021  12.171   1.513 -0.2351 -0.0898 -0.3273
    1HTM     C1 1321   7.827   3.369   3.811 -0.5262  0.3205 -0.3253
    1HTM     C2 1322   7.721   3.388   3.727 -0.3148  0.3660 -0.5835
    1HTM     C3 1323   7.734   3.320   3.601 -0.1055  0.2385 -0.4942
    1HTM     C4 1324   7.850   3.248   3.589 -0.1571  0.0957 -0.1678
    1HTM     S1 1325   7.952   3.262   3.737 -0.4767  0.1114  0.0537
    2TAL     C5 1326   7.627   3.344   3.498 -0.1651 -0.5545  0.8697
    2TAL     C6 1327   7.551   3.228   3.436 -1.0263  0.7995  0.2089
    2TAL     C7 1328   7.454   3.253   3.309  0.1898  0.4652 -0.5473
    2TAL     C8 1329   7.309   3.285   3.356 -0.9393 -0.4866  0.0590
    2TAL     C9 1330   7.203   3.268   3.257 -0.4178  0.5914  0.3914
    2TAL    C10 1331   7.070   3.296   3.316 -0.1067  0.9095  0.0380
    3HTM    C11 1332   7.901   3.165   3.479 -0.1764 -0.1310  0.4205
    3HTM    C12 1333   7.874   3.186   3.347  0.3312  0.2113  0.3695
    3HTM    C13 1334   7.939   3.092   3.259  0.4809  0.2961  0.3880
    3HTM    C14 1335   8.014   2.999   3.324  0.0872  0.0183  0.4529
    3HTM     S2 1336   8.009   3.023   3.503 -0.5075 -0.3748  0.4961
    4TAL    C15 1337   7.919   3.102   3.109  1.0446  0.8314  0.3453
    4TAL    C16 1338   7.780   3.103   3.049  0.0198  0.2243  0.5612
    4TAL    C17 1339   7.694   2.978   3.043 -0.2089  0.4323 -0.1392
    4TAL    C18 1340   7.770   2.860   2.989  0.6687  0.4596  0.5326
    4TAL    C19 1341   7.852   2.858   2.854  0.5835  0.2136 -0.0193
    4TAL    C20 1342   7.923   2.718   2.831  1.2184 -0.3759  0.4962
    5HTM    C21 1343   8.105   2.902   3.275 -0.1199 -0.5112  0.1948
    5HTM    C22 1344   8.114   2.773   3.317  0.5381 -0.4001  0.4172
    5HTM    C23 1345   8.214   2.697   3.246  0.8450 -0.0518  0.4668
    5HTM    C24 1346   8.280   2.768   3.150  0.4208  0.1027  0.2824
    5HTM     S3 1347   8.222   2.939   3.143 -0.4055 -0.1820  0.0297
    6TAL    C25 1348   8.248   2.552   3.276  0.5437 -1.0449  0.3730
    6TAL    C26 1349   8.358   2.533   3.376 -0.9214 -0.4371  0.5525
    6TAL    C27 1350   8.392   2.397   3.438 -0.0457 -0.4125 -0.4224
    6TAL    C28 1351   8.285   2.305   3.475  0.8367 -0.1512 -0.2688
    6TAL    C29 1352   8.322   2.163   3.467  1.4669  0.3112  0.4971
    6TAL    C30 1353   8.208   2.062   3.477  0.6882  1.1607 -0.2461
    7HTM    C31 1354   8.377   2.733   3.053  0.2412  0.5286 -0.0176
    7HTM    C32 1355   8.356   2.649   2.947  0.0868  0.2692  0.2163
    7HTM    C33 1356   8.457   2.658   2.845  0.1426 -0.2560  0.2208
    7HTM    C34 1357   8.556   2.748   2.873  0.3392 -0.3970 -0.0095
    7HTM     S4 1358   8.528   2.830   3.031  0.4708  0.1267 -0.2520
    8TAL    C35 1359   8.463   2.576   2.719 -0.2803  0.2711  0.4098
    8TAL    C36 1360   8.348   2.586   2.616  0.4627 -0.3762  0.2996
    8TAL    C37 1361   8.269   2.726   2.613 -0.9622  0.6513 -0.2850
    8TAL    C38 1362   8.305   2.791   2.484  0.5648  0.1763  0.3074
    8TAL    C39 1363   8.189   2.868   2.427 -0.4072 -0.3877  0.0056
    8TAL    C40 1364   8.114   2.778   2.335  0.3422 -0.0753 -0.8329
    9HTM    C41 1365   8.657   2.806   2.782 -0.0229  0.3070  0.2990
    9HTM    C42 1366   8.628   2.881   2.672  0.0474  0.3241  0.2921
    9HTM    C43 1367   8.744   2.928   2.602  0.0949 -0.2233 -0.0063
    9HTM    C44 1368   8.862   2.889   2.658  0.0603 -0.6580 -0.2269
    9HTM     S5 1369   8.835   2.789   2.806 -0.0347 -0.4076 -0.0736
   10TAL    C45 1370   8.727   3.013   2.475 -0.3450  0.2205 -0.3869
   10TAL    C46 1371   8.659   3.152   2.494  0.2463 -0.9706  0.8345
   10TAL    C47 1372   8.644   3.242   2.372  0.2571  0.2900  0.1322
   10TAL    C48 1373   8.514   3.235   2.286 -0.1238 -0.2526  0.5499
   10TAL    C49 1374   8.401   3.317   2.338  0.2553 -0.3763  0.2825
   10TAL    C50 1375   8.267   3.326   2.263  0.7041 -0.0225  0.0300
   11HTM    C51 1376   9.003   2.934   2.625  0.4353  0.0984  0.4231
   11HTM    C52 1377   9.114   2.883   2.685  0.6893 -0.3214 -0.3622
   11HTM    C53 1378   9.238   2.930   2.628  0.4723 -0.6688 -1.1397
   11HTM    C54 1379   9.220   3.016   2.523  0.0529 -0.5139 -0.9472
   11HTM     S6 1380   9.045   3.045   2.489 -0.1014  0.0875  0.2401
   12TAL    C55 1381   9.370   2.867   2.677 -0.3436  1.2876 -0.2894
   12TAL    C56 1382   9.379   2.737   2.763 -0.1207 -0.1020 -0.1116
   12TAL    C57 1383   9.425   2.600   2.692 -0.2273  0.3391 -0.2753
   12TAL    C58 1384   9.326   2.536   2.599  0.5431 -0.4863 -0.0172
   12TAL    C59 1385   9.174   2.519   2.621 -0.7764 -1.1347  0.1947
   12TAL    C60 1386   9.128   2.424   2.713  0.1144  1.1564 -0.7285
   13HTM    C61 1387   9.305   3.066   2.420  0.1095 -0.4623  0.1106
   13HTM    C62 1388   9.429   3.121   2.430  0.2775 -0.9119  0.6173
   13HTM    C63 1389   9.501   3.124   2.306  0.6282 -0.7868  0.8218
   13HTM    C64 1390   9.433   3.071   2.201  0.7279 -0.2418  0.4709
   13HTM     S7 1391   9.270   3.012   2.252  0.3833  0.1588 -0.1496
   14TAL    C65 1392   9.635   3.196   2.302 -0.5904 -0.2712 -0.0933
   14TAL    C66 1393   9.768   3.141   2.255 -0.7846  0.0576  0.1544
   14TAL    C67 1394   9.891   3.234   2.271 -0.1858 -0.6672  0.9857
   14TAL    C68 1395   9.899   3.295   2.404 -0.5699 -0.8142  0.1544
   14TAL    C69 1396  10.004   3.398   2.402 -0.2362 -0.3503 -0.5362
   14TAL    C70 1397  10.026   3.457   2.545 -0.2894  0.3765  0.0355
   15HTM    C71 1398   9.457   3.065   2.065 -0.0203 -0.2571 -0.2292
   15HTM    C72 1399   9.506   2.962   1.990 -0.3862 -0.3831 -0.2992
   15HTM    C73 1400   9.526   2.997   1.851 -0.2565 -0.3577 -0.2742
   15HTM    C74 1401   9.492   3.125   1.821  0.2086 -0.2124 -0.1851
   15HTM     S8 1402   9.432   3.214   1.967  0.5212 -0.0954 -0.1256
   16TAL    C75 1403   9.560   2.880   1.750  0.3376  0.1083 -0.8841
   16TAL    C76 1404   9.457   2.763   1.732 -0.2402  0.8257  0.7776
   16TAL    C77 1405   9.327   2.783   1.664  0.4246  0.0485  0.5126
   16TAL    C78 1406   9.355   2.846   1.531  0.7106  0.2737  0.5572
   16TAL    C79 1407   9.247   2.916   1.460 -0.2682 -0.3737  1.0787
   16TAL    C80 1408   9.285   2.943   1.306 -0.5872  0.9884 -0.2610
   17HTM    C81 1409   9.511   3.197   1.693 -0.1581 -1.0532 -0.4982
   17HTM    C82 1410   9.631   3.218   1.631 -0.3030 -1.2746 -0.8643
   17HTM    C83 1411   9.619   3.278   1.501 -0.5729 -0.7805 -0.6182
   17HTM    C84 1412   9.490   3.302   1.463 -0.6338 -0.1825 -0.0645
   17HTM     S9 1413   9.373   3.251   1.590 -0.3527 -0.1970  0.1911
   18TAL    C85 1414   9.746   3.317   1.414  1.1092 -1.2984 -0.1561
   18TAL    C86 1415   9.873   3.238   1.422  0.1184 -0.2152  0.6580
   18TAL    C87 1416   9.869   3.087   1.442 -0.0255 -0.5140 -0.5926
   18TAL    C88 1417   9.786   3.020   1.330  0.3761 -0.2234  1.0642
   18TAL    C89 1418   9.844   2.902   1.248  0.0331  0.8108  0.8417
   18TAL    C90 1419   9.790   2.755   1.278  0.3321 -0.1116 -1.2374
   19HTM    C91 1420   9.455   3.386   1.355 -0.3123  0.6269  0.2063
   19HTM    C92 1421   9.431   3.521   1.354  0.0465  0.6962 -0.5225
   19HTM    C93 1422   9.398   3.573   1.224  0.5841  0.1555 -0.8844
   19HTM    C94 1423   9.397   3.478   1.126  0.6356 -0.3261 -0.4316
   19HTM    S10 1424   9.438   3.315   1.191  0.0040 -0.1326  0.4943
   20TAL    C95 1425   9.341   3.714   1.204  0.7007 -0.2463  0.3314
   20TAL    C96 1426   9.197   3.762   1.244 -0.0476  0.4411  0.1733
   20TAL    C97 1427   9.180   3.901   1.188  0.4950  0.1482  0.7627
   20TAL    C98 1428   9.067   4.004   1.226  0.2102  0.0770  0.6311
   20TAL    C99 1429   8.943   3.956   1.172  0.8041 -0.3024 -0.7735
   20TAL   C100 1430   8.831   3.956   1.278  0.2311 -0.0871  0.9103
   21HTM   C101 1431   9.388   3.484   0.981 -0.6953 -0.2058  0.7487
   21HTM   C102 1432   9.454   3.394   0.903 -0.6299 -0.3232  0.9375
   21HTM   C103 1433   9.433   3.413   0.762 -0.2470 -0.3281  0.8765
   21HTM   C104 1434   9.351   3.518   0.733 -0.0201 -0.2144  0.6412
   21HTM    S11 1435   9.294   3.602   0.882 -0.2750 -0.0914  0.4771
   22TAL   C105 1436   9.515   3.332   0.655 -0.0518 -0.2777  0.0697
   22TAL   C106 1437   9.454   3.194   0.635  0.4449  1.4780 -0.3662
   22TAL   C107 1438   9.475   3.097   0.753  0.3755  0.7534  0.0507
   22TAL   C108 1439   9.407   2.953   0.759  0.3132 -0.1214  0.5289
   22TAL   C109 1440   9.256   2.949   0.740 -0.1328  0.9098  0.1141
   22TAL   C110 1441   9.189   2.989   0.875 -0.5046  0.6664 -0.6057
   23HTM   C111 1442   9.307   3.566   0.601  0.2541  0.1805  0.2852
   23HTM   C112 1443   9.200   3.535   0.523 -0.2134  1.1494  0.5105
   23HTM   C113 1444   9.207   3.590   0.390 -0.3057  1.5931  0.6848
   23HTM   C114 1445   9.320   3.663   0.367  0.0917  0.9627  0.5924
   23HTM    S12 1446   9.427   3.668   0.513  0.6172 -0.2499  0.2756
   24TAL   C115 1447   9.088   3.565   0.298 -0.2396  1.5166  0.5116
   24TAL   C116 1448   9.094   3.564   0.146 -0.5709 -0.2024  1.1011
   24TAL   C117 1449   8.955   3.541   0.097 -0.8323  0.0676  0.9602
   24TAL   C118 1450   8.954   3.535  -0.057  1.1885 -0.4326  0.3129
   24TAL   C119 1451   8.818   3.477  -0.083 -0.0418  0.0809 -0.1069
   24TAL   C120 1452   8.785   3.334  -0.035  1.1102  0.4269 -0.1736
   25HTM   C121 1453   9.379   3.711   0.240 -0.0210  0.1211 -0.2324
   25HTM   C122 1454   9.453   3.645   0.146  0.1597  0.0452 -0.0389
   25HTM   C123 1455   9.481   3.724   0.028  0.3378 -0.0675 -0.0730
   25HTM   C124 1456   9.428   3.850   0.033  0.2931 -0.0777 -0.2924
   25HTM    S13 1457   9.339   3.879   0.187  0.0201  0.0555 -0.4745
   26TAL   C125 1458   9.568   3.668  -0.078 -0.1882 -0.5575 -0.3480
   26TAL   C126 1459   9.521   3.539  -0.141 -1.2037  0.9709 -0.5806
   26TAL   C127 1460   9.403   3.526  -0.217 -0.4623  0.8279  0.9911
   26TAL   C128 1461   9.358   3.612  -0.341 -1.2687 -0.6552 -0.4069
   26TAL   C129 1462   9.423   3.580  -0.479 -0.4748  0.2591  0.8641
   26TAL   C130 1463   9.508   3.460  -0.481  1.1879  0.2699 -0.8088
   27HTM   C131 1464   9.443   3.965  -0.051  0.1606 -0.3391  0.8968
   27HTM   C132 1465   9.447   3.967  -0.187  0.2964 -0.5254  0.8972
   27HTM   C133 1466   9.434   4.099  -0.244  0.1113 -0.6269  0.6976
   27HTM   C134 1467   9.421   4.198  -0.150 -0.1655 -0.5182  0.5454
   27HTM    S14 1468   9.423   4.131   0.017 -0.2142 -0.2771  0.6427
   28TAL   C135 1469   9.421   4.127  -0.397 -0.4461  0.7234  0.4329
   28TAL   C136 1470   9.456   4.015  -0.481  0.5112  0.8126  0.4575
   28TAL   C137 1471   9.482   4.047  -0.632  0.3704 -0.1230  0.4696
   28TAL   C138 1472   9.610   4.124  -0.674 -0.1488 -0.2267 -0.1772
   28TAL   C139 1473   9.675   4.242  -0.592 -0.4350  0.1767  0.1162
   28TAL   C140 1474   9.604   4.374  -0.575  0.8115 -0.1053 -0.1172
   29HTM   C141 1475   9.409   4.344  -0.159  0.5214 -0.4735  0.6759
   29HTM   C142 1476   9.291   4.409  -0.181  0.2007 -1.0301  0.7005
   29HTM   C143 1477   9.304   4.552  -0.182 -0.3757 -0.9743  0.1070
   29HTM   C144 1478   9.431   4.596  -0.161 -0.4944 -0.3751 -0.3701
   29HTM    S15 1479   9.546   4.459  -0.138  0.1175  0.1692 -0.1051
   30TAL   C145 1480   9.183   4.648  -0.211  0.0053  0.1215 -0.2943
   30TAL   C146 1481   9.102   4.637  -0.341 -0.8177 -0.2080  0.8213
   30TAL   C147 1482   9.002   4.753  -0.358 -0.6592  0.6637 -0.4506
   30TAL   C148 1483   8.931   4.750  -0.488  0.2660  0.4183  0.1147
   30TAL   C149 1484   8.869   4.875  -0.540  1.2070 -0.0371  1.1033
   30TAL   C150 1485   8.953   5.000  -0.546  1.1577  0.1079  0.0242
   31HTM   C151 1486   9.506   4.730  -0.138  0.2128 -0.1267  0.0961
   31HTM   C152 1487   9.641   4.754  -0.142  0.2520 -0.3551  0.0265
   31HTM   C153 1488   9.675   4.893  -0.134  0.4961 -0.4175  0.0730
   31HTM   C154 1489   9.567   4.976  -0.124  0.6437 -0.2365  0.1780
   31HTM    S16 1490   9.413   4.884  -0.124  0.4839  0.0286  0.2269
   32TAL   C155 1491   9.816   4.943  -0.153 -0.8669  1.7759 -0.3279
   32TAL   C156 1492   9.888   5.009  -0.028  0.6676  0.3577 -0.1324
   32TAL   C157 1493   9.996   4.916   0.007 -0.6309 -0.5841 -0.5704
   32TAL   C158 1494  10.110   4.967   0.093  0.4838  0.2556 -0.2904
   32TAL   C159 1495  10.208   4.864   0.108 -0.5930  0.8270 -0.4445
   32TAL   C160 1496  10.328   4.925   0.175  0.5295  0.0394 -0.1787
   33HTM   C161 1497   9.555   5.119  -0.119 -0.1510 -0.1736 -0.5942
   33HTM   C162 1498   9.644   5.207  -0.065 -0.0045 -0.2627 -0.6917
   33HTM   C163 1499   9.609   5.345  -0.084  0.1125 -0.2271 -0.6521
   33HTM   C164 1500   9.492   5.363  -0.152  0.0548 -0.1111 -0.5244
   33HTM    S17 1501   9.418   5.205  -0.198 -0.1532 -0.0370 -0.4437
   34TAL   C165 1502   9.706   5.447  -0.021  0.1087 -0.0431 -0.3571
   34TAL   C166 1503   9.718   5.466   0.137 -0.3157 -0.2041 -0.2588
   34TAL   C167 1504   9.865   5.515   0.164  0.0088  0.1349  0.1014
   34TAL   C168 1505   9.887   5.539   0.308  0.7662 -0.8358  0.1014
   34TAL   C169 1506  10.040   5.580   0.324  0.2898  1.0293 -0.5646
   34TAL   C170 1507  10.064   5.662   0.444  0.5768  0.7108 -0.0068
   35HTM   C171 1508   9.440   5.494  -0.191  0.0627  0.6528 -0.0117
   35HTM   C172 1509   9.317   5.536  -0.150  0.1006  0.6471  0.1080
   35HTM   C173 1510   9.287   5.672  -0.186 -0.0186  0.5836 -0.0362
   35HTM   C174 1511   9.387   5.734  -0.254 -0.1468  0.5408 -0.2660
   35HTM    S18 1512   9.528   5.625  -0.278 -0.1272  0.5774 -0.3184
   36TAL   C175 1513   9.135   5.716  -0.164  0.0028  0.1708 -0.1897
   36TAL   C176 1514   9.096   5.728  -0.025 -0.6704 -1.0105 -0.4382
   36TAL   C177 1515   9.112   5.866   0.034  0.0370 -0.0109  0.4374
   36TAL   C178 1516   9.119   5.885   0.187 -0.1458  0.0730  0.9245
   36TAL   C179 1517   9.268   5.881   0.239  0.7383  0.3916  0.0147
   36TAL   C180 1518   9.263   5.862   0.398  0.5635  0.4930  0.4828
   37HTM   C181 1519   9.407   5.868  -0.304 -0.3476  0.0417 -0.7564
   37HTM   C182 1520   9.332   5.936  -0.395 -0.1826 -0.0232 -0.9437
   37HTM   C183 1521   9.391   6.059  -0.439 -0.1342 -0.0209 -0.8712
   37HTM   C184 1522   9.512   6.085  -0.381 -0.2632  0.0458 -0.6293
   37HTM    S19 1523   9.560   5.955  -0.266 -0.4564  0.1115 -0.4726
   38TAL   C185 1524   9.345   6.131  -0.569  0.0815  0.4916 -0.2510
   38TAL   C186 1525   9.206   6.213  -0.562 -0.0492  0.4591  0.9686
   38TAL   C187 1526   9.141   6.276  -0.446 -1.5639 -0.3919 -1.0075
   38TAL   C188 1527   9.003   6.334  -0.483 -0.7287  0.6150 -0.2559
   38TAL   C189 1528   8.895   6.220  -0.462  0.2520 -0.9605 -0.1525
   38TAL   C190 1529   8.809   6.205  -0.582 -0.6600 -0.5864  0.3473
   39HTM   C191 1530   9.615   6.190  -0.399  0.1578  0.5431  0.5584
   39HTM   C192 1531   9.738   6.196  -0.342 -0.0525  0.9854  0.9811
   39HTM   C193 1532   9.817   6.308  -0.385 -0.0587  0.8948  0.7312
   39HTM   C194 1533   9.753   6.388  -0.476  0.1473  0.3838  0.1177
   39HTM    S20 1534   9.588   6.327  -0.513  0.3661 -0.0263 -0.1941
   40TAL   C195 1535   9.958   6.338  -0.335 -0.6669  1.0881  0.9292
   40TAL   C196 1536  10.051   6.207  -0.374 -0.4702 -0.0973  0.5872
   40TAL   C197 1537  10.203   6.212  -0.316 -0.3194 -0.0530  0.6102
   40TAL   C198 1538  10.275   6.336  -0.372  0.1884  0.0313  0.4851
   40TAL   C199 1539  10.303   6.343  -0.533  0.0168 -0.0802 -0.7588
   40TAL   C200 1540  10.362   6.476  -0.588 -0.0102  0.5346  0.0237
   41HTM   C201 1541   9.795   6.501  -0.562 -0.0360  0.4460 -0.0285
   41HTM   C202 1542   9.834   6.627  -0.524 -1.3403  1.0008 -0.4265
   41HTM   C203 1543   9.880   6.709  -0.634 -1.7110  0.9558 -0.6187
   41HTM   C204 1544   9.876   6.646  -0.755 -0.6894  0.3668 -0.3669
   41HTM    S21 1545   9.814   6.477  -0.740  0.8319 -0.1808  0.1363
   42TAL   C205 1546   9.943   6.843  -0.607 -0.9660  0.3213  0.7098
   42TAL   C206 1547  10.071   6.846  -0.524 -0.3584  1.1508  0.7691
   42TAL   C207 1548  10.202   6.771  -0.563 -0.0212 -0.9833  0.5339
   42TAL   C208 1549  10.267   6.806  -0.696 -0.2698  0.2649 -0.8176
   42TAL   C209 1550  10.421   6.822  -0.690  0.3851  0.2180 -0.0934
   42TAL   C210 1551  10.496   6.822  -0.823  0.4341  0.1580  0.2884
   43HTM   C211 1552   9.888   6.700  -0.895  0.0923 -0.4786 -0.8596
   43HTM   C212 1553   9.822   6.662  -1.008 -0.3573  0.4041 -0.9112
   43HTM   C213 1554   9.859   6.737  -1.125 -0.7727  1.2759 -0.5007
   43HTM   C214 1555   9.953   6.833  -1.101 -0.6399  1.0578 -0.1355
   43HTM    S22 1556  10.003   6.835  -0.927  0.0253 -0.2759 -0.2838
   44TAL   C215 1557   9.814   6.704  -1.266 -0.7050  0.5234 -0.8839
   44TAL   C216 1558   9.669   6.644  -1.296  0.1854 -0.6373  0.0916
   44TAL   C217 1559   9.618   6.599  -1.433 -0.5685  0.9425 -0.9738
   44TAL   C218 1560   9.652   6.687  -1.557 -0.1402  0.1814 -0.1206
   44TAL   C219 1561   9.566   6.813  -1.553 -0.6438 -0.5223 -0.0168
   44TAL   C220 1562   9.629   6.930  -1.643  0.0187  1.2742 -0.0763
   45HTM   C221 1563  10.015   6.925  -1.185  0.0906 -0.0764  0.1902
   45HTM   C222 1564  10.144   6.952  -1.218  0.0280 -0.4532 -0.3850
   45HTM   C223 1565  10.160   7.065  -1.306 -0.0472 -0.6415 -0.6425
   45HTM   C224 1566  10.042   7.124  -1.340 -0.0419 -0.4082 -0.2632
   45HTM    S23 1567   9.901   7.041  -1.263  0.0592  0.0710  0.4538
   46TAL   C225 1568  10.296   7.110  -1.334 -0.1018  0.4209  0.1211
   46TAL   C226 1569  10.391   7.028  -1.417 -0.8480  0.1266 -0.1532
   46TAL   C227 1570  10.532   7.052  -1.354  0.6487 -0.8040  0.8223
   46TAL   C228 1571  10.615   6.927  -1.356  0.3394  0.4701  0.2149
   46TAL   C229 1572  10.749   6.914  -1.290 -0.6976  0.1105 -0.7820
   46TAL   C230 1573  10.756   6.994  -1.156 -0.5298 -0.2709  0.3592
   47HTM   C231 1574  10.018   7.247  -1.413  0.0926 -0.0653  0.3159
   47HTM   C232 1575  10.069   7.373  -1.407 -0.5256  0.1647  0.9942
   47HTM   C233 1576  10.017   7.462  -1.507 -0.5898  0.3062  1.1532
   47HTM   C234 1577   9.925   7.404  -1.589 -0.0205  0.1844  0.5962
   47HTM    S24 1578   9.898   7.231  -1.547  0.6459 -0.1211 -0.1785
   48TAL   C235 1579  10.035   7.612  -1.502 -0.1207 -1.0034 -0.1419
   48TAL   C236 1580   9.972   7.693  -1.610  0.2946 -0.2427 -0.4601
   48TAL   C237 1581   9.984   7.844  -1.628 -0.8786 -0.5990  0.2115
   48TAL   C238 1582  10.122   7.931  -1.642 -0.4116  0.0098  0.7893
   48TAL   C239 1583  10.235   7.850  -1.707  1.0432  0.3872  0.5968
   48TAL   C240 1584  10.209   7.829  -1.854 -0.6054  0.4797  0.3106
    1HTM     C1 1585   6.876   6.239   2.152 -0.0493 -0.6597 -0.6124
    1HTM     C2 1586   6.985   6.257   2.071 -0.3370 -0.5583 -0.9865
    1HTM     C3 1587   6.969   6.360   1.973 -0.5127 -0.0829 -0.4677
    1HTM     C4 1588   6.847   6.422   1.978 -0.3589  0.1783  0.3018
    1HTM     S1 1589   6.744   6.354   2.109  0.0225 -0.1585  0.4320
    2TAL     C5 1590   7.074   6.402   1.873  0.1392  0.2842  0.1843
    2TAL     C6 1591   7.214   6.357   1.892  0.0601  0.4675  0.3702
    2TAL     C7 1592   7.298   6.349   1.769 -0.1589  0.3990  0.3945
    2TAL     C8 1593   7.298   6.488   1.680 -0.4884  0.6228  0.7008
    2TAL     C9 1594   7.392   6.531   1.569 -0.3635  0.4069  0.6138
    2TAL    C10 1595   7.359   6.453   1.443 -0.1310  0.0640 -0.0490
    3HTM    C11 1596   6.808   6.542   1.902 -0.0722 -0.5645  0.1850
    3HTM    C12 1597   6.796   6.669   1.951  0.0126 -0.6312  0.3824
    3HTM    C13 1598   6.753   6.764   1.852  0.2388 -0.4170  0.4889
    3HTM    C14 1599   6.732   6.711   1.729  0.3267 -0.1869  0.3727
    3HTM     S2 1600   6.765   6.534   1.727  0.1288 -0.2232  0.1177
    4TAL    C15 1601   6.735   6.915   1.883  0.3544  0.6396  0.3803
    4TAL    C16 1602   6.837   6.978   1.974 -0.4432 -0.3771 -0.1209
    4TAL    C17 1603   6.809   7.127   2.004  0.5427  0.4729  0.3856
    4TAL    C18 1604   6.912   7.232   2.049  0.5831  0.1947 -0.2076
    4TAL    C19 1605   6.996   7.212   2.183  0.8877 -0.4267  0.9150
    4TAL    C20 1606   6.900   7.190   2.300 -0.1780  0.0718  0.2890
    5HTM    C21 1607   6.702   6.770   1.596  0.6465 -0.1640  0.4631
    5HTM    C22 1608   6.755   6.723   1.479  0.3314 -0.3347  0.3874
    5HTM    C23 1609   6.717   6.800   1.364  0.0319 -0.4946  0.3758
    5HTM    C24 1610   6.636   6.906   1.392  0.1186 -0.4457  0.4427
    5HTM     S3 1611   6.600   6.917   1.569  0.5890 -0.1920  0.5261
    6TAL    C25 1612   6.743   6.738   1.228  0.4845 -1.0458  0.4980
    6TAL    C26 1613   6.883   6.683   1.202  1.1019  1.1175  0.2263
    6TAL    C27 1614   6.916   6.658   1.059 -1.2190 -0.5256 -0.3496
    6TAL    C28 1615   7.054   6.591   1.023  0.3780  0.4916 -0.1217
    6TAL    C29 1616   7.042   6.444   0.979  0.0814  0.1545 -0.5013
    6TAL    C30 1617   6.925   6.356   1.013 -0.0759  0.1629  0.0514
    7HTM    C31 1618   6.560   7.006   1.312  0.3987  0.1685 -0.0563
    7HTM    C32 1619   6.450   7.074   1.353  0.8639  0.6649  0.4022
    7HTM    C33 1620   6.395   7.162   1.252  0.7761  0.8277  0.5900
    7HTM    C34 1621   6.464   7.160   1.135  0.2437  0.4553  0.2746
    7HTM     S4 1622   6.605   7.047   1.142 -0.1912 -0.1344 -0.2883
    8TAL    C35 1623   6.272   7.245   1.289 -0.4501  0.2442  0.0679
    8TAL    C36 1624   6.278   7.395   1.264  0.6463 -0.3822 -0.3753
    8TAL    C37 1625   6.378   7.492   1.339  0.5936  0.6361 -0.4902
    8TAL    C38 1626   6.370   7.622   1.269 -0.1335 -0.8040  1.0097
    8TAL    C39 1627   6.384   7.743   1.370 -0.9660  0.3557  1.0445
    8TAL    C40 1628   6.359   7.876   1.321 -0.5965  0.6265  0.8922
    9HTM    C41 1629   6.443   7.222   1.000  0.2871 -0.2521 -0.3102
    9HTM    C42 1630   6.534   7.300   0.935  0.4028 -0.5376 -0.4933
    9HTM    C43 1631   6.490   7.343   0.805  0.3140 -0.4759 -0.4428
    9HTM    C44 1632   6.366   7.298   0.771  0.1305 -0.1433 -0.2213
    9HTM     S5 1633   6.294   7.197   0.902  0.0551  0.1197 -0.0579
   10TAL    C45 1634   6.599   7.433   0.742  0.3571 -0.9384  0.2326
   10TAL    C46 1635   6.575   7.575   0.780  0.2678  0.4593 -0.8215
   10TAL    C47 1636   6.575   7.666   0.660  0.2467  0.0945 -0.6520
   10TAL    C48 1637   6.611   7.809   0.714 -0.3997  0.3785  0.2823
   10TAL    C49 1638   6.608   7.924   0.616 -0.1225 -0.1489  1.3610
   10TAL    C50 1639   6.709   7.898   0.500 -0.3161  0.1818  0.1858
   11HTM    C51 1640   6.284   7.323   0.653 -0.0773 -0.9625 -0.0613
   11HTM    C52 1641   6.153   7.354   0.635 -0.0682 -0.7625  0.1999
   11HTM    C53 1642   6.123   7.403   0.503 -0.1353 -0.0607  0.4707
   11HTM    C54 1643   6.231   7.410   0.421 -0.1959  0.2741  0.4160
   11HTM     S6 1644   6.381   7.354   0.504 -0.1723 -0.2749  0.0151
   12TAL    C55 1645   5.988   7.446   0.455  0.1863  0.8295  0.0750
   12TAL    C56 1646   5.871   7.390   0.532  0.6308  0.4419 -0.2211
   12TAL    C57 1647   5.742   7.400   0.447 -0.2207 -0.5194  0.4221
   12TAL    C58 1648   5.619   7.357   0.520 -0.2841  0.4339 -1.0123
   12TAL    C59 1649   5.496   7.398   0.439  0.3041 -0.9078  0.2601
   12TAL    C60 1650   5.474   7.284   0.336 -1.6987  0.0751 -0.1447
   13HTM    C61 1651   6.235   7.439   0.283  0.0348 -0.4012  0.0687
   13HTM    C62 1652   6.240   7.563   0.228  0.2656 -0.3698  0.1617
   13HTM    C63 1653   6.247   7.563   0.084  0.1211 -0.2722  0.1542
   13HTM    C64 1654   6.246   7.438   0.030 -0.2196 -0.2293  0.0555
   13HTM     S7 1655   6.237   7.310   0.157 -0.3862 -0.3094 -0.0363
   14TAL    C65 1656   6.224   7.684  -0.010  0.1882  0.5066  0.0007
   14TAL    C66 1657   6.185   7.821   0.047 -0.7481 -0.8025 -0.2076
   14TAL    C67 1658   6.287   7.918   0.122 -1.3109  0.0025  0.7693
   14TAL    C68 1659   6.224   8.001   0.230  1.0658  0.0047 -0.4448
   14TAL    C69 1660   6.310   8.113   0.293  0.2194  1.0975 -0.2976
   14TAL    C70 1661   6.261   8.133   0.436  0.3597 -0.6823 -0.2101
   15HTM    C71 1662   6.247   7.380  -0.107  0.2001 -0.0841 -0.1690
   15HTM    C72 1663   6.165   7.283  -0.160  0.0145  0.1782 -0.3684
   15HTM    C73 1664   6.182   7.265  -0.302  0.1268  0.2978 -0.3710
   15HTM    C74 1665   6.275   7.347  -0.357  0.3977  0.1266 -0.1741
   15HTM     S8 1666   6.351   7.455  -0.234  0.5332 -0.2015  0.0325
   16TAL    C75 1667   6.083   7.163  -0.361 -0.0262 -0.4554 -0.7761
   16TAL    C76 1668   6.092   7.118  -0.504  0.2697 -0.5445  0.8910
   16TAL    C77 1669   5.987   7.008  -0.515 -0.2226  0.6925  1.5074
   16TAL    C78 1670   5.969   6.963  -0.655  0.1775 -0.1776  0.4122
   16TAL    C79 1671   5.883   6.834  -0.676  0.9300 -0.0262  0.1116
   16TAL    C80 1672   5.733   6.870  -0.665 -0.0376  0.3019 -0.3858
   17HTM    C81 1673   6.314   7.359  -0.495 -0.1936 -0.1898  0.0037
   17HTM    C82 1674   6.257   7.429  -0.597 -0.3271  0.1359  0.2975
   17HTM    C83 1675   6.321   7.408  -0.724 -0.4112  0.6418  0.1676
   17HTM    C84 1676   6.426   7.322  -0.720 -0.3416  0.7015 -0.2253
   17HTM     S9 1677   6.454   7.260  -0.552 -0.1633  0.1191 -0.4634
   18TAL    C85 1678   6.275   7.475  -0.853 -1.0069 -1.1000  0.7005
   18TAL    C86 1679   6.120   7.495  -0.862 -0.1087 -1.4225  0.1946
   18TAL    C87 1680   6.094   7.622  -0.947 -0.7139  0.0768  0.3610
   18TAL    C88 1681   6.116   7.631  -1.094  0.3010  1.0413 -0.0993
   18TAL    C89 1682   6.118   7.763  -1.147 -0.5472  0.6960  0.3355
   18TAL    C90 1683   6.176   7.770  -1.284  0.5304  0.3871 -0.4318
   19HTM    C91 1684   6.511   7.269  -0.824 -0.1225 -0.5915  0.0405
   19HTM    C92 1685   6.579   7.151  -0.822 -0.2984 -0.6968 -0.2306
   19HTM    C93 1686   6.649   7.123  -0.945 -0.0423 -0.3448 -0.1676
   19HTM    C94 1687   6.634   7.220  -1.040  0.3292  0.0292  0.1515
   19HTM    S10 1688   6.531   7.355  -0.981  0.3845 -0.0353  0.3990
   20TAL    C95 1689   6.725   6.993  -0.957  0.4945 -0.4241 -0.2146
   20TAL    C96 1690   6.626   6.872  -0.937 -0.0062  0.7664  0.0610
   20TAL    C97 1691   6.550   6.831  -0.807 -0.6474  0.6470 -0.4216
   20TAL    C98 1692   6.642   6.814  -0.678  0.5441 -0.1999  0.0487
   20TAL    C99 1693   6.568   6.817  -0.544  0.5158 -1.2402 -0.7096
   20TAL   C100 1694   6.468   6.933  -0.518 -0.6242  1.0665  0.6472
   21HTM   C101 1695   6.683   7.224  -1.176 -0.2111 -0.0132  0.5206
   21HTM   C102 1696   6.678   7.131  -1.276  1.2760 -0.6711  0.9949
   21HTM   C103 1697   6.734   7.176  -1.400  2.0275 -1.0448  1.1833
   21HTM   C104 1698   6.782   7.304  -1.396  1.1134 -0.6715  0.8529
   21HTM    S11 1699   6.760   7.377  -1.232 -0.7820  0.1873  0.2729
   22TAL   C105 1700   6.723   7.092  -1.525 -0.5648  0.5045 -0.0540
   22TAL   C106 1701   6.805   6.961  -1.514 -0.3910  0.0206 -0.0456
   22TAL   C107 1702   6.792   6.862  -1.621 -0.1405  0.1888 -0.6250
   22TAL   C108 1703   6.815   6.887  -1.773 -0.1948 -0.6715 -0.0756
   22TAL   C109 1704   6.927   6.986  -1.807  0.4708 -0.2168 -0.8257
   22TAL   C110 1705   7.076   6.956  -1.812 -0.8334 -0.7308 -0.8816
   23HTM   C111 1706   6.847   7.377  -1.510  0.5512 -0.1780  0.1593
   23HTM   C112 1707   6.944   7.318  -1.584  0.4318  0.0219 -0.1600
   23HTM   C113 1708   7.030   7.412  -1.652  0.0261  0.1990 -0.4370
   23HTM   C114 1709   6.998   7.542  -1.629 -0.1639  0.1343 -0.3293
   23HTM    S12 1710   6.856   7.557  -1.520  0.1574 -0.1579  0.1344
   24TAL   C115 1711   7.142   7.353  -1.732  0.8279  0.1019 -0.4721
   24TAL   C116 1712   7.258   7.308  -1.646 -0.5078 -0.1236  0.6886
   24TAL   C117 1713   7.294   7.352  -1.498 -0.5003 -0.8724 -0.3430
   24TAL   C118 1714   7.258   7.275  -1.365  0.1663 -0.4554 -0.1958
   24TAL   C119 1715   7.248   7.364  -1.240 -1.1419  0.8787  0.6363
   24TAL   C120 1716   7.395   7.388  -1.196 -0.1569  0.0846 -0.8316
   25HTM   C121 1717   7.058   7.666  -1.666  0.1314 -0.0455 -0.2100
   25HTM   C122 1718   7.012   7.793  -1.651 -0.0308 -0.0523 -0.6194
   25HTM   C123 1719   7.110   7.894  -1.684  0.0557 -0.0371 -0.3219
   25HTM   C124 1720   7.230   7.843  -1.724  0.2839 -0.0185  0.3147
   25HTM    S13 1721   7.229   7.663  -1.724  0.4079 -0.0190  0.5896
   26TAL   C125 1722   7.069   8.047  -1.701  0.2733 -0.0035 -0.5231
   26TAL   C126 1723   6.972   8.102  -1.592 -0.1671 -0.4349  1.0141
   26TAL   C127 1724   6.896   8.231  -1.637  0.2465  1.1861 -0.6120
   26TAL   C128 1725   6.963   8.378  -1.645  0.9574  0.2425  0.0900
   26TAL   C129 1726   6.858   8.491  -1.677 -0.8744 -0.3463  0.2283
   26TAL   C130 1727   6.895   8.633  -1.710  0.2540  0.3535  0.2050
   27HTM   C131 1728   7.351   7.910  -1.773 -0.2300  0.0018  0.1729
   27HTM   C132 1729   7.369   8.030  -1.835 -0.2444 -0.0789  0.0092
   27HTM   C133 1730   7.502   8.048  -1.889 -0.2594 -0.1535 -0.0527
   27HTM   C134 1731   7.584   7.941  -1.868 -0.2567 -0.1297  0.0640
   27HTM    S14 1732   7.500   7.809  -1.779 -0.2346 -0.0101  0.2627
   28TAL   C135 1733   7.545   8.169  -1.965 -0.3650  0.0919 -0.2309
   28TAL   C136 1734   7.444   8.290  -2.010 -0.2577 -0.2850 -0.5691
   28TAL   C137 1735   7.508   8.406  -2.076  0.4830 -0.0885  0.0710
   28TAL   C138 1736   7.493   8.543  -1.995 -0.2672 -0.7197  0.7742
   28TAL   C139 1737   7.353   8.594  -1.960  0.2140 -0.7385  0.1785
   28TAL   C140 1738   7.336   8.665  -1.834 -0.1166 -0.4533 -0.4494
   29HTM   C141 1739   7.728   7.916  -1.907 -0.0852  0.0114  0.0003
   29HTM   C142 1740   7.794   7.806  -1.862  0.0883  0.2459  0.3265
   29HTM   C143 1741   7.935   7.806  -1.892  0.1167  0.4445  0.4554
   29HTM   C144 1742   7.976   7.917  -1.961 -0.0356  0.3615  0.2276
   29HTM    S15 1743   7.839   8.030  -1.992 -0.2278  0.0235 -0.1706
   30TAL   C145 1744   8.024   7.691  -1.850  0.1108  0.5519 -0.3253
   30TAL   C146 1745   7.965   7.585  -1.746  1.0332  0.4810  0.2483
   30TAL   C147 1746   8.052   7.472  -1.712  0.6929 -0.2011  0.0958
   30TAL   C148 1747   7.986   7.350  -1.640 -0.0524 -1.0253  0.3976
   30TAL   C149 1748   8.066   7.221  -1.643 -0.1521 -0.1501 -0.0773
   30TAL   C150 1749   7.994   7.098  -1.598  0.6937 -0.2440  0.2534
   31HTM   C151 1750   8.104   7.940  -2.017  0.1873 -0.4388  0.2634
   31HTM   C152 1751   8.149   7.904  -2.141  0.0746 -0.8914  0.3496
   31HTM   C153 1752   8.292   7.910  -2.155  0.0360 -0.5312  0.0765
   31HTM   C154 1753   8.356   7.950  -2.042  0.1189  0.1964 -0.2180
   31HTM    S16 1754   8.241   7.984  -1.908  0.2533  0.4852 -0.1731
   32TAL   C155 1755   8.342   7.867  -2.296 -0.1928 -1.8706 -0.7057
   32TAL   C156 1756   8.285   7.747  -2.359 -1.1750  0.3350 -0.2777
   32TAL   C157 1757   8.348   7.725  -2.500  0.9779 -0.7923 -0.1739
   32TAL   C158 1758   8.299   7.586  -2.555  0.1735  0.1764  0.9734
   32TAL   C159 1759   8.378   7.525  -2.674  0.0621 -1.4512  0.1754
   32TAL   C160 1760   8.414   7.620  -2.801 -0.0319 -0.1498 -1.0938
   33HTM   C161 1761   8.492   7.982  -2.023 -0.3775  0.4058  0.2601
   33HTM   C162 1762   8.566   7.990  -1.908 -0.5822  0.7293  0.3710
   33HTM   C163 1763   8.708   7.998  -1.932 -0.5286  0.4735  0.6083
   33HTM   C164 1764   8.742   7.995  -2.063 -0.2825 -0.0449  0.6783
   33HTM    S17 1765   8.597   7.983  -2.170 -0.0986 -0.2520  0.4482
   34TAL   C165 1766   8.802   7.967  -1.812  0.4895  0.3265 -0.0985
   34TAL   C166 1767   8.840   8.093  -1.737 -0.7517  0.7227  0.4406
   34TAL   C167 1768   8.963   8.050  -1.650  0.8877  0.4431  0.4338
   34TAL   C168 1769   9.058   8.159  -1.594 -0.1171  0.3990  0.4123
   34TAL   C169 1770   8.998   8.278  -1.530 -0.7955  0.8655  0.0142
   34TAL   C170 1771   9.107   8.379  -1.483  0.7690  0.8104  0.1348
   35HTM   C171 1772   8.869   8.022  -2.138 -0.1594  0.1596  0.0907
   35HTM   C172 1773   8.991   8.036  -2.079 -0.0536  0.7122 -0.2425
   35HTM   C173 1774   9.094   8.083  -2.168 -0.3638  0.5584 -0.6899
   35HTM   C174 1775   9.050   8.105  -2.295 -0.7065 -0.1119 -0.6978
   35HTM    S18 1776   8.875   8.067  -2.313 -0.6632 -0.6042 -0.1365
   36TAL   C175 1777   9.241   8.078  -2.124 -0.2522  1.1309  0.0841
   36TAL   C176 1778   9.279   8.036  -1.982  0.1084  0.1826 -0.2443
   36TAL   C177 1779   9.394   8.105  -1.913  0.5350  0.2784 -0.8788
   36TAL   C178 1780   9.424   8.051  -1.771 -1.2807 -0.1087  1.5857
   36TAL   C179 1781   9.531   8.107  -1.677 -0.4237 -0.0463  0.4136
   36TAL   C180 1782   9.611   8.020  -1.580  1.6327  0.5329  0.1458
   37HTM   C181 1783   9.125   8.143  -2.411 -1.1100  0.7974 -0.0467
   37HTM   C182 1784   9.087   8.123  -2.540 -0.9577  0.9291 -0.1124
   37HTM   C183 1785   9.177   8.180  -2.637 -0.4320  0.3717  0.0339
   37HTM   C184 1786   9.283   8.244  -2.581 -0.1830 -0.1847  0.2112
   37HTM    S19 1787   9.278   8.237  -2.401 -0.5965 -0.0471  0.2070
   38TAL   C185 1788   9.137   8.181  -2.789 -0.2084 -0.2412 -0.2672
   38TAL   C186 1789   9.106   8.058  -2.876 -0.6693 -0.0742  0.0422
   38TAL   C187 1790   9.141   8.065  -3.020  0.5054  0.2254 -0.9131
   38TAL   C188 1791   9.143   7.926  -3.071  0.3358  0.5254  0.5344
   38TAL   C189 1792   9.182   7.904  -3.221 -0.0055  0.4726 -0.4668
   38TAL   C190 1793   9.172   7.758  -3.255  0.1576  0.2516  0.3653
   39HTM   C191 1794   9.391   8.319  -2.651 -0.2046  0.5864  0.2081
   39HTM   C192 1795   9.415   8.449  -2.684 -0.0393  0.4778 -0.1036
   39HTM   C193 1796   9.526   8.466  -2.775  0.0672  0.1307 -0.0416
   39HTM   C194 1797   9.586   8.349  -2.811 -0.0171 -0.0256  0.3175
   39HTM    S20 1798   9.506   8.207  -2.732 -0.2388  0.2561  0.6074
   40TAL   C195 1799   9.568   8.593  -2.837 -0.3528 -0.1250 -1.1919
   40TAL   C196 1800   9.476   8.706  -2.865 -0.2668  0.2422 -0.6541
   40TAL   C197 1801   9.400   8.762  -2.739 -0.9626 -0.5221 -0.6442
   40TAL   C198 1802   9.294   8.868  -2.789 -0.4766  0.2005 -0.9004
   40TAL   C199 1803   9.177   8.886  -2.698  0.2921  0.4238 -0.8700
   40TAL   C200 1804   9.071   9.001  -2.710 -0.1535  0.6891 -0.6367
   41HTM   C201 1805   9.714   8.323  -2.875 -0.2490  0.0585  0.1465
   41HTM   C202 1806   9.828   8.302  -2.803 -0.1742 -0.2201 -0.0510
   41HTM   C203 1807   9.948   8.306  -2.882 -0.2880 -0.3672 -0.2350
   41HTM   C204 1808   9.926   8.331  -3.014 -0.4495 -0.2006 -0.1777
   41HTM    S21 1809   9.751   8.351  -3.050 -0.4707  0.1575  0.1154
   42TAL   C205 1810  10.088   8.292  -2.824  0.0871  0.1367 -0.2105
   42TAL   C206 1811  10.152   8.153  -2.855 -0.6740  0.1927 -0.4900
   42TAL   C207 1812  10.293   8.126  -2.810  0.0529 -0.6175  0.2917
   42TAL   C208 1813  10.360   8.110  -2.671 -0.7037 -0.3612 -0.1882
   42TAL   C209 1814  10.375   8.238  -2.580 -0.9124  1.0220  0.3088
   42TAL   C210 1815  10.462   8.198  -2.463  0.2985  1.2441 -1.1382
   43HTM   C211 1816  10.027   8.384  -3.113  0.8779  0.3541  0.5906
   43HTM   C212 1817  10.144   8.329  -3.154  1.4415  1.1766  1.0371
   43HTM   C213 1818  10.214   8.406  -3.254  0.9195  1.3304  0.7851
   43HTM   C214 1819  10.149   8.521  -3.289 -0.0422  0.6252  0.1463
   43HTM    S22 1820   9.994   8.540  -3.198 -0.3655 -0.2951 -0.1891
   44TAL   C215 1821  10.337   8.343  -3.309 -0.4857  0.8542  0.3350
   44TAL   C216 1822  10.463   8.399  -3.261 -0.7430  0.3301  2.1210
   44TAL   C217 1823  10.491   8.420  -3.119 -0.0681 -1.0197  0.2180
   44TAL   C218 1824  10.565   8.296  -3.080  0.6434  0.1975  0.4532
   44TAL   C219 1825  10.628   8.320  -2.943 -1.4168 -0.5903 -0.7756
   44TAL   C220 1826  10.716   8.202  -2.899 -0.2937 -0.2587 -0.5056
   45HTM   C221 1827  10.180   8.613  -3.396  0.1209 -0.0449  0.4549
   45HTM   C222 1828  10.094   8.713  -3.433 -0.1401 -0.3097  0.3383
   45HTM   C223 1829  10.149   8.803  -3.532 -0.3866 -0.2985  0.2091
   45HTM   C224 1830  10.277   8.772  -3.569 -0.3136 -0.0253  0.2270
   45HTM    S23 1831  10.337   8.626  -3.483  0.0752  0.2410  0.4102
   46TAL   C225 1832  10.054   8.920  -3.592 -1.0280  0.4347 -0.2608
   46TAL   C226 1833   9.918   8.873  -3.641  0.7386 -0.4903 -0.5725
   46TAL   C227 1834   9.819   8.985  -3.686 -0.0152  0.9300 -0.3700
   46TAL   C228 1835   9.676   8.989  -3.628  0.2340 -0.3262 -0.5755
   46TAL   C229 1836   9.576   8.880  -3.658  0.1009 -0.9312 -0.8385
   46TAL   C230 1837   9.489   8.933  -3.779 -0.6749  1.1113  1.3567
   47HTM   C231 1838  10.359   8.824  -3.681  0.3232  0.7649  0.2945
   47HTM   C232 1839  10.350   8.939  -3.754  0.3972  0.7379  0.2426
   47HTM   C233 1840  10.464   8.964  -3.838  0.1944  0.3629 -0.1558
   47HTM   C234 1841  10.561   8.868  -3.829 -0.0344  0.1038 -0.4076
   47HTM    S24 1842  10.515   8.738  -3.713 -0.0111  0.3151 -0.1592
   48TAL   C235 1843  10.466   9.072  -3.938  0.4486 -0.3243  0.4482
   48TAL   C236 1844  10.446   9.221  -3.898 -0.5425 -0.3536 -0.3477
   48TAL   C237 1845  10.328   9.286  -3.815 -0.1591  0.0485 -0.6685
   48TAL   C238 1846  10.311   9.442  -3.845 -0.3224  0.8072  0.1650
   48TAL   C239 1847  10.224   9.518  -3.753 -0.4974  0.1719 -0.7905
   48TAL   C240 1848  10.183   9.653  -3.810  0.7202  0.6797 -0.2272
    1HTM     C1 1849   0.196   7.527   0.935  0.1339 -0.0405 -0.5131
    1HTM     C2 1850   0.280   7.610   0.867 -0.1023  0.7745  0.1580
    1HTM     C3 1851   0.217   7.729   0.816 -0.4767  0.9558  1.0085
    1HTM     C4 1852   0.083   7.736   0.844 -0.5261  0.2788  0.9858
    1HTM     S1 1853   0.028   7.593   0.939 -0.1002 -0.6474 -0.1201
    2TAL     C5 1854   0.299   7.829   0.728  0.2525 -0.2997 -0.3105
    2TAL     C6 1855   0.446   7.830   0.759 -0.5072  0.1808  0.8423
    2TAL     C7 1856   0.492   7.900   0.886  0.2446  0.9879  0.2339
    2TAL     C8 1857   0.629   7.878   0.938 -1.1479  0.2555  1.4334
    2TAL     C9 1858   0.646   7.922   1.079 -0.3386  0.0106  0.0045
    2TAL    C10 1859   0.735   7.829   1.158  0.5465 -0.4734 -0.2114
    3HTM    C11 1860  -0.019   7.838   0.824 -0.3387  0.3254  0.4877
    3HTM    C12 1861  -0.102   7.891   0.918 -0.1748  1.0015  0.2639
    3HTM    C13 1862  -0.186   7.997   0.869  0.3142  1.2112 -0.1398
    3HTM    C14 1863  -0.168   8.024   0.737  0.5233  0.6950 -0.2238
    3HTM     S2 1864  -0.041   7.918   0.664  0.1154 -0.1024  0.2037
    4TAL    C15 1865  -0.281   8.083   0.962 -0.6935  0.4133  1.0357
    4TAL    C16 1866  -0.257   8.115   1.104  0.3346 -0.2338 -0.5682
    4TAL    C17 1867  -0.138   8.196   1.131 -0.2513 -0.2501  0.2340
    4TAL    C18 1868  -0.176   8.275   1.259 -0.4888  0.4324  0.0787
    4TAL    C19 1869  -0.046   8.315   1.330  0.4436 -0.0615 -0.1709
    4TAL    C20 1870  -0.067   8.371   1.465 -0.7579 -0.4638 -0.3995
    5HTM    C21 1871  -0.239   8.108   0.654 -0.5102 -0.4150 -0.3094
    5HTM    C22 1872  -0.338   8.082   0.563 -1.4107  0.3734  0.4136
    5HTM    C23 1873  -0.381   8.199   0.490 -1.5938  0.8688  1.2807
    5HTM    C24 1874  -0.315   8.313   0.525 -0.8334  0.4588  1.2187
    5HTM     S3 1875  -0.192   8.282   0.653  0.1810 -0.5940  0.0514
    6TAL    C25 1876  -0.486   8.193   0.379  0.9870 -0.4275 -0.5793
    6TAL    C26 1877  -0.565   8.064   0.365 -0.7840  0.3353 -0.9715
    6TAL    C27 1878  -0.684   8.051   0.274 -0.8463 -0.8140 -0.4057
    6TAL    C28 1879  -0.757   7.919   0.262 -1.0265  0.3066 -0.6680
    6TAL    C29 1880  -0.821   7.852   0.389  0.0014  1.0925 -0.3977
    6TAL    C30 1881  -0.934   7.934   0.450 -0.2973 -0.3627 -0.6655
    7HTM    C31 1882  -0.301   8.449   0.474  0.6116  0.2777  0.3358
    7HTM    C32 1883  -0.204   8.489   0.387  0.9902  0.6521  0.9141
    7HTM    C33 1884  -0.224   8.622   0.336  0.7803  0.5822  0.8076
    7HTM    C34 1885  -0.335   8.684   0.384  0.2418  0.1541  0.1480
    7HTM     S4 1886  -0.425   8.578   0.499 -0.0445 -0.1968 -0.3939
    8TAL    C35 1887  -0.138   8.671   0.224 -0.4671  0.1737  0.6811
    8TAL    C36 1888   0.016   8.657   0.238 -0.3002 -0.0373 -0.4708
    8TAL    C37 1889   0.094   8.787   0.213  0.1592  0.7362  0.4374
    8TAL    C38 1890   0.110   8.878   0.331 -0.1024  0.4859 -0.3114
    8TAL    C39 1891   0.187   8.999   0.267 -0.6961 -0.3833 -0.1572
    8TAL    C40 1892   0.223   9.091   0.393  0.0311  0.2933  0.8083
    9HTM    C41 1893  -0.378   8.827   0.359 -0.1928  0.1439 -0.4833
    9HTM    C42 1894  -0.332   8.926   0.278 -0.4060  0.2654 -0.4576
    9HTM    C43 1895  -0.406   9.049   0.289 -0.3371  0.2718 -0.0320
    9HTM    C44 1896  -0.508   9.044   0.379 -0.0717  0.1551  0.2668
    9HTM     S5 1897  -0.520   8.882   0.457  0.1139  0.0271  0.0321
   10TAL    C45 1898  -0.371   9.172   0.213 -0.4547  0.8631 -0.2375
   10TAL    C46 1899  -0.250   9.251   0.248  1.1203 -0.1280 -0.7831
   10TAL    C47 1900  -0.240   9.391   0.197  0.6141  0.4573 -0.1643
   10TAL    C48 1901  -0.122   9.468   0.252  0.0831 -0.0054  0.2721
   10TAL    C49 1902  -0.120   9.613   0.212  0.0652  0.7065  0.4830
   10TAL    C50 1903  -0.012   9.698   0.289  1.5050  0.4689 -0.2449
   11HTM    C51 1904  -0.611   9.139   0.413  0.1238 -0.1646 -0.5671
   11HTM    C52 1905  -0.600   9.263   0.470  0.6025 -0.4292 -0.0673
   11HTM    C53 1906  -0.725   9.331   0.487  0.8051 -0.2387  0.7385
   11HTM    C54 1907  -0.833   9.259   0.444  0.4807  0.1707  0.8530
   11HTM     S6 1908  -0.783   9.099   0.377 -0.1101  0.3494 -0.0550
   12TAL    C55 1909  -0.741   9.470   0.540  0.5369 -0.0859 -0.3774
   12TAL    C56 1910  -0.612   9.555   0.573  0.2803 -0.0625 -0.6205
   12TAL    C57 1911  -0.624   9.708   0.592 -0.1442 -0.6509  0.5062
   12TAL    C58 1912  -0.680   9.784   0.463 -0.1784  0.4162 -0.0623
   12TAL    C59 1913  -0.597   9.763   0.334 -0.4026  0.0444  0.2611
   12TAL    C60 1914  -0.449   9.807   0.324  0.0918 -0.5624 -0.2321
   13HTM    C61 1915  -0.974   9.290   0.408 -0.2221 -0.7714  0.1416
   13HTM    C62 1916  -1.018   9.328   0.284 -0.1755 -0.5317  0.1978
   13HTM    C63 1917  -1.157   9.364   0.282  0.0048  0.2208  0.3742
   13HTM    C64 1918  -1.219   9.353   0.403  0.0958  0.5550  0.4526
   13HTM     S7 1919  -1.105   9.297   0.530 -0.0404 -0.0594  0.3085
   14TAL    C65 1920  -1.208   9.412   0.148 -0.2558  0.1938 -0.0781
   14TAL    C66 1921  -1.185   9.320   0.024 -0.3629 -0.2000  0.0847
   14TAL    C67 1922  -1.255   9.189   0.044  0.1936 -0.2142  0.3910
   14TAL    C68 1923  -1.198   9.069  -0.024 -1.0930  0.5887  0.4366
   14TAL    C69 1924  -1.065   9.029   0.050 -0.0897 -0.2236 -0.3836
   14TAL    C70 1925  -1.027   8.889   0.061  0.3153  0.0212  0.7101
   15HTM    C71 1926  -1.363   9.362   0.440  0.2435  0.3388  0.3566
   15HTM    C72 1927  -1.410   9.315   0.559  0.3176  0.2630  0.3563
   15HTM    C73 1928  -1.552   9.334   0.576  0.2885  0.0498  0.3614
   15HTM    C74 1929  -1.612   9.396   0.471  0.1928 -0.0367  0.3656
   15HTM     S8 1930  -1.494   9.435   0.340  0.1308  0.1455  0.3635
   16TAL    C75 1931  -1.619   9.271   0.702 -0.6895 -1.3885 -0.0127
   16TAL    C76 1932  -1.636   9.126   0.714 -0.2556  0.3112  1.3232
   16TAL    C77 1933  -1.720   9.039   0.808  0.8639 -0.0659  0.3710
   16TAL    C78 1934  -1.714   9.053   0.961  1.0014 -0.2871  0.1071
   16TAL    C79 1935  -1.590   9.066   1.041  0.0229 -0.2788  0.0401
   16TAL    C80 1936  -1.464   8.981   1.025 -0.0034 -0.0222 -0.2453
   17HTM    C81 1937  -1.748   9.456   0.445 -0.1552  0.6675  0.4067
   17HTM    C82 1938  -1.778   9.580   0.397 -0.1900  0.4840 -0.0471
   17HTM    C83 1939  -1.919   9.601   0.376 -0.1485  0.1416 -0.7659
   17HTM    C84 1940  -1.996   9.494   0.410 -0.0819  0.0643 -0.8602
   17HTM     S9 1941  -1.896   9.357   0.470 -0.0665  0.4198 -0.0421
   18TAL    C85 1942  -1.975   9.735   0.338 -0.1004  0.7315  0.3273
   18TAL    C86 1943  -1.895   9.806   0.224  0.2607 -0.5924 -0.9785
   18TAL    C87 1944  -1.988   9.889   0.143  0.0790  0.7384  0.8809
   18TAL    C88 1945  -2.020  10.032   0.165 -0.7615  0.5146 -0.3030
   18TAL    C89 1946  -2.096  10.106   0.054 -0.2934 -0.2420  0.1500
   18TAL    C90 1947  -2.099  10.261   0.078 -0.6428 -0.5946  0.0059
   19HTM    C91 1948  -2.137   9.480   0.418 -0.0007 -0.4061  0.6575
   19HTM    C92 1949  -2.194   9.358   0.399 -0.0415 -0.5150  1.4193
   19HTM    C93 1950  -2.337   9.361   0.393 -0.0272 -0.4458  1.0499
   19HTM    C94 1951  -2.390   9.486   0.408  0.0245 -0.2835  0.0064
   19HTM    S10 1952  -2.262   9.610   0.430  0.0592 -0.2054 -0.5953
   20TAL    C95 1953  -2.414   9.240   0.368 -0.2098  0.9819 -0.5758
   20TAL    C96 1954  -2.378   9.140   0.261  0.5051  0.7236 -0.4469
   20TAL    C97 1955  -2.496   9.047   0.247  0.0415 -0.0202  0.0715
   20TAL    C98 1956  -2.503   8.982   0.114  0.4886 -0.2623  0.6871
   20TAL    C99 1957  -2.582   8.850   0.142  0.2153 -0.0521 -0.0278
   20TAL   C100 1958  -2.555   8.746   0.029  0.4774  0.6774  0.2023
   21HTM   C101 1959  -2.528   9.538   0.420 -0.0497  0.5559 -0.5867
   21HTM   C102 1960  -2.560   9.657   0.478 -0.2751  0.7441 -1.0872
   21HTM   C103 1961  -2.698   9.694   0.463 -0.3487  0.4134 -1.2325
   21HTM   C104 1962  -2.772   9.603   0.393 -0.1794 -0.0267 -0.8428
   21HTM    S11 1963  -2.672   9.462   0.341  0.0882 -0.0579 -0.2575
   22TAL   C105 1964  -2.748   9.813   0.541 -0.1579 -0.6927  0.5741
   22TAL   C106 1965  -2.687   9.948   0.486  0.5944  0.0933 -0.5822
   22TAL   C107 1966  -2.719  10.059   0.580 -1.0991  0.2093  0.5924
   22TAL   C108 1967  -2.682  10.067   0.731 -1.2867 -0.2947  0.0693
   22TAL   C109 1968  -2.767  10.177   0.798 -0.2152 -0.5183  0.5337
   22TAL   C110 1969  -2.736  10.327   0.759  0.3321  0.2036  0.4392
   23HTM   C111 1970  -2.909   9.594   0.356  0.6159 -0.3425  0.2833
   23HTM   C112 1971  -2.957   9.566   0.232  1.0536 -0.6669  0.1820
   23HTM   C113 1972  -3.101   9.556   0.226  1.0605 -0.5078 -0.3323
   23HTM   C114 1973  -3.162   9.577   0.346  0.6281 -0.0620 -0.6231
   23HTM    S12 1974  -3.042   9.610   0.477  0.1751  0.1934 -0.2672
   24TAL   C115 1975  -3.182   9.534   0.094 -0.1492  0.0005 -0.3287
   24TAL   C116 1976  -3.119   9.575  -0.036  0.3352  0.1525 -0.5812
   24TAL   C117 1977  -3.219   9.572  -0.149  0.1492  0.7545 -0.4177
   24TAL   C118 1978  -3.247   9.676  -0.248 -0.7258 -0.0538  0.3960
   24TAL   C119 1979  -3.387   9.686  -0.300  0.1758  0.1661  0.1931
   24TAL   C120 1980  -3.390   9.788  -0.408 -0.4057 -0.2599  0.3983
   25HTM   C121 1981  -3.303   9.579   0.394  0.6001  0.1027 -0.0613
   25HTM   C122 1982  -3.425   9.586   0.332  0.6157  1.2496  0.0031
   25HTM   C123 1983  -3.536   9.570   0.422  0.5167  1.7242 -0.0262
   25HTM   C124 1984  -3.500   9.549   0.551  0.4253  0.9392 -0.1129
   25HTM    S13 1985  -3.321   9.550   0.571  0.4576 -0.4717 -0.1647
   26TAL   C125 1986  -3.686   9.553   0.359 -1.2301 -0.5258  0.7310
   26TAL   C126 1987  -3.716   9.681   0.275  0.5961 -1.1535  0.2427
   26TAL   C127 1988  -3.826   9.761   0.348  0.1726 -0.8105 -1.1103
   26TAL   C128 1989  -3.851   9.901   0.281  0.1576  0.1659  0.4567
   26TAL   C129 1990  -3.964   9.976   0.349 -0.4725  0.4794 -0.7057
   26TAL   C130 1991  -4.011  10.104   0.301  0.0427  0.2288 -0.0422
   27HTM   C131 1992  -3.578   9.506   0.674  0.2364 -0.4131 -0.3522
   27HTM   C132 1993  -3.525   9.509   0.800  0.5481 -0.1831 -0.4872
   27HTM   C133 1994  -3.616   9.466   0.902  0.7623  0.1192 -0.1658
   27HTM   C134 1995  -3.739   9.430   0.855  0.6138  0.1194  0.2143
   27HTM    S14 1996  -3.749   9.448   0.676  0.1888 -0.2650  0.1956
   28TAL   C135 1997  -3.585   9.475   1.050  0.5459 -1.3113  0.5747
   28TAL   C136 1998  -3.445   9.538   1.103  0.7008 -0.2447 -0.3147
   28TAL   C137 1999  -3.444   9.598   1.254  0.3407 -0.7757  0.3785
   28TAL   C138 2000  -3.306   9.604   1.312 -0.2170 -0.7126 -0.2226
   28TAL   C139 2001  -3.284   9.517   1.431  1.7285  0.0563 -0.2720
   28TAL   C140 2002  -3.163   9.500   1.514 -0.0330 -0.9905 -0.4560
   29HTM   C141 2003  -3.866   9.385   0.913  0.1878 -0.1844  0.3166
   29HTM   C142 2004  -3.913   9.285   0.993  0.1709 -0.1619  0.3346
   29HTM   C143 2005  -4.056   9.289   1.012  0.1593 -0.1955  0.2511
   29HTM   C144 2006  -4.117   9.390   0.945  0.1672 -0.2437  0.1694
   29HTM    S15 2007  -3.999   9.491   0.853  0.1904 -0.2505  0.1919
   30TAL   C145 2008  -4.107   9.184   1.109  0.7528  0.0054 -0.3600
   30TAL   C146 2009  -4.067   9.185   1.256 -0.6171 -0.1306  0.5990
   30TAL   C147 2010  -4.172   9.135   1.352  0.7871  0.0355  0.5163
   30TAL   C148 2011  -4.122   9.139   1.496  1.0977 -0.4066  1.2957
   30TAL   C149 2012  -4.118   9.277   1.553 -1.0366  0.8407  0.0188
   30TAL   C150 2013  -4.043   9.262   1.692  0.8465 -0.6035  0.6025
   31HTM   C151 2014  -4.261   9.400   0.914  0.0207  0.4674  0.6031
   31HTM   C152 2015  -4.316   9.467   0.809  0.1332  0.3972  0.4990
   31HTM   C153 2016  -4.458   9.446   0.795  0.1949  0.1588  0.1884
   31HTM   C154 2017  -4.511   9.364   0.890  0.1295  0.0472  0.0558
   31HTM    S16 2018  -4.385   9.305   1.005 -0.0163  0.2364  0.3148
   32TAL   C155 2019  -4.518   9.511   0.668 -0.9562 -1.0360 -1.2748
   32TAL   C156 2020  -4.518   9.672   0.666  0.4698 -0.2888 -0.1392
   32TAL   C157 2021  -4.566   9.752   0.797  0.0998  0.9153  0.5729
   32TAL   C158 2022  -4.630   9.881   0.779  0.9317  0.8617 -0.0026
   32TAL   C159 2023  -4.760   9.898   0.701  0.5146  0.3982  0.1296
   32TAL   C160 2024  -4.868   9.791   0.730 -0.0100  0.2489 -0.5747
   33HTM   C161 2025  -4.653   9.331   0.900  0.2326 -0.3738 -0.9726
   33HTM   C162 2026  -4.701   9.263   1.007  0.4396 -0.6588 -1.0595
   33HTM   C163 2027  -4.844   9.270   1.022  0.5041 -0.3672 -0.5422
   33HTM   C164 2028  -4.905   9.345   0.926  0.3460  0.1401 -0.0609
   33HTM    S17 2029  -4.786   9.411   0.808  0.1020  0.2904 -0.2250
   34TAL   C165 2030  -4.923   9.210   1.142  0.6466 -0.0310 -0.6488
   34TAL   C166 2031  -4.901   9.053   1.147 -0.3841 -0.5921  0.2284
   34TAL   C167 2032  -4.987   8.995   1.254  0.1706 -0.8116 -0.5986
   34TAL   C168 2033  -4.941   8.856   1.301  0.8004  0.2541 -0.7327
   34TAL   C169 2034  -5.047   8.807   1.404 -0.7406  0.5577 -0.0382
   34TAL   C170 2035  -5.006   8.689   1.487 -0.2326 -0.5423 -0.3592
   35HTM   C171 2036  -5.045   9.384   0.906  0.2137 -0.1803  0.6514
   35HTM   C172 2037  -5.107   9.505   0.896  0.4424 -0.0587  0.6771
   35HTM   C173 2038  -5.246   9.495   0.859  0.4987  0.2298  0.3838
   35HTM   C174 2039  -5.289   9.367   0.840  0.3130  0.3275  0.1344
   35HTM    S18 2040  -5.157   9.248   0.868  0.0504  0.0611  0.2517
   36TAL   C175 2041  -5.310   9.632   0.856  0.5997  1.0535 -0.1493
   36TAL   C176 2042  -5.419   9.679   0.761  0.8924 -0.4859  0.4220
   36TAL   C177 2043  -5.392   9.647   0.609  0.7181 -0.4497 -0.5208
   36TAL   C178 2044  -5.493   9.717   0.511  1.0514 -0.2751  0.3001
   36TAL   C179 2045  -5.480   9.871   0.514  0.3366  0.3016 -0.4705
   36TAL   C180 2046  -5.573   9.942   0.419 -0.8641  0.3878 -0.0358
   37HTM   C181 2047  -5.418   9.323   0.790 -0.4490 -0.4273  0.1239
   37HTM   C182 2048  -5.468   9.298   0.665 -0.5879 -0.2363  0.1390
   37HTM   C183 2049  -5.593   9.226   0.666 -0.4646 -0.4528  0.1662
   37HTM   C184 2050  -5.639   9.197   0.791 -0.2316 -0.8095  0.1717
   37HTM    S19 2051  -5.526   9.258   0.919 -0.1496 -0.8991  0.1428
   38TAL   C185 2052  -5.672   9.190   0.543 -0.3565 -0.6244 -0.0491
   38TAL   C186 2053  -5.694   9.306   0.455  0.8235 -1.3808  1.0684
   38TAL   C187 2054  -5.807   9.308   0.352  0.0341  0.2873  0.3486
   38TAL   C188 2055  -5.796   9.201   0.239 -0.1968  1.2727  0.3877
   38TAL   C189 2056  -5.700   9.227   0.124 -0.2317  0.6910  0.4506
   38TAL   C190 2057  -5.672   9.105   0.038  0.1706  0.2311 -0.2568
   39HTM   C191 2058  -5.754   9.127   0.846  0.2732  0.1076  0.1290
   39HTM   C192 2059  -5.779   9.110   0.979  0.1834  0.4089  0.1519
   39HTM   C193 2060  -5.883   9.014   1.006  0.0575  0.5853  0.2950
   39HTM   C194 2061  -5.937   8.958   0.895  0.0512  0.4185  0.3811
   39HTM    S20 2062  -5.861   9.023   0.744  0.2051  0.0227  0.2875
   40TAL   C195 2063  -5.896   8.986   1.146 -0.1093 -0.2933 -0.5241
   40TAL   C196 2064  -5.774   8.945   1.221  0.2985 -0.1994 -0.4940
   40TAL   C197 2065  -5.813   8.919   1.368 -0.8812  0.2318 -0.2583
   40TAL   C198 2066  -5.700   8.870   1.465  0.6433 -0.2288 -0.9407
   40TAL   C199 2067  -5.665   8.725   1.460  0.0072  0.7887 -0.3715
   40TAL   C200 2068  -5.769   8.623   1.501  0.6677  0.0958  0.6515
   41HTM   C201 2069  -6.040   8.854   0.873  0.0848  0.1509 -0.2716
   41HTM   C202 2070  -6.147   8.822   0.952 -0.1010  0.5291 -0.3641
   41HTM   C203 2071  -6.227   8.714   0.900 -0.2198  0.5581 -0.2415
   41HTM   C204 2072  -6.181   8.663   0.782 -0.1245  0.2021 -0.0556
   41HTM    S21 2073  -6.033   8.749   0.726  0.1245 -0.2005 -0.0206
   42TAL   C205 2074  -6.355   8.672   0.970 -0.8252  1.1813  0.1043
   42TAL   C206 2075  -6.423   8.790   1.028  0.9201  0.7397 -0.7384
   42TAL   C207 2076  -6.529   8.738   1.124  0.0537 -0.0720 -0.5147
   42TAL   C208 2077  -6.605   8.831   1.219  0.8033  0.6686  0.3542
   42TAL   C209 2078  -6.514   8.915   1.310  1.2980  0.2320 -0.4151
   42TAL   C210 2079  -6.587   8.999   1.417 -0.4260  0.6134  0.6617
   43HTM   C211 2080  -6.239   8.568   0.683  0.3399  0.1243  0.0473
   43HTM   C212 2081  -6.219   8.590   0.549  0.2166  0.2460  0.0486
   43HTM   C213 2082  -6.298   8.504   0.465 -0.0594  0.5040  0.0423
   43HTM   C214 2083  -6.378   8.417   0.534 -0.1466  0.5787  0.0363
   43HTM    S22 2084  -6.359   8.437   0.712  0.1153  0.3272  0.0381
   44TAL   C215 2085  -6.291   8.523   0.308 -0.5876 -0.1146 -0.7481
   44TAL   C216 2086  -6.299   8.671   0.264 -0.1809  0.1109 -0.1657
   44TAL   C217 2087  -6.375   8.704   0.128 -0.2424  0.2186  0.1307
   44TAL   C218 2088  -6.504   8.629   0.088 -0.0106  0.1511  0.1447
   44TAL   C219 2089  -6.578   8.682  -0.040  0.6004 -0.8228 -0.6206
   44TAL   C220 2090  -6.689   8.590  -0.095 -0.9498 -0.0478  0.2830
   45HTM   C221 2091  -6.477   8.321   0.491  0.1655  0.2704 -0.0837
   45HTM   C222 2092  -6.569   8.260   0.570  0.0194  0.5920 -0.0045
   45HTM   C223 2093  -6.655   8.169   0.500 -0.2291  0.7381  0.1059
   45HTM   C224 2094  -6.629   8.159   0.367 -0.2726  0.5283  0.1109
   45HTM    S23 2095  -6.492   8.267   0.319 -0.0009  0.1261 -0.0245
   46TAL   C225 2096  -6.748   8.091   0.588 -0.5940  0.7748 -1.2008
   46TAL   C226 2097  -6.680   7.984   0.686  0.3314 -0.5755  0.9028
   46TAL   C227 2098  -6.600   7.862   0.646 -0.2359 -0.8021 -0.6980
   46TAL   C228 2099  -6.658   7.772   0.540  0.2003  0.1088  0.1535
   46TAL   C229 2100  -6.780   7.669   0.553 -0.6197 -0.1876  0.4512
   46TAL   C230 2101  -6.864   7.654   0.424 -0.3600  1.0027 -0.0767
   47HTM   C231 2102  -6.690   8.087   0.263 -0.1599 -0.0059 -0.0965
   47HTM   C232 2103  -6.818   8.039   0.258 -0.3715  0.5629 -0.4194
   47HTM   C233 2104  -6.846   7.961   0.140 -0.4496  0.7614 -0.5328
   47HTM   C234 2105  -6.740   7.950   0.055 -0.2976  0.3440 -0.2963
   47HTM    S24 2106  -6.595   8.038   0.118 -0.0419 -0.3372  0.0908
   48TAL   C235 2107  -6.994   7.901   0.120 -0.5846 -0.0388 -0.6330
   48TAL   C236 2108  -7.107   7.968   0.036 -0.3178  0.7721  0.4585
   48TAL   C237 2109  -7.072   7.989  -0.112  0.4546 -0.0613 -0.6682
   48TAL   C238 2110  -7.021   8.129  -0.131 -0.6176 -1.2865 -0.2568
   48TAL   C239 2111  -6.890   8.119  -0.211  0.4683 -0.2061 -0.4494
   48TAL   C240 2112  -6.899   8.176  -0.349  0.0972  0.3348 -0.0380
    1HTM     C1 2113   2.838   0.562   0.635 -0.1407  0.1656  0.0118
    1HTM     C2 2114   2.805   0.687   0.677  0.0612  0.3012 -0.2287
    1HTM     C3 2115   2.803   0.785   0.572  0.1904  0.0965 -0.4231
    1HTM     C4 2116   2.835   0.734   0.449  0.0870 -0.1952 -0.3309
    1HTM     S1 2117   2.869   0.558   0.457 -0.1835 -0.2342  0.0113
    2TAL     C5 2118   2.778   0.930   0.599  0.0692 -0.7110  0.3515
    2TAL     C6 2119   2.672   0.966   0.691 -0.5241 -0.2612 -0.9528
    2TAL     C7 2120   2.672   1.105   0.756 -0.2122  0.4463  1.1043
    2TAL     C8 2121   2.634   1.125   0.906  0.8064  1.0459  1.0303
    2TAL     C9 2122   2.606   1.276   0.937 -0.0607  0.5522  0.7198
    2TAL    C10 2123   2.726   1.370   0.925  0.6340  0.3581  0.3829
    3HTM    C11 2124   2.834   0.785   0.307 -0.3972  0.1611  0.0509
    3HTM    C12 2125   2.806   0.713   0.195 -0.8905  0.3088  0.0776
    3HTM    C13 2126   2.811   0.791   0.074 -0.6052  0.2878  0.0746
    3HTM    C14 2127   2.843   0.922   0.094  0.1056  0.1241  0.0456
    3HTM     S2 2128   2.870   0.958   0.269  0.4727 -0.0173  0.0196
    4TAL    C15 2129   2.780   0.747  -0.063 -0.9956  1.3433  0.2636
    4TAL    C16 2130   2.631   0.746  -0.083 -0.3942  0.3419  0.2293
    4TAL    C17 2131   2.571   0.659  -0.197  0.4054 -0.5426  0.2549
    4TAL    C18 2132   2.414   0.653  -0.207  0.2694 -1.1843  0.0287
    4TAL    C19 2133   2.328   0.770  -0.154 -1.3904 -0.3530 -0.4558
    4TAL    C20 2134   2.368   0.907  -0.213 -0.0927  0.6252 -0.3811
    5HTM    C21 2135   2.874   1.030   0.002  0.5126  0.0497 -0.3943
    5HTM    C22 2136   2.835   1.160   0.018  1.0003  0.1595 -0.0534
    5HTM    C23 2137   2.877   1.247  -0.088  1.2161  0.2562  0.1097
    5HTM    C24 2138   2.949   1.183  -0.186  0.8925  0.2202 -0.1066
    5HTM     S3 2139   2.968   1.008  -0.150  0.2858  0.0600 -0.5368
    6TAL    C25 2140   2.827   1.382  -0.097 -0.0779  0.6393 -1.0715
    6TAL    C26 2141   2.682   1.403  -0.080 -0.9764  0.5558  1.3612
    6TAL    C27 2142   2.647   1.478   0.039  0.1010  0.0668 -1.4497
    6TAL    C28 2143   2.549   1.382   0.107  0.0818 -0.8212 -0.7714
    6TAL    C29 2144   2.513   1.397   0.257  0.5456  0.7704  0.0641
    6TAL    C30 2145   2.436   1.514   0.310  0.2516 -0.1375 -0.3773
    7HTM    C31 2146   3.007   1.235  -0.309 -0.7469 -0.3837 -0.1063
    7HTM    C32 2147   3.077   1.162  -0.399 -1.0312 -0.4618 -0.2677
    7HTM    C33 2148   3.115   1.235  -0.517 -0.5167 -0.2663  0.0124
    7HTM    C34 2149   3.073   1.365  -0.517  0.1601 -0.0390  0.3878
    7HTM     S4 2150   2.982   1.405  -0.366  0.2003 -0.0545  0.4166
    8TAL    C35 2151   3.200   1.158  -0.623 -0.2837 -0.5943  0.6295
    8TAL    C36 2152   3.197   1.194  -0.770 -0.2360  0.6713  0.3380
    8TAL    C37 2153   3.272   1.076  -0.847 -0.4600 -0.7652  0.0806
    8TAL    C38 2154   3.315   1.100  -0.998 -0.3134 -0.5056  0.0696
    8TAL    C39 2155   3.392   0.987  -1.067  1.3022 -0.1341  1.2897
    8TAL    C40 2156   3.437   1.025  -1.206 -0.1233  0.2430  0.1826
    9HTM    C41 2157   3.093   1.482  -0.607  0.0110  0.5872  0.2086
    9HTM    C42 2158   3.196   1.572  -0.613 -0.3717  1.0361  0.2730
    9HTM    C43 2159   3.180   1.670  -0.717 -0.5999  0.7977  0.0761
    9HTM    C44 2160   3.066   1.656  -0.790 -0.3911  0.1669 -0.1383
    9HTM     S5 2161   2.968   1.515  -0.733  0.1138 -0.1775 -0.1084
   10TAL    C45 2162   3.285   1.784  -0.737 -0.4242  0.3148  0.5465
   10TAL    C46 2163   3.412   1.794  -0.657  0.2542 -0.8725  1.2281
   10TAL    C47 2164   3.533   1.789  -0.753  0.0221 -0.2635  0.2904
   10TAL    C48 2165   3.660   1.745  -0.675 -0.4097  1.0718 -0.4791
   10TAL    C49 2166   3.724   1.840  -0.561  1.5735  0.3051 -0.5831
   10TAL    C50 2167   3.784   1.968  -0.622  0.1357 -0.8611 -0.8582
   11HTM    C51 2168   3.007   1.736  -0.884  0.2181  0.3173 -0.1340
   11HTM    C52 2169   2.873   1.729  -0.905  0.2581  0.3160 -0.3903
   11HTM    C53 2170   2.823   1.829  -0.995  0.3644  0.5696 -0.1671
   11HTM    C54 2171   2.919   1.914  -1.042  0.4055  0.7643  0.2594
   11HTM     S6 2172   3.082   1.872  -0.976  0.3123  0.6414  0.4132
   12TAL    C55 2173   2.676   1.846  -1.033 -0.3810  0.3989  0.6268
   12TAL    C56 2174   2.613   1.723  -1.096 -0.4965  0.0919  0.2484
   12TAL    C57 2175   2.464   1.748  -1.114 -0.4418  0.3562  0.1529
   12TAL    C58 2176   2.386   1.618  -1.133  1.2105  0.4702  0.3249
   12TAL    C59 2177   2.234   1.644  -1.139  0.3494 -0.2048 -0.7492
   12TAL    C60 2178   2.157   1.508  -1.135  1.0491  0.0410  0.7893
   13HTM    C61 2179   2.909   2.025  -1.138  0.4360  0.4458  0.3102
   13HTM    C62 2180   2.976   2.006  -1.256  0.7882  0.3300  0.5255
   13HTM    C63 2181   2.929   2.090  -1.363  0.8463 -0.0458  0.2012
   13HTM    C64 2182   2.828   2.173  -1.327  0.5387 -0.2167 -0.2615
   13HTM     S7 2183   2.782   2.152  -1.154  0.1485  0.0861 -0.3239
   14TAL    C65 2184   2.991   2.093  -1.495  1.2044 -0.2995 -0.0057
   14TAL    C66 2185   2.906   2.000  -1.584  0.6838  0.3851  0.6514
   14TAL    C67 2186   2.975   1.953  -1.718 -0.5419 -1.1609 -0.9077
   14TAL    C68 2187   3.028   2.058  -1.822  1.2342  0.1361 -0.6554
   14TAL    C69 2188   2.940   2.156  -1.908 -0.5600  0.3944 -0.8434
   14TAL    C70 2189   2.793   2.144  -1.909  0.0944 -0.2650 -0.4350
   15HTM    C71 2190   2.750   2.264  -1.413  0.7129 -0.7189 -0.5487
   15HTM    C72 2191   2.781   2.380  -1.479  0.9359 -0.7752 -0.5422
   15HTM    C73 2192   2.679   2.423  -1.572  0.6530 -0.1395  0.0479
   15HTM    C74 2193   2.571   2.341  -1.576  0.2145  0.4016  0.4922
   15HTM     S8 2194   2.588   2.201  -1.463  0.1239  0.1481  0.1967
   16TAL    C75 2195   2.688   2.549  -1.645  0.2689  0.1252  0.0602
   16TAL    C76 2196   2.710   2.556  -1.796  0.4811 -0.4117 -0.5077
   16TAL    C77 2197   2.728   2.699  -1.858  0.1661  1.1762  0.1264
   16TAL    C78 2198   2.801   2.731  -1.985 -0.6450 -0.0590  0.3405
   16TAL    C79 2199   2.947   2.769  -1.952 -1.0473  0.7466 -0.6676
   16TAL    C80 2200   3.030   2.806  -2.082 -0.7409  0.0719  0.3512
   17HTM    C81 2201   2.441   2.358  -1.624 -0.5749 -0.0236  0.6398
   17HTM    C82 2202   2.328   2.300  -1.574 -0.6441 -0.0140  0.4952
   17HTM    C83 2203   2.210   2.326  -1.652 -0.5205 -0.1028  0.2778
   17HTM    C84 2204   2.233   2.404  -1.762 -0.3570 -0.1799  0.2567
   17HTM     S9 2205   2.407   2.450  -1.775 -0.3463 -0.1463  0.5118
   18TAL    C85 2206   2.068   2.283  -1.630  0.3732  0.7585 -0.1782
   18TAL    C86 2207   2.020   2.183  -1.518 -0.2212 -0.3393  0.8811
   18TAL    C87 2208   2.036   2.232  -1.378 -0.5350 -0.9697  0.4946
   18TAL    C88 2209   2.011   2.139  -1.260  0.1822 -0.4346 -0.3844
   18TAL    C89 2210   2.067   2.007  -1.216 -0.0530 -1.1723  0.7623
   18TAL    C90 2211   2.213   1.997  -1.258 -0.1590 -0.0920 -0.2125
   19HTM    C91 2212   2.146   2.434  -1.882  0.2107  0.1681 -0.2813
   19HTM    C92 2213   2.017   2.476  -1.893  0.4685  1.0586 -0.0738
   19HTM    C93 2214   1.969   2.482  -2.028  0.2244  1.1662  0.0170
   19HTM    C94 2215   2.061   2.445  -2.121 -0.2197  0.3577 -0.1213
   19HTM    S10 2216   2.218   2.399  -2.044 -0.3649 -0.6099 -0.3788
   20TAL    C95 2217   1.832   2.536  -2.061 -0.9259  0.5634  0.2745
   20TAL    C96 2218   1.740   2.457  -2.143 -1.0731 -0.1179  0.1953
   20TAL    C97 2219   1.615   2.540  -2.182 -0.1539  0.7838  0.2070
   20TAL    C98 2220   1.523   2.423  -2.222  0.7014 -0.3249 -0.4727
   20TAL    C99 2221   1.384   2.465  -2.267  1.0547  0.9493 -0.3122
   20TAL   C100 2222   1.321   2.328  -2.323 -0.4133 -0.3592  0.0930
   21HTM   C101 2223   2.065   2.438  -2.269 -0.2290 -0.4873  0.1290
   21HTM   C102 2224   2.053   2.540  -2.359 -0.7547 -0.2429  0.4629
   21HTM   C103 2225   2.074   2.499  -2.496 -0.7823  0.2671  0.3029
   21HTM   C104 2226   2.101   2.366  -2.510 -0.2777  0.4116 -0.1528
   21HTM    S11 2227   2.103   2.281  -2.351  0.2759 -0.0893 -0.4176
   22TAL   C105 2228   2.053   2.592  -2.604  0.5714 -0.4679 -0.0994
   22TAL   C106 2229   1.907   2.613  -2.668 -0.6031 -0.4039 -0.1538
   22TAL   C107 2230   1.874   2.759  -2.709 -0.3605 -0.6218  1.3941
   22TAL   C108 2231   1.731   2.785  -2.764  0.2609 -0.1791 -0.5476
   22TAL   C109 2232   1.635   2.823  -2.656 -0.0661 -0.0360 -1.0710
   22TAL   C110 2233   1.493   2.839  -2.708  0.1695 -0.1013 -0.0644
   23HTM   C111 2234   2.143   2.282  -2.620 -0.0092  0.1897  0.0115
   23HTM   C112 2235   2.256   2.206  -2.624  0.3497  0.7108  0.0890
   23HTM   C113 2236   2.281   2.147  -2.753  0.5757  0.6217  0.1734
   23HTM   C114 2237   2.187   2.177  -2.847  0.3891  0.0327  0.1602
   23HTM    S12 2238   2.059   2.284  -2.780 -0.0905 -0.4590  0.0392
   24TAL   C115 2239   2.406   2.062  -2.754  0.0746  0.6810 -0.4030
   24TAL   C116 2240   2.525   2.129  -2.799  0.3865  0.0551 -0.6240
   24TAL   C117 2241   2.660   2.055  -2.777 -0.6694 -0.0296  0.9733
   24TAL   C118 2242   2.793   2.144  -2.797  0.9632  0.6642  0.6959
   24TAL   C119 2243   2.914   2.059  -2.750 -1.1365  0.0853 -0.8008
   24TAL   C120 2244   3.024   2.167  -2.727 -1.0119 -0.4508  0.1404
   25HTM   C121 2245   2.177   2.151  -2.990 -0.3265  0.3717  0.4002
   25HTM   C122 2246   2.274   2.184  -3.080 -0.1359  0.1666  0.5276
   25HTM   C123 2247   2.248   2.135  -3.213  0.0569  0.0159  0.5450
   25HTM   C124 2248   2.132   2.065  -3.224  0.0134  0.1059  0.4309
   25HTM    S13 2249   2.045   2.055  -3.067 -0.2769  0.3903  0.2913
   26TAL   C125 2250   2.342   2.162  -3.335  0.3810 -1.1054  0.2357
   26TAL   C126 2251   2.427   2.293  -3.327 -0.0719  0.8155  0.9125
   26TAL   C127 2252   2.486   2.318  -3.476  0.1506 -0.6417 -0.4599
   26TAL   C128 2253   2.593   2.217  -3.531  1.0534 -0.1116 -0.3447
   26TAL   C129 2254   2.619   2.247  -3.676 -0.0425 -0.3875  0.2942
   26TAL   C130 2255   2.694   2.126  -3.729 -0.4175 -0.2890 -0.3583
   27HTM   C131 2256   2.066   2.009  -3.334  0.0217 -0.2882  0.7382
   27HTM   C132 2257   2.065   2.037  -3.468  0.3518 -0.0639  0.7802
   27HTM   C133 2258   1.965   1.964  -3.542  0.2477  0.3771  0.4779
   27HTM   C134 2259   1.890   1.880  -3.464 -0.1619  0.4889  0.2052
   27HTM    S14 2260   1.939   1.888  -3.291 -0.4501  0.0425  0.3099
   28TAL   C135 2261   1.969   2.000  -3.692 -0.3704  1.4759 -0.3652
   28TAL   C136 2262   1.872   1.949  -3.801  0.6722  0.1768 -0.8635
   28TAL   C137 2263   1.941   1.912  -3.926 -0.5131  0.0645 -0.0359
   28TAL   C138 2264   1.855   1.863  -4.037  0.5659  1.2836  0.0040
   28TAL   C139 2265   1.907   1.738  -4.117  0.6318 -0.3204 -0.5023
   28TAL   C140 2266   1.933   1.614  -4.043 -0.1550  1.0700  1.1341
   29HTM   C141 2267   1.785   1.794  -3.504  0.1393 -0.3127 -1.1836
   29HTM   C142 2268   1.796   1.659  -3.522 -0.0288 -0.3061 -1.3366
   29HTM   C143 2269   1.671   1.594  -3.551 -0.2498 -0.2399 -0.5733
   29HTM   C144 2270   1.565   1.680  -3.555 -0.2502 -0.1961  0.1616
   29HTM    S15 2271   1.615   1.850  -3.522  0.0307 -0.2353 -0.0548
   30TAL   C145 2272   1.671   1.451  -3.583 -0.1914 -0.2440 -0.3523
   30TAL   C146 2273   1.794   1.398  -3.638  0.8024 -0.1873  0.4414
   30TAL   C147 2274   1.786   1.250  -3.673 -0.4818  0.2892 -0.8027
   30TAL   C148 2275   1.913   1.179  -3.726 -1.1988 -0.1617  0.5648
   30TAL   C149 2276   2.028   1.171  -3.624 -0.6943  0.0838 -0.0013
   30TAL   C150 2277   2.142   1.072  -3.672  0.4944  1.1685  0.2213
   31HTM   C151 2278   1.429   1.650  -3.581  0.0308 -0.5449  0.6217
   31HTM   C152 2279   1.381   1.559  -3.670  0.0714 -0.7509  0.8104
   31HTM   C153 2280   1.237   1.558  -3.680  0.0949 -0.4306  0.3890
   31HTM   C154 2281   1.176   1.649  -3.599  0.0723  0.0196 -0.1211
   31HTM    S16 2282   1.296   1.743  -3.503  0.0190  0.0744 -0.1086
   32TAL   C155 2283   1.176   1.469  -3.796  0.0622  0.9449  0.9841
   32TAL   C156 2284   1.257   1.376  -3.912 -0.9407 -0.7962 -1.0245
   32TAL   C157 2285   1.163   1.281  -3.965  0.1068 -0.5652 -0.5523
   32TAL   C158 2286   1.175   1.304  -4.116  0.1236 -0.3517 -0.1203
   32TAL   C159 2287   1.065   1.226  -4.190  0.1620  0.3691  0.2876
   32TAL   C160 2288   1.116   1.208  -4.327 -0.0602  0.6288  0.2269
   33HTM   C161 2289   1.037   1.695  -3.605 -0.0390 -0.2112 -0.5159
   33HTM   C162 2290   0.985   1.731  -3.484  0.0562 -0.8119 -0.2879
   33HTM   C163 2291   0.882   1.831  -3.493 -0.0311 -0.8426  0.2863
   33HTM   C164 2292   0.856   1.872  -3.621 -0.1929 -0.2653  0.4962
   33HTM    S17 2293   0.960   1.786  -3.740 -0.2480  0.3669 -0.0189
   34TAL   C165 2294   0.778   1.867  -3.393  0.0210 -0.1291 -0.4215
   34TAL   C166 2295   0.762   1.780  -3.273  0.7804 -0.5898 -0.7476
   34TAL   C167 2296   0.845   1.785  -3.142 -0.1429  0.6229 -0.0999
   34TAL   C168 2297   0.874   1.920  -3.083  0.7385 -1.5018 -0.7181
   34TAL   C169 2298   0.984   2.003  -3.140 -0.4382  0.0886  0.9854
   34TAL   C170 2299   1.029   2.131  -3.063  0.7439  0.9276  0.2172
   35HTM   C171 2300   0.767   1.967  -3.689 -0.4590  0.2084 -0.2994
   35HTM   C172 2301   0.642   1.999  -3.646 -0.4336  0.3091 -0.2998
   35HTM   C173 2302   0.590   2.121  -3.704 -0.1365  0.6207  0.0826
   35HTM   C174 2303   0.676   2.181  -3.790  0.0646  0.7577  0.3747
   35HTM    S18 2304   0.830   2.089  -3.806 -0.1069  0.5018  0.1881
   36TAL   C175 2305   0.460   2.165  -3.662  0.2911  0.2807 -0.0448
   36TAL   C176 2306   0.355   2.108  -3.757  0.5978 -0.5860 -0.1367
   36TAL   C177 2307   0.330   1.969  -3.764  0.0172  0.9326 -0.2526
   36TAL   C178 2308   0.238   1.890  -3.662 -0.3457 -0.2011  0.4336
   36TAL   C179 2309   0.113   1.821  -3.728 -1.4113 -0.3502 -0.8056
   36TAL   C180 2310   0.144   1.675  -3.768  0.0976 -0.4246  0.2116
   37HTM   C181 2311   0.662   2.291  -3.881  0.4310  0.2003 -0.2806
   37HTM   C182 2312   0.732   2.304  -3.997  0.4315  0.3558 -0.2637
   37HTM   C183 2313   0.727   2.436  -4.054  0.1777  0.3530 -0.2488
   37HTM   C184 2314   0.652   2.524  -3.981 -0.0163  0.1954 -0.2543
   37HTM    S19 2315   0.583   2.446  -3.834  0.1074  0.0371 -0.2790
   38TAL   C185 2316   0.788   2.470  -4.187  0.1617  1.6627 -1.2480
   38TAL   C186 2317   0.714   2.413  -4.304  0.4763  0.0875  0.5402
   38TAL   C187 2318   0.768   2.464  -4.435 -0.7673  0.8167 -0.2871
   38TAL   C188 2319   0.731   2.596  -4.469  0.4327 -0.9351 -0.4431
   38TAL   C189 2320   0.813   2.679  -4.566 -0.0031 -0.0432  0.3346
   38TAL   C190 2321   0.768   2.816  -4.585  1.1541 -0.2798  0.2588
   39HTM   C191 2322   0.625   2.668  -3.990 -0.1960 -0.3164 -0.3355
   39HTM   C192 2323   0.655   2.758  -4.088  0.3399 -0.0722  0.0393
   39HTM   C193 2324   0.623   2.894  -4.054  0.7953 -0.0677  0.4616
   39HTM   C194 2325   0.569   2.908  -3.929  0.6067 -0.3084  0.4086
   39HTM    S20 2326   0.554   2.749  -3.845 -0.1667 -0.5616 -0.1834
   40TAL   C195 2327   0.656   3.017  -4.145  0.2850 -0.3221  1.3669
   40TAL   C196 2328   0.663   2.992  -4.302 -0.2764 -0.3349 -0.3425
   40TAL   C197 2329   0.736   3.089  -4.403  0.5929  0.3171 -1.0065
   40TAL   C198 2330   0.668   3.217  -4.447  0.1978 -0.7911 -0.4290
   40TAL   C199 2331   0.547   3.217  -4.538  0.0306  0.3986 -0.0438
   40TAL   C200 2332   0.532   3.350  -4.608 -0.9396 -0.2122 -0.2030
   41HTM   C201 2333   0.535   3.024  -3.845 -0.1799 -0.1386  0.0375
   41HTM   C202 2334   0.506   3.150  -3.889  0.2407 -0.0337  0.0521
   41HTM   C203 2335   0.487   3.246  -3.784  0.6218  0.0325  0.0619
   41HTM   C204 2336   0.502   3.194  -3.659  0.4916 -0.0220  0.0549
   41HTM    S21 2337   0.541   3.018  -3.665 -0.1271 -0.1621  0.0349
   42TAL   C205 2338   0.455   3.386  -3.825 -0.1797  0.0753  0.2402
   42TAL   C206 2339   0.587   3.436  -3.882 -0.5689  0.3483 -0.3206
   42TAL   C207 2340   0.573   3.574  -3.939 -0.4063  0.7013  0.4852
   42TAL   C208 2341   0.683   3.629  -4.028  0.1944 -0.0299  0.0529
   42TAL   C209 2342   0.686   3.764  -4.115  0.1339  0.2440 -0.1386
   42TAL   C210 2343   0.542   3.801  -4.153 -0.8048  0.4259 -0.2433
   43HTM   C211 2344   0.472   3.260  -3.526 -0.4787 -0.3615 -0.2489
   43HTM   C212 2345   0.460   3.186  -3.412  0.0697 -0.0917 -0.0082
   43HTM   C213 2346   0.395   3.256  -3.305  0.8630  0.2701  0.2517
   43HTM   C214 2347   0.358   3.384  -3.336  0.9195  0.2761  0.2089
   43HTM    S22 2348   0.402   3.425  -3.506 -0.0322 -0.1782 -0.1657
   44TAL   C215 2349   0.351   3.197  -3.167  0.1664 -0.0727  0.6676
   44TAL   C216 2350   0.229   3.097  -3.177 -0.8738  0.0035 -0.9678
   44TAL   C217 2351   0.168   3.016  -3.059  0.1323 -0.2613 -0.1885
   44TAL   C218 2352   0.268   2.953  -2.957  1.2774 -0.7855 -0.3227
   44TAL   C219 2353   0.226   2.827  -2.885  0.9372 -0.4131 -0.6308
   44TAL   C220 2354   0.274   2.815  -2.746  0.3226  0.3138 -1.4360
   45HTM   C221 2355   0.278   3.488  -3.274  0.0681  0.2906 -0.2766
   45HTM   C222 2356   0.184   3.568  -3.332  0.3322  0.6919 -0.1543
   45HTM   C223 2357   0.108   3.646  -3.238  0.4639  0.6601 -0.0215
   45HTM   C224 2358   0.144   3.625  -3.108  0.3002  0.2346 -0.0425
   45HTM    S23 2359   0.277   3.504  -3.095 -0.0355 -0.1621 -0.2332
   46TAL   C225 2360   0.001   3.742  -3.275 -0.5613 -1.3240  0.4369
   46TAL   C226 2361   0.054   3.879  -3.338  0.2108  0.3482  0.0452
   46TAL   C227 2362   0.162   3.955  -3.250 -0.2571  0.4185 -0.4008
   46TAL   C228 2363   0.263   4.049  -3.298 -0.3716 -0.5872  0.3990
   46TAL   C229 2364   0.204   4.171  -3.383 -0.1655 -0.2935  0.0408
   46TAL   C230 2365   0.316   4.257  -3.439  0.8667  0.4259 -0.2178
   47HTM   C231 2366   0.098   3.667  -2.982  0.4031 -0.4964  0.1102
   47HTM   C232 2367   0.013   3.769  -2.951  0.8730 -0.0741  0.0329
   47HTM   C233 2368  -0.021   3.776  -2.811  0.8368  0.1393  0.0145
   47HTM   C234 2369   0.038   3.679  -2.735  0.3395 -0.1203  0.0779
   47HTM    S24 2370   0.142   3.571  -2.835 -0.1257 -0.6586  0.1662
   48TAL   C235 2371  -0.120   3.869  -2.736  0.9373  0.0708  0.7555
   48TAL   C236 2372  -0.067   4.002  -2.684  0.1309  0.4825  0.0040
   48TAL   C237 2373  -0.151   4.102  -2.611 -0.7597 -0.1076 -1.5094
   48TAL   C238 2374  -0.230   4.067  -2.484 -1.0850  0.3655 -0.4148
   48TAL   C239 2375  -0.312   4.187  -2.444 -0.0824 -0.1794 -0.9376
   48TAL   C240 2376  -0.366   4.183  -2.298  0.6635  0.1451  0.3662
    1HTM     C1 2377   1.111   1.406   0.618 -0.1766 -0.3206 -0.3399
    1HTM     C2 2378   0.985   1.353   0.619 -0.1390 -0.4247 -0.7862
    1HTM     C3 2379   0.895   1.417   0.527  0.0630 -0.3229 -0.9155
    1HTM     C4 2380   0.951   1.519   0.456  0.1796 -0.1412 -0.5677
    1HTM     S1 2381   1.125   1.542   0.500  0.0421 -0.0841 -0.0460
    2TAL     C5 2382   0.744   1.378   0.511 -0.1858 -0.1863  0.8523
    2TAL     C6 2383   0.668   1.349   0.638  1.0163  0.0485  0.7229
    2TAL     C7 2384   0.661   1.454   0.740  0.2963  0.2056  0.3034
    2TAL     C8 2385   0.626   1.410   0.878 -0.5208 -0.0755 -0.2531
    2TAL     C9 2386   0.746   1.353   0.952 -1.0739  0.3625 -0.3021
    2TAL    C10 2387   0.724   1.318   1.094  0.6915  0.6590 -1.1492
    3HTM    C11 2388   0.901   1.629   0.376  0.1349  0.1878 -0.7282
    3HTM    C12 2389   0.796   1.633   0.289  0.3399  0.5314 -0.9667
    3HTM    C13 2390   0.771   1.763   0.234  0.4884  0.7497 -0.5279
    3HTM    C14 2391   0.857   1.859   0.278  0.3967  0.5727  0.0451
    3HTM     S2 2392   0.977   1.792   0.395  0.1134  0.1129  0.0752
    4TAL    C15 2393   0.670   1.788   0.116  0.3452  0.4449 -0.1692
    4TAL    C16 2394   0.700   1.752  -0.033  0.7323 -0.0968 -0.0943
    4TAL    C17 2395   0.726   1.607  -0.071 -0.4001 -0.6339  0.3092
    4TAL    C18 2396   0.611   1.497  -0.081 -0.0917  0.5731 -0.2168
    4TAL    C19 2397   0.473   1.531  -0.140 -0.4521 -0.3759  0.1259
    4TAL    C20 2398   0.351   1.523  -0.055  0.0475  0.4006 -0.4150
    5HTM    C21 2399   0.883   2.001   0.244 -0.0611 -0.2141  0.0601
    5HTM    C22 2400   1.001   2.069   0.248  0.0378 -0.3601 -0.2620
    5HTM    C23 2401   0.992   2.205   0.202  0.1201 -0.4041 -0.4085
    5HTM    C24 2402   0.867   2.241   0.162  0.0839 -0.2916 -0.1982
    5HTM     S3 2403   0.750   2.104   0.180 -0.0580 -0.1201  0.2044
    6TAL    C25 2404   1.109   2.302   0.227  0.8112 -0.3788  0.3067
    6TAL    C26 2405   1.119   2.325   0.370  0.9906 -0.3010 -1.4040
    6TAL    C27 2406   1.230   2.412   0.403 -0.6707 -0.7694 -0.1544
    6TAL    C28 2407   1.253   2.448   0.555 -0.0426 -0.0968 -0.7132
    6TAL    C29 2408   1.169   2.570   0.618 -0.3160  0.1571 -0.2098
    6TAL    C30 2409   1.148   2.695   0.531  0.0614  0.3622 -0.0449
    7HTM    C31 2410   0.822   2.368   0.103 -0.3179  0.5777 -0.4024
    7HTM    C32 2411   0.796   2.386  -0.030 -0.9297  0.8330 -0.2561
    7HTM    C33 2412   0.777   2.524  -0.067 -1.2175  0.8966  0.1113
    7HTM    C34 2413   0.789   2.611   0.037 -0.8251  0.6899  0.2453
    7HTM     S4 2414   0.824   2.525   0.191 -0.0556  0.3964 -0.0849
    8TAL    C35 2415   0.761   2.579  -0.210 -0.3660 -0.2439 -0.7116
    8TAL    C36 2416   0.845   2.523  -0.326 -0.5324 -0.3321 -0.6490
    8TAL    C37 2417   0.795   2.570  -0.459  1.2147  0.0839 -0.3872
    8TAL    C38 2418   0.837   2.711  -0.511 -0.6562 -0.0135 -0.1048
    8TAL    C39 2419   0.761   2.766  -0.632 -0.3846  0.8249 -0.0786
    8TAL    C40 2420   0.764   2.690  -0.759  1.2379  0.8871  0.1453
    9HTM    C41 2421   0.758   2.751   0.052 -0.7684  0.1732 -0.0005
    9HTM    C42 2422   0.649   2.823   0.090 -0.5378  0.6077 -0.1561
    9HTM    C43 2423   0.660   2.964   0.062  0.1223  0.5894 -0.0190
    9HTM    C44 2424   0.777   2.999   0.001  0.3949  0.1409  0.2410
    9HTM     S5 2425   0.883   2.855  -0.025 -0.1652 -0.2965  0.3335
   10TAL    C45 2426   0.556   3.066   0.110  0.1517  0.6571  0.0059
   10TAL    C46 2427   0.459   3.025   0.221 -0.8028  0.8174  0.3283
   10TAL    C47 2428   0.343   3.105   0.277  0.7165 -0.9539 -0.0354
   10TAL    C48 2429   0.301   3.080   0.422 -0.2213 -0.5140 -0.6825
   10TAL    C49 2430   0.239   3.184   0.518 -0.3939  0.5305  0.1474
   10TAL    C50 2431   0.131   3.114   0.596  0.2716  0.5531 -0.9166
   11HTM    C51 2432   0.826   3.132  -0.038  0.0332 -0.1001 -0.3347
   11HTM    C52 2433   0.826   3.182  -0.165  0.4832  0.1767 -0.2291
   11HTM    C53 2434   0.866   3.320  -0.172  0.2625  0.2701  0.2470
   11HTM    C54 2435   0.897   3.375  -0.051 -0.3556  0.0645  0.5041
   11HTM     S6 2436   0.877   3.256   0.082 -0.7098 -0.2656  0.1627
   12TAL    C55 2437   0.839   3.379  -0.309 -0.2488  0.4228  0.0093
   12TAL    C56 2438   0.897   3.307  -0.426  0.2369  0.1469  1.1928
   12TAL    C57 2439   0.907   3.393  -0.565  0.1521 -0.3781 -0.6707
   12TAL    C58 2440   0.918   3.316  -0.695  0.0007 -0.6841 -0.6425
   12TAL    C59 2441   0.860   3.401  -0.811 -0.5021  0.3250 -0.0614
   12TAL    C60 2442   0.793   3.300  -0.904 -0.4786 -0.1084 -0.0489
   13HTM    C61 2443   0.926   3.517  -0.003 -0.2899  0.3705  0.1413
   13HTM    C62 2444   0.887   3.579   0.112 -0.8789  1.0108 -0.3862
   13HTM    C63 2445   0.934   3.715   0.124 -0.9341  1.0761 -0.8960
   13HTM    C64 2446   1.008   3.757   0.017 -0.3872  0.4854 -0.7567
   13HTM     S7 2447   1.026   3.627  -0.106  0.2449 -0.2044  0.0347
   14TAL    C65 2448   0.932   3.788   0.244 -0.2165 -0.5391 -0.2285
   14TAL    C66 2449   0.812   3.756   0.338 -0.3477 -0.6469 -0.0675
   14TAL    C67 2450   0.817   3.692   0.474 -0.6487  0.3401  0.3584
   14TAL    C68 2451   0.675   3.664   0.519  0.6970  0.0472  0.3543
   14TAL    C69 2452   0.650   3.526   0.572  0.0126  0.9699  0.3795
   14TAL    C70 2453   0.493   3.511   0.553 -0.2745  0.2919  0.0850
   15HTM    C71 2454   1.071   3.877  -0.016  0.6305 -0.5306 -0.3016
   15HTM    C72 2455   1.137   3.906  -0.131  0.3644 -0.0361 -0.3369
   15HTM    C73 2456   1.169   4.046  -0.146 -0.2241  0.1270 -0.1128
   15HTM    C74 2457   1.126   4.124  -0.043 -0.4067 -0.2432  0.0929
   15HTM     S8 2458   1.042   4.026   0.083  0.1548 -0.8310  0.0195
   16TAL    C75 2459   1.238   4.112  -0.265  1.7007 -1.0852  0.6153
   16TAL    C76 2460   1.291   4.033  -0.374 -0.4164  0.7807 -0.8463
   16TAL    C77 2461   1.402   4.088  -0.460 -0.0494 -0.3240  1.6674
   16TAL    C78 2462   1.416   4.008  -0.597 -0.0841 -0.4426  0.2265
   16TAL    C79 2463   1.520   4.082  -0.689  0.1794  0.4142 -0.3779
   16TAL    C80 2464   1.524   4.233  -0.693 -1.2676  0.8734 -0.1827
   17HTM    C81 2465   1.152   4.271  -0.019  0.2203  0.1691 -0.1544
   17HTM    C82 2466   1.221   4.336   0.079  0.7654  0.2928 -0.6146
   17HTM    C83 2467   1.215   4.480   0.067  0.6716  0.2789 -0.7453
   17HTM    C84 2468   1.142   4.523  -0.039  0.0548  0.1447 -0.3843
   17HTM     S9 2469   1.073   4.386  -0.134 -0.4592  0.0244  0.1528
   18TAL    C85 2470   1.283   4.564   0.176  0.3961  0.3545  0.3706
   18TAL    C86 2471   1.216   4.599   0.307 -0.4455  0.5516 -1.2236
   18TAL    C87 2472   1.103   4.706   0.313  0.2110 -0.0812  1.0965
   18TAL    C88 2473   0.993   4.711   0.411  0.4185  0.6419 -0.3457
   18TAL    C89 2474   0.878   4.602   0.411 -0.1284  0.2329 -0.2215
   18TAL    C90 2475   0.805   4.587   0.277  0.1272  0.5057 -0.5473
   19HTM    C91 2476   1.100   4.654  -0.092 -0.4927  0.3736  0.2413
   19HTM    C92 2477   1.006   4.674  -0.188 -1.0594  0.2819  0.7644
   19HTM    C93 2478   0.975   4.813  -0.211 -1.0946  0.2681  0.7267
   19HTM    C94 2479   1.045   4.898  -0.131 -0.5548  0.3491  0.1744
   19HTM    S10 2480   1.157   4.809  -0.021  0.0446  0.4501 -0.3447
   20TAL    C95 2481   0.879   4.860  -0.330 -0.1766 -0.0440  0.2028
   20TAL    C96 2482   0.754   4.771  -0.342 -0.1800 -0.2647 -0.0946
   20TAL    C97 2483   0.712   4.751  -0.486  0.4783 -0.2629 -0.1121
   20TAL    C98 2484   0.617   4.854  -0.547 -0.1254  0.7831 -0.2091
   20TAL    C99 2485   0.502   4.902  -0.468 -0.0810  0.5678  0.9125
   20TAL   C100 2486   0.399   4.994  -0.513 -0.4465 -0.0136 -0.2926
   21HTM   C101 2487   1.038   5.038  -0.107  0.2802  0.0094  0.0234
   21HTM   C102 2488   0.963   5.104  -0.014  0.2709  0.2102 -0.1247
   21HTM   C103 2489   0.982   5.246  -0.014  0.6166  0.1657 -0.1202
   21HTM   C104 2490   1.072   5.290  -0.107  0.8894 -0.0689  0.0316
   21HTM    S11 2491   1.140   5.152  -0.202  0.7297 -0.2535  0.1813
   22TAL   C105 2492   0.925   5.334   0.088 -0.1184  1.0391  0.4010
   22TAL   C106 2493   0.772   5.340   0.109 -0.7109  0.6203 -0.4239
   22TAL   C107 2494   0.681   5.363  -0.008 -1.2151 -0.5265  0.5265
   22TAL   C108 2495   0.537   5.358   0.018  0.1975  0.2310 -0.4727
   22TAL   C109 2496   0.455   5.370  -0.113 -0.2940 -1.1455 -0.2414
   22TAL   C110 2497   0.479   5.274  -0.221 -0.2731 -0.1914 -0.2151
   23HTM   C111 2498   1.118   5.423  -0.137 -0.5072 -0.1485  0.6398
   23HTM   C112 2499   1.238   5.484  -0.155 -0.3310 -0.5121  0.5836
   23HTM   C113 2500   1.229   5.615  -0.214  0.0772 -0.7240  0.0265
   23HTM   C114 2501   1.101   5.655  -0.240  0.2123 -0.5218 -0.3422
   23HTM    S12 2502   0.982   5.528  -0.192 -0.1686 -0.0446 -0.0114
   24TAL   C115 2503   1.356   5.690  -0.247 -0.5559  0.6386  1.0246
   24TAL   C116 2504   1.484   5.668  -0.172  0.2927 -0.7252 -0.4928
   24TAL   C117 2505   1.606   5.700  -0.243 -0.4383  0.2664  0.2198
   24TAL   C118 2506   1.735   5.706  -0.163  0.2819 -0.7654 -0.5913
   24TAL   C119 2507   1.833   5.594  -0.146  1.1611 -0.3239 -0.4255
   24TAL   C120 2508   1.983   5.645  -0.151 -0.4155 -0.4323  0.1021
   25HTM   C121 2509   1.035   5.782  -0.276 -0.4635  0.0501  0.1584
   25HTM   C122 2510   0.923   5.797  -0.352 -0.6597  0.1923  0.4740
   25HTM   C123 2511   0.885   5.935  -0.372 -0.3927  0.2526  0.3698
   25HTM   C124 2512   0.968   6.024  -0.311  0.0071  0.1566 -0.0250
   25HTM    S13 2513   1.102   5.941  -0.223  0.0779 -0.0191 -0.2984
   26TAL   C125 2514   0.761   5.965  -0.443  0.1274 -0.6311  0.2460
   26TAL   C126 2515   0.778   5.995  -0.596  0.4438  0.3448  0.3337
   26TAL   C127 2516   0.651   6.019  -0.665  0.0811  0.8900 -0.6740
   26TAL   C128 2517   0.653   6.010  -0.810 -0.9261  0.7528  0.3424
   26TAL   C129 2518   0.509   5.984  -0.845 -0.1109  0.0119  0.4667
   26TAL   C130 2519   0.488   5.983  -0.989  0.3049  0.9417  1.4253
   27HTM   C131 2520   0.953   6.164  -0.281 -0.4713 -0.2047 -0.2065
   27HTM   C132 2521   0.978   6.273  -0.359 -0.6341 -0.3697 -0.4895
   27HTM   C133 2522   0.957   6.399  -0.292 -0.1188 -0.2271 -0.5872
   27HTM   C134 2523   0.916   6.386  -0.163  0.4369  0.0467 -0.3787
   27HTM    S14 2524   0.901   6.213  -0.115  0.3518  0.1463 -0.0404
   28TAL   C135 2525   0.990   6.533  -0.352 -0.2341 -0.5834 -0.0901
   28TAL   C136 2526   1.137   6.528  -0.403  0.5263  0.1986  0.2698
   28TAL   C137 2527   1.188   6.643  -0.479 -0.2015 -0.6610  0.9396
   28TAL   C138 2528   1.336   6.625  -0.498  0.4966 -0.3698 -0.1985
   28TAL   C139 2529   1.405   6.757  -0.536  0.3747  0.5455 -0.0763
   28TAL   C140 2530   1.550   6.742  -0.554 -0.2067  0.1243 -0.3251
   29HTM   C141 2531   0.896   6.479  -0.053 -0.0888 -0.0855 -0.0486
   29HTM   C142 2532   0.892   6.615  -0.059  0.3814 -0.0830 -0.3836
   29HTM   C143 2533   0.861   6.678   0.067  0.5778  0.3350 -0.5405
   29HTM   C144 2534   0.841   6.590   0.169  0.2573  0.6510 -0.3246
   29HTM    S15 2535   0.860   6.419   0.113 -0.3219  0.4437  0.0963
   30TAL   C145 2536   0.866   6.833   0.077  0.3040  0.3064 -1.1405
   30TAL   C146 2537   0.952   6.928  -0.006  0.2299 -0.6072  0.6259
   30TAL   C147 2538   0.981   6.928  -0.158 -0.1717 -0.2145  0.1518
   30TAL   C148 2539   1.080   7.042  -0.201  0.1947  0.7450 -0.0088
   30TAL   C149 2540   1.078   7.068  -0.347  0.4245  0.0773  0.2839
   30TAL   C150 2541   1.194   7.164  -0.398  0.5181  0.4735  0.1052
   31HTM   C151 2542   0.795   6.606   0.305  0.1846 -0.0705 -0.3367
   31HTM   C152 2543   0.677   6.667   0.333  0.2827  0.1824 -0.4654
   31HTM   C153 2544   0.646   6.672   0.473  0.1396  0.2471 -0.4984
   31HTM   C154 2545   0.741   6.614   0.552 -0.0676  0.0437 -0.3949
   31HTM    S16 2546   0.878   6.549   0.454 -0.0983 -0.2476 -0.2466
   32TAL   C155 2547   0.547   6.769   0.524  0.2634 -0.3996 -0.1446
   32TAL   C156 2548   0.452   6.750   0.643 -0.2197  0.0980 -0.7959
   32TAL   C157 2549   0.313   6.780   0.624 -0.3254 -0.6459 -0.3281
   32TAL   C158 2550   0.223   6.748   0.743 -0.3717 -0.3347 -0.6143
   32TAL   C159 2551   0.074   6.787   0.759  0.4376 -0.8505  0.3142
   32TAL   C160 2552   0.040   6.937   0.777 -0.0798 -0.1723  0.6830
   33HTM   C161 2553   0.741   6.583   0.696  0.3930  0.3096 -0.2797
   33HTM   C162 2554   0.799   6.669   0.785  0.5086  0.2872 -0.3333
   33HTM   C163 2555   0.742   6.663   0.917  0.5714  0.3706 -0.3022
   33HTM   C164 2556   0.640   6.573   0.929  0.5038  0.4568 -0.2249
   33HTM    S17 2557   0.609   6.488   0.773  0.3543  0.4388 -0.1851
   34TAL   C165 2558   0.808   6.756   1.018 -0.2385  0.1216 -0.0894
   34TAL   C166 2559   0.823   6.732   1.164 -0.8041  0.3161 -0.2825
   34TAL   C167 2560   0.708   6.772   1.259  0.4964  0.8149 -0.3489
   34TAL   C168 2561   0.660   6.917   1.283 -0.3351 -0.3720 -0.4346
   34TAL   C169 2562   0.526   6.931   1.343 -0.9735  0.3743  0.6731
   34TAL   C170 2563   0.468   7.075   1.354  0.2720 -1.2444 -0.1229
   35HTM   C171 2564   0.535   6.564   1.033 -0.5657 -0.0275 -0.3838
   35HTM   C172 2565   0.433   6.649   1.060 -1.0182 -0.4860 -0.6199
   35HTM   C173 2566   0.345   6.602   1.165 -0.5551 -0.4925 -0.2289
   35HTM   C174 2567   0.381   6.482   1.217  0.2505 -0.0388  0.3051
   35HTM    S18 2568   0.530   6.417   1.138  0.4886  0.4353  0.3562
   36TAL   C175 2569   0.225   6.684   1.202 -0.5357  0.2827  1.0276
   36TAL   C176 2570   0.118   6.694   1.096 -0.3177 -0.1617 -0.7901
   36TAL   C177 2571   0.016   6.798   1.129  0.5816 -1.0937  0.2083
   36TAL   C178 2572   0.069   6.950   1.141  0.4674  0.0741  0.2500
   36TAL   C179 2573  -0.008   7.036   1.238  0.2923 -1.1062 -0.4928
   36TAL   C180 2574  -0.020   7.182   1.191  0.0560 -0.2471  0.1121
   37HTM   C181 2575   0.327   6.407   1.326  0.0284  0.0531 -0.0034
   37HTM   C182 2576   0.231   6.436   1.418 -0.1096 -0.0613 -0.1098
   37HTM   C183 2577   0.207   6.331   1.513 -0.5162 -0.3295 -0.4982
   37HTM   C184 2578   0.286   6.221   1.494 -0.6883 -0.4195 -0.6879
   37HTM    S19 2579   0.396   6.242   1.352 -0.3475 -0.1709 -0.3884
   38TAL   C185 2580   0.098   6.347   1.618  0.3974  0.0899 -0.8050
   38TAL   C186 2581  -0.042   6.393   1.559  0.4079 -0.0869 -0.1544
   38TAL   C187 2582  -0.100   6.325   1.441 -0.1094  0.1095  0.6073
   38TAL   C188 2583  -0.244   6.336   1.406  0.1819  1.0936 -0.6494
   38TAL   C189 2584  -0.290   6.457   1.335 -0.3077 -0.5343 -0.3797
   38TAL   C190 2585  -0.316   6.597   1.399 -0.1002 -0.0046  0.3834
   39HTM   C191 2586   0.295   6.097   1.561  0.2637  0.1877 -0.1741
   39HTM   C192 2587   0.242   6.064   1.682  0.5999  0.4661  0.0551
   39HTM   C193 2588   0.267   5.928   1.721  0.5999  0.5192  0.2407
   39HTM   C194 2589   0.340   5.857   1.630  0.2636  0.2812  0.1531
   39HTM    S20 2590   0.382   5.958   1.486 -0.0818 -0.0308 -0.1733
   40TAL   C195 2591   0.197   5.862   1.841  0.2310 -0.8823 -0.5505
   40TAL   C196 2592   0.236   5.909   1.983  0.2885  0.3390  0.1607
   40TAL   C197 2593   0.154   5.861   2.099  0.0003  0.2584  0.9961
   40TAL   C198 2594   0.152   5.948   2.230 -0.1523  0.2138  0.0749
   40TAL   C199 2595   0.036   5.900   2.309  1.1098  0.2627 -0.4687
   40TAL   C200 2596   0.022   5.944   2.451 -0.0725 -0.6954  0.8111
   41HTM   C201 2597   0.387   5.723   1.656  0.0206  0.1006  0.5941
   41HTM   C202 2598   0.519   5.693   1.670 -0.0202  0.1401  1.1087
   41HTM   C203 2599   0.544   5.554   1.699 -0.0870  0.1286  1.1115
   41HTM   C204 2600   0.430   5.479   1.707 -0.0972  0.0805  0.5991
   41HTM    S21 2601   0.282   5.578   1.679 -0.0225  0.0456  0.0691
   42TAL   C205 2602   0.693   5.515   1.695  0.1534 -0.4898 -0.0475
   42TAL   C206 2603   0.782   5.610   1.772  0.7970  0.0742  0.2866
   42TAL   C207 2604   0.862   5.550   1.890 -0.9991 -0.5998 -0.3904
   42TAL   C208 2605   0.808   5.550   2.035  0.6000 -0.6876 -0.0923
   42TAL   C209 2606   0.921   5.584   2.145  0.1237  0.6968 -0.2588
   42TAL   C210 2607   0.891   5.555   2.293  1.2853 -0.3077  0.3411
   43HTM   C211 2608   0.405   5.339   1.740  0.2470  0.1628 -0.0455
   43HTM   C212 2609   0.290   5.265   1.738  0.1340  0.3371  0.0298
   43HTM   C213 2610   0.309   5.126   1.770 -0.0806  0.3408  0.1797
   43HTM   C214 2611   0.439   5.093   1.796 -0.1312  0.1692  0.2187
   43HTM    S22 2612   0.548   5.237   1.782  0.0899 -0.0117  0.0680
   44TAL   C215 2613   0.184   5.041   1.764 -0.4819  0.2904  0.2903
   44TAL   C216 2614   0.131   4.982   1.893  0.7751 -0.7455 -0.2439
   44TAL   C217 2615   0.229   4.952   2.018 -0.4981 -0.3260  0.7302
   44TAL   C218 2616   0.159   4.889   2.143 -1.0672  0.8917  0.7174
   44TAL   C219 2617   0.234   4.840   2.269 -0.0908  0.0001 -0.3317
   44TAL   C220 2618   0.326   4.721   2.230 -0.0262 -1.2181 -0.5955
   45HTM   C221 2619   0.505   4.966   1.827 -0.4901 -0.2230  0.1580
   45HTM   C222 2620   0.567   4.922   1.940 -0.2417 -0.0604  0.0879
   45HTM   C223 2621   0.600   4.782   1.938  0.3376  0.0746 -0.0422
   45HTM   C224 2622   0.563   4.719   1.822  0.5309  0.0146 -0.0713
   45HTM    S23 2623   0.484   4.833   1.707 -0.0078 -0.2183  0.0644
   46TAL   C225 2624   0.653   4.706   2.059 -0.4266  0.0534  0.1307
   46TAL   C226 2625   0.752   4.776   2.151  0.4126 -0.1352 -0.0780
   46TAL   C227 2626   0.738   4.720   2.287 -1.0803 -0.8728  0.4012
   46TAL   C228 2627   0.783   4.835   2.381 -0.5660  1.4517  0.2637
   46TAL   C229 2628   0.785   4.793   2.523 -0.0325 -0.8163 -0.0207
   46TAL   C230 2629   0.841   4.896   2.633  0.5617  0.0323 -0.7323
   47HTM   C231 2630   0.587   4.580   1.770 -0.3043  0.0128 -0.2017
   47HTM   C232 2631   0.511   4.523   1.672 -0.3889 -0.4357  0.1204
   47HTM   C233 2632   0.576   4.412   1.606 -0.3414 -0.5704  0.3867
   47HTM   C234 2633   0.701   4.386   1.653 -0.2206 -0.2245  0.2677
   47HTM    S24 2634   0.747   4.499   1.786 -0.1570  0.3022 -0.1935
   48TAL   C235 2635   0.513   4.326   1.496  0.4277 -0.7054 -0.5321
   48TAL   C236 2636   0.381   4.391   1.442  0.2178 -0.3477 -0.5916
   48TAL   C237 2637   0.310   4.299   1.353  0.4115  0.5144 -0.0855
   48TAL   C238 2638   0.169   4.353   1.313 -0.7409  0.4427  0.4324
   48TAL   C239 2639   0.087   4.246   1.247  0.0123 -0.0309 -1.1068
   48TAL   C240 2640  -0.061   4.257   1.235  0.3944  0.5135 -0.4605
    1HTM     C1 2641   6.130   8.134   5.792 -0.0930  0.2367 -0.6674
    1HTM     C2 2642   6.112   8.120   5.926  0.5202  0.3679 -0.5676
    1HTM     C3 2643   5.974   8.114   5.966  0.6977  0.4702  0.0771
    1HTM     C4 2644   5.886   8.125   5.862  0.2195  0.4176  0.4692
    1HTM     S1 2645   5.972   8.142   5.705 -0.4972  0.2326  0.0510
    2TAL     C5 2646   5.920   8.100   6.112 -0.9617 -1.2754  0.2892
    2TAL     C6 2647   6.016   8.098   6.232  0.2447  0.4301 -0.0113
    2TAL     C7 2648   6.129   7.996   6.233 -0.0313  0.2766  0.2249
    2TAL     C8 2649   6.090   7.855   6.236  0.0678  1.5314  0.0491
    2TAL     C9 2650   6.028   7.803   6.364 -1.0043 -0.0231 -0.1501
    2TAL    C10 2651   5.954   7.682   6.328 -0.5426  0.8306 -0.2777
    3HTM    C11 2652   5.739   8.115   5.858  0.2297  0.0759  0.3218
    3HTM    C12 2653   5.668   8.196   5.774  0.3726  0.3166  0.4293
    3HTM    C13 2654   5.526   8.175   5.780  0.3507  0.4005  0.2339
    3HTM    C14 2655   5.488   8.078   5.869  0.1912  0.2232 -0.0226
    3HTM     S2 2656   5.631   8.006   5.952  0.0551 -0.0654 -0.0374
    4TAL    C15 2657   5.418   8.258   5.708 -0.2420  0.0236  0.6844
    4TAL    C16 2658   5.434   8.409   5.709 -0.8603 -0.6031  1.3444
    4TAL    C17 2659   5.297   8.485   5.731  1.1961 -0.5616 -0.1319
    4TAL    C18 2660   5.190   8.461   5.626 -0.8030 -0.2672  0.2547
    4TAL    C19 2661   5.075   8.549   5.617 -0.2822 -1.0342  0.4891
    4TAL    C20 2662   4.975   8.479   5.533 -0.7854  0.3349  0.0368
    5HTM    C21 2663   5.355   8.013   5.886 -0.4619 -0.2907 -0.2084
    5HTM    C22 2664   5.324   7.883   5.859 -0.6552 -0.2301 -0.2805
    5HTM    C23 2665   5.188   7.847   5.892 -0.6106 -0.1333  0.0124
    5HTM    C24 2666   5.115   7.951   5.944 -0.3835 -0.1200  0.3079
    5HTM     S3 2667   5.214   8.101   5.955 -0.2066 -0.2296  0.2384
    6TAL    C25 2668   5.123   7.712   5.879 -0.8137  0.1379  0.9755
    6TAL    C26 2669   5.207   7.589   5.925  0.0651  0.4415 -0.2886
    6TAL    C27 2670   5.143   7.508   6.038 -0.7032 -1.1520  0.5553
    6TAL    C28 2671   5.131   7.361   5.998 -0.7618 -0.4913 -1.0190
    6TAL    C29 2672   4.990   7.326   5.947 -0.7496 -0.5818 -0.8069
    6TAL    C30 2673   4.937   7.191   5.978  0.7897 -0.3932  0.2462
    7HTM    C31 2674   4.974   7.977   5.974  0.3283 -0.0027  0.0571
    7HTM    C32 2675   4.920   8.092   6.023  0.2671  0.0017 -0.0206
    7HTM    C33 2676   4.776   8.095   6.019  0.2716  0.0174 -0.2376
    7HTM    C34 2677   4.720   7.981   5.968  0.3361  0.0247 -0.3253
    7HTM     S4 2678   4.846   7.862   5.920  0.3968  0.0128 -0.1393
    8TAL    C35 2679   4.704   8.218   6.080  0.2192  1.0141 -0.5993
    8TAL    C36 2680   4.691   8.329   5.979  0.5961  0.1684 -1.5779
    8TAL    C37 2681   4.803   8.411   5.940  0.3438 -0.6065  0.0743
    8TAL    C38 2682   4.848   8.499   6.050 -0.6307 -0.5095 -0.4414
    8TAL    C39 2683   4.765   8.624   6.074  0.2221 -0.3685  0.1190
    8TAL    C40 2684   4.821   8.723   6.182 -0.2670  0.2967 -0.6458
    9HTM    C41 2685   4.577   7.931   5.959 -0.3290  0.0813  0.2976
    9HTM    C42 2686   4.523   7.867   5.852 -0.4776  0.4154  0.1700
    9HTM    C43 2687   4.383   7.837   5.866 -0.4940  0.5084  0.2046
    9HTM    C44 2688   4.330   7.878   5.985 -0.3582  0.2452  0.3586
    9HTM     S5 2689   4.454   7.958   6.088 -0.1977 -0.1435  0.4726
   10TAL    C45 2690   4.308   7.762   5.753  0.4327  0.6513 -0.6129
   10TAL    C46 2691   4.345   7.777   5.604 -1.0174  1.4232 -0.2831
   10TAL    C47 2692   4.353   7.916   5.537  1.0808  0.6863  0.2034
   10TAL    C48 2693   4.351   7.902   5.384 -0.6738 -0.2797 -0.6322
   10TAL    C49 2694   4.297   8.031   5.321 -0.0207 -0.2615  0.4536
   10TAL    C50 2695   4.367   8.169   5.350  0.4801 -0.0434  0.2774
   11HTM    C51 2696   4.190   7.879   6.019  0.1393  0.1432  1.0502
   11HTM    C52 2697   4.091   7.970   5.996  0.2815  0.4046  1.4547
   11HTM    C53 2698   3.965   7.935   6.057  0.1318  0.1451  1.0022
   11HTM    C54 2699   3.968   7.817   6.125 -0.1244 -0.3144  0.2525
   11HTM     S6 2700   4.132   7.741   6.119 -0.1972 -0.4557  0.0584
   12TAL    C55 2701   3.847   8.036   6.038  0.4335 -0.3943  0.9450
   12TAL    C56 2702   3.708   8.023   6.074  0.9500 -0.8393 -0.1416
   12TAL    C57 2703   3.636   8.167   6.061  0.2180  0.7818 -1.0091
   12TAL    C58 2704   3.494   8.145   6.127 -0.4704 -1.0306  0.4689
   12TAL    C59 2705   3.373   8.120   6.026  0.1797  0.4457 -0.9997
   12TAL    C60 2706   3.230   8.126   6.090 -0.6568 -0.3510 -2.0572
   13HTM    C61 2707   3.869   7.742   6.196 -0.7510  0.1147  0.0465
   13HTM    C62 2708   3.858   7.715   6.329 -0.4739 -0.4637 -0.0368
   13HTM    C63 2709   3.732   7.657   6.366 -0.2098 -1.0808 -0.0916
   13HTM    C64 2710   3.647   7.638   6.261 -0.2856 -0.9728 -0.0498
   13HTM     S7 2711   3.720   7.694   6.106 -0.6996 -0.0766  0.0628
   14TAL    C65 2712   3.721   7.642   6.520  0.3905 -0.2894 -0.3030
   14TAL    C66 2713   3.631   7.538   6.588  0.1434  0.6489 -0.4003
   14TAL    C67 2714   3.697   7.398   6.580  0.4420  0.5242 -0.7633
   14TAL    C68 2715   3.588   7.315   6.647  0.1132  0.3657  0.8187
   14TAL    C69 2716   3.597   7.155   6.635  0.7490  0.1917  0.9482
   14TAL    C70 2717   3.465   7.084   6.600  0.0077  0.6890  0.0576
   15HTM    C71 2718   3.515   7.586   6.255 -0.3057  0.1792  0.2947
   15HTM    C72 2719   3.418   7.639   6.175 -0.4867  0.1059  0.4652
   15HTM    C73 2720   3.295   7.564   6.177 -0.4684  0.0795  0.7752
   15HTM    C74 2721   3.298   7.455   6.258 -0.2735  0.1329  0.8411
   15HTM     S8 2722   3.458   7.436   6.339 -0.0967  0.2212  0.5143
   16TAL    C75 2723   3.175   7.622   6.099 -0.4474  0.5336 -0.0193
   16TAL    C76 2724   3.076   7.701   6.190 -1.1103  0.0045  0.0231
   16TAL    C77 2725   2.950   7.737   6.118  0.9374  0.5549 -0.4670
   16TAL    C78 2726   2.975   7.840   5.999  0.2600 -0.1679 -0.7146
   16TAL    C79 2727   2.843   7.890   5.937 -0.8722 -1.2420  0.1367
   16TAL    C80 2728   2.852   8.037   5.952  0.1838 -0.7269 -0.0684
   17HTM    C81 2729   3.187   7.367   6.294  0.5991 -0.2724  0.0053
   17HTM    C82 2730   3.171   7.309   6.416  0.5537 -0.5449 -0.1278
   17HTM    C83 2731   3.045   7.241   6.432  0.3133 -0.1055 -0.1360
   17HTM    C84 2732   2.965   7.248   6.322  0.1753  0.5020 -0.0090
   17HTM     S9 2733   3.043   7.340   6.188  0.3397  0.5666  0.1318
   18TAL    C85 2734   3.011   7.195   6.571  0.3257  0.3670  0.2920
   18TAL    C86 2735   3.091   7.071   6.613  0.0885  0.8761  1.2033
   18TAL    C87 2736   3.097   7.046   6.759 -0.2212  0.3798 -0.2837
   18TAL    C88 2737   3.175   6.934   6.834 -0.4918  0.1352  0.4960
   18TAL    C89 2738   3.162   6.790   6.778 -0.1019  0.4039 -1.0331
   18TAL    C90 2739   3.179   6.761   6.624  0.3016 -0.1251 -0.2026
   19HTM    C91 2740   2.833   7.187   6.299 -0.3783  0.3428  0.2073
   19HTM    C92 2741   2.784   7.157   6.175 -0.2219  0.0687  0.2090
   19HTM    C93 2742   2.651   7.103   6.177 -0.0517 -0.3548  0.1904
   19HTM    C94 2743   2.598   7.091   6.302 -0.0784 -0.4037  0.1743
   19HTM    S10 2744   2.714   7.148   6.428 -0.3223  0.0852  0.1820
   20TAL    C95 2745   2.593   7.069   6.038 -0.0706  0.4514  0.4223
   20TAL    C96 2746   2.486   6.958   6.025 -0.1263  1.2339  0.3986
   20TAL    C97 2747   2.483   6.874   5.893  0.1316 -0.3724  0.0922
   20TAL    C98 2748   2.380   6.769   5.902 -1.1547  0.9408 -0.3691
   20TAL    C99 2749   2.342   6.721   5.766  0.2908  0.0776 -0.1683
   20TAL   C100 2750   2.248   6.594   5.773 -0.5105 -0.6323  0.7044
   21HTM   C101 2751   2.473   7.048   6.357  0.2117  0.1850 -0.3209
   21HTM   C102 2752   2.373   7.120   6.414  0.9130  0.3183  0.7998
   21HTM   C103 2753   2.273   7.040   6.480  1.1929  0.4081  1.3392
   21HTM   C104 2754   2.298   6.906   6.474  0.7050  0.3430  0.6297
   21HTM    S11 2755   2.449   6.871   6.383 -0.1525  0.1622 -0.7856
   22TAL   C105 2756   2.154   7.118   6.543  0.0327 -0.5583 -0.3557
   22TAL   C106 2757   2.163   7.259   6.610  0.1424  1.2106  0.7345
   22TAL   C107 2758   2.277   7.292   6.708  0.0813 -0.3124  0.7654
   22TAL   C108 2759   2.294   7.207   6.827 -0.6202  0.4942 -0.1936
   22TAL   C109 2760   2.441   7.195   6.886 -0.1397  0.5654 -0.6055
   22TAL   C110 2761   2.558   7.157   6.803 -0.3421  1.0741 -0.0599
   23HTM   C111 2762   2.213   6.788   6.524 -0.1332 -0.5324  1.1537
   23HTM   C112 2763   2.101   6.790   6.602  0.0416 -1.0599  1.4282
   23HTM   C113 2764   2.023   6.669   6.594  0.0668 -1.0444  0.8349
   23HTM   C114 2765   2.076   6.575   6.511 -0.0888 -0.5053  0.1079
   23HTM    S12 2766   2.229   6.633   6.435 -0.2806  0.0290  0.1165
   24TAL   C115 2767   1.896   6.662   6.693 -0.6338 -0.2156 -0.3899
   24TAL   C116 2768   1.904   6.660   6.848  0.9901 -0.0974  1.1813
   24TAL   C117 2769   1.883   6.520   6.905 -0.3137 -0.0535 -0.3753
   24TAL   C118 2770   1.876   6.519   7.052  1.1208 -0.0402 -0.0635
   24TAL   C119 2771   1.818   6.389   7.101  0.0072  0.7967  0.0182
   24TAL   C120 2772   1.809   6.357   7.246  0.6191 -0.3282  1.0483
   25HTM   C121 2773   2.021   6.445   6.477  0.5680  0.4883 -0.2001
   25HTM   C122 2774   1.911   6.384   6.528  0.6264  0.6423  0.1156
   25HTM   C123 2775   1.895   6.247   6.485  0.5100  0.5471  0.4520
   25HTM   C124 2776   1.993   6.204   6.401  0.3628  0.3208  0.3927
   25HTM    S13 2777   2.115   6.334   6.370  0.3599  0.2093 -0.0963
   26TAL   C125 2778   1.766   6.172   6.536 -0.8461  0.2403  0.5974
   26TAL   C126 2779   1.774   6.068   6.638 -0.1351  0.9245 -0.0442
   26TAL   C127 2780   1.737   6.128   6.775 -0.0611  0.1064 -0.4591
   26TAL   C128 2781   1.682   6.036   6.889  0.4576 -1.3454 -0.4695
   26TAL   C129 2782   1.537   6.012   6.887 -0.2315  1.1361 -1.0235
   26TAL   C130 2783   1.496   5.876   6.825 -0.4762  0.6820 -0.2174
   27HTM   C131 2784   2.003   6.069   6.335 -0.5339 -0.6646  0.4153
   27HTM   C132 2785   2.077   5.964   6.379 -1.0936 -1.0009  0.5753
   27HTM   C133 2786   2.084   5.855   6.285 -0.8116 -0.7392  0.2850
   27HTM   C134 2787   2.014   5.877   6.170 -0.0370 -0.2038 -0.0963
   27HTM    S14 2788   1.935   6.039   6.171  0.3999  0.0136 -0.1186
   28TAL   C135 2789   2.163   5.728   6.317  0.2971 -1.0457 -0.2913
   28TAL   C136 2790   2.294   5.748   6.384 -0.0002 -0.3316 -0.0656
   28TAL   C137 2791   2.342   5.610   6.443  0.8492 -0.6643 -0.4047
   28TAL   C138 2792   2.451   5.651   6.550  0.2704  0.9385 -0.5528
   28TAL   C139 2793   2.485   5.538   6.640 -0.8493  0.7948 -0.5417
   28TAL   C140 2794   2.559   5.428   6.578 -1.1564 -0.0104  0.4599
   29HTM   C141 2795   2.017   5.796   6.050  0.5583  0.7606 -0.1925
   29HTM   C142 2796   2.002   5.661   6.050  0.9780  0.7070  0.2912
   29HTM   C143 2797   2.019   5.601   5.921  0.5480  0.3734  0.3830
   29HTM   C144 2798   2.048   5.690   5.822 -0.1996  0.1724 -0.0306
   29HTM    S15 2799   2.054   5.859   5.886 -0.4200  0.3907 -0.5724
   30TAL   C145 2800   2.007   5.446   5.893  0.7626  1.2362 -0.5307
   30TAL   C146 2801   1.875   5.379   5.850 -0.1123 -0.0544  0.9638
   30TAL   C147 2802   1.884   5.240   5.796 -0.7378 -0.6721  0.0586
   30TAL   C148 2803   1.850   5.222   5.650 -0.0892 -0.5082 -0.1043
   30TAL   C149 2804   1.703   5.220   5.650 -0.0733  0.4617 -0.3694
   30TAL   C150 2805   1.643   5.120   5.562  0.6185  0.5198  1.4539
   31HTM   C151 2806   2.088   5.654   5.679  0.0236 -0.7853 -0.2475
   31HTM   C152 2807   2.033   5.561   5.596  0.2445 -0.8996 -0.2666
   31HTM   C153 2808   2.077   5.572   5.459  0.2689 -0.8085 -0.2513
   31HTM   C154 2809   2.166   5.674   5.439  0.0667 -0.6248 -0.2206
   31HTM    S16 2810   2.200   5.764   5.591 -0.1722 -0.5519 -0.2084
   32TAL   C155 2811   1.996   5.483   5.357 -1.4270  0.2765 -0.5865
   32TAL   C156 2812   1.910   5.553   5.271 -0.0887 -0.6949  0.4854
   32TAL   C157 2813   1.785   5.607   5.328 -0.4489  0.5951 -0.1293
   32TAL   C158 2814   1.761   5.760   5.324 -0.5528  1.2898  0.0119
   32TAL   C159 2815   1.759   5.808   5.175  0.4154  0.0063  0.2742
   32TAL   C160 2816   1.820   5.937   5.136 -1.6769 -0.0843 -0.3422
   33HTM   C161 2817   2.229   5.729   5.325  0.1679  0.5275 -0.1764
   33HTM   C162 2818   2.321   5.830   5.320  0.2796  0.4158 -0.4214
   33HTM   C163 2819   2.364   5.862   5.187  0.2096  0.1402 -0.5130
   33HTM   C164 2820   2.306   5.787   5.090  0.0446  0.0416 -0.3379
   33HTM    S17 2821   2.190   5.667   5.160 -0.0360  0.2911 -0.0414
   34TAL   C165 2822   2.442   5.986   5.162 -0.1467 -0.2696  0.8748
   34TAL   C166 2823   2.367   6.117   5.176 -0.2077 -0.8913 -0.0206
   34TAL   C167 2824   2.446   6.242   5.137 -0.3850 -0.5756 -0.5235
   34TAL   C168 2825   2.478   6.307   5.007  0.4138 -0.7129  0.8670
   34TAL   C169 2826   2.380   6.296   4.893  0.6947 -0.6237  1.0717
   34TAL   C170 2827   2.413   6.388   4.776 -0.0864  0.7090  0.5923
   35HTM   C171 2828   2.328   5.799   4.946 -0.4102  0.4129  0.0446
   35HTM   C172 2829   2.400   5.710   4.871 -0.7460  0.1998 -0.0263
   35HTM   C173 2830   2.396   5.737   4.729 -1.0808  0.0117 -0.0548
   35HTM   C174 2831   2.321   5.847   4.696 -1.0004  0.0812 -0.0057
   35HTM    S18 2832   2.250   5.925   4.843 -0.4916  0.3922  0.0809
   36TAL   C175 2833   2.477   5.659   4.626 -0.1453 -0.3987  0.6062
   36TAL   C176 2834   2.632   5.667   4.654 -0.4566  0.2282  0.6118
   36TAL   C177 2835   2.705   5.764   4.564 -0.9531 -0.0749  0.3221
   36TAL   C178 2836   2.856   5.764   4.542  0.4082  0.8210 -1.0225
   36TAL   C179 2837   2.902   5.863   4.441  0.4931 -0.3008  1.0086
   36TAL   C180 2838   3.043   5.845   4.422 -0.0451 -0.0089  0.4351
   37HTM   C181 2839   2.301   5.917   4.569  0.0825  0.4238  0.1336
   37HTM   C182 2840   2.387   5.962   4.474  0.1714  0.3618  0.1847
   37HTM   C183 2841   2.323   6.037   4.369  0.2642  0.2629  0.0575
   37HTM   C184 2842   2.188   6.049   4.384  0.2461  0.2495 -0.0907
   37HTM    S19 2843   2.131   5.966   4.533  0.1093  0.3617 -0.0807
   38TAL   C185 2844   2.392   6.081   4.244 -0.3160 -0.1418  0.3419
   38TAL   C186 2845   2.507   6.180   4.259 -1.0676 -1.0133  0.5406
   38TAL   C187 2846   2.650   6.140   4.254 -1.3491 -0.2346 -1.0741
   38TAL   C188 2847   2.754   6.232   4.331 -0.6888  0.1974  0.4237
   38TAL   C189 2848   2.910   6.218   4.301 -0.4828  0.4660  1.0822
   38TAL   C190 2849   2.987   6.332   4.360 -0.1188  0.9306  0.4542
   39HTM   C191 2850   2.079   6.120   4.304  0.2600  0.2401 -0.1676
   39HTM   C192 2851   1.945   6.105   4.322  0.3173 -0.3285 -0.1937
   39HTM   C193 2852   1.865   6.175   4.225  0.0352 -0.7262 -0.2544
   39HTM   C194 2853   1.938   6.244   4.133 -0.2373 -0.4611 -0.2743
   39HTM    S20 2854   2.115   6.226   4.162 -0.1581  0.3176 -0.2179
   40TAL   C195 2855   1.718   6.139   4.231  0.4926 -0.8257  0.2030
   40TAL   C196 2856   1.645   6.132   4.365  0.0130  0.6982 -0.5690
   40TAL   C197 2857   1.505   6.063   4.341 -0.2563 -1.1273 -0.8401
   40TAL   C198 2858   1.439   5.976   4.450  0.3205  0.0002 -0.6583
   40TAL   C199 2859   1.297   5.938   4.411 -0.5633 -0.5650  0.2331
   40TAL   C200 2860   1.216   5.831   4.462 -0.3934 -0.4762 -0.4998
   41HTM   C201 2861   1.884   6.319   4.022 -0.2387  0.0687 -0.4333
   41HTM   C202 2862   1.965   6.355   3.918 -0.2798 -0.4938 -0.6722
   41HTM   C203 2863   1.893   6.405   3.804 -0.2966 -0.4858 -0.6584
   41HTM   C204 2864   1.758   6.406   3.819 -0.2682  0.0826 -0.4088
   41HTM    S21 2865   1.710   6.344   3.982 -0.2177  0.6566 -0.1699
   42TAL   C205 2866   1.957   6.447   3.685  0.7096  0.7290 -0.2065
   42TAL   C206 2867   2.106   6.481   3.679 -1.3282 -0.2913  0.8569
   42TAL   C207 2868   2.190   6.576   3.771  1.0302  0.3017 -0.2684
   42TAL   C208 2869   2.116   6.713   3.810 -0.4389  0.4846  0.0662
   42TAL   C209 2870   2.104   6.827   3.706 -0.8154  1.0805 -0.3162
   42TAL   C210 2871   2.018   6.943   3.766  0.4565 -0.0220  0.4443
   43HTM   C211 2872   1.646   6.455   3.747  0.0540 -0.1097 -0.2403
   43HTM   C212 2873   1.533   6.506   3.803 -0.2328 -0.8347 -0.1334
   43HTM   C213 2874   1.434   6.548   3.707 -0.5793 -1.4116 -0.0414
   43HTM   C214 2875   1.472   6.529   3.578 -0.5566 -1.1264 -0.0781
   43HTM    S22 2876   1.637   6.456   3.567 -0.0923 -0.0991 -0.2328
   44TAL   C215 2877   1.316   6.630   3.759 -0.1754 -0.7765  0.7180
   44TAL   C216 2878   1.329   6.735   3.867 -0.0091  0.1737  0.3125
   44TAL   C217 2879   1.346   6.882   3.808  1.3749  0.1829  0.5170
   44TAL   C218 2880   1.368   6.986   3.910 -0.2974  0.2399  0.4858
   44TAL   C219 2881   1.371   7.140   3.873 -0.3210  0.3669  0.1210
   44TAL   C220 2882   1.283   7.203   3.771 -0.5029  0.9507  0.2695
   45HTM   C221 2883   1.392   6.578   3.471 -0.0409  0.1287  0.3754
   45HTM   C222 2884   1.372   6.701   3.416 -0.4737  0.3606  1.0351
   45HTM   C223 2885   1.248   6.712   3.343 -0.4085  0.2477  0.9073
   45HTM   C224 2886   1.175   6.597   3.342  0.0741 -0.0703  0.1503
   45HTM    S23 2887   1.256   6.465   3.434  0.4866 -0.2532 -0.4648
   46TAL   C225 2888   1.223   6.825   3.247  0.9547  0.9747  0.6310
   46TAL   C226 2889   1.191   6.967   3.288  0.0989  0.7615  0.5610
   46TAL   C227 2890   1.089   6.999   3.396 -0.3301  0.7420  0.6627
   46TAL   C228 2891   1.064   7.144   3.419  0.3427  0.0904 -1.1167
   46TAL   C229 2892   1.025   7.238   3.300  0.2319 -0.5580 -0.3221
   46TAL   C230 2893   1.037   7.379   3.338  0.7627 -0.1873 -1.4224
   47HTM   C231 2894   1.041   6.546   3.281  0.4255 -0.4122 -0.6389
   47HTM   C232 2895   0.999   6.416   3.270  0.5169 -0.3976 -1.1946
   47HTM   C233 2896   0.877   6.401   3.195  0.1595 -0.0868 -0.6871
   47HTM   C234 2897   0.825   6.518   3.149 -0.2044  0.1356  0.2556
   47HTM    S24 2898   0.927   6.659   3.198 -0.1233 -0.0315  0.5779
   48TAL   C235 2899   0.816   6.263   3.163 -0.4817 -1.0488 -0.9643
   48TAL   C236 2900   0.905   6.149   3.177 -0.1907  0.1795 -0.5312
   48TAL   C237 2901   0.880   6.076   3.311 -0.8350  0.1598  0.3710
   48TAL   C238 2902   0.971   5.960   3.355  0.0828  0.8856  0.4980
   48TAL   C239 2903   0.914   5.865   3.470  0.1733 -0.2935 -0.2178
   48TAL   C240 2904   0.814   5.755   3.436  0.7689  1.8475 -0.9394
    1HTM     C1 2905   9.468   2.471   5.312 -0.2638 -0.2642  0.1523
    1HTM     C2 2906   9.509   2.341   5.308 -0.8628 -0.4652  0.3179
    1HTM     C3 2907   9.439   2.255   5.400 -1.1518  0.0057  0.5455
    1HTM     C4 2908   9.344   2.320   5.474 -0.7725  0.5656  0.5534
    1HTM     S1 2909   9.337   2.495   5.433 -0.0161  0.5415  0.2719
    2TAL     C5 2910   9.477   2.106   5.419  0.5687 -0.2799  0.3097
    2TAL     C6 2911   9.545   2.035   5.305  0.9516 -0.2737  0.4592
    2TAL     C7 2912   9.611   1.897   5.334  0.5020 -0.4548 -0.2921
    2TAL     C8 2913   9.673   1.848   5.206 -0.0275  0.1666 -0.9474
    2TAL     C9 2914   9.590   1.808   5.081  1.4806  0.5479  0.0518
    2TAL    C10 2915   9.656   1.694   4.989  0.4471  0.1653 -1.1267
    3HTM    C11 2916   9.236   2.272   5.559 -0.0949 -0.0258 -0.0562
    3HTM    C12 2917   9.242   2.251   5.693 -0.0474  0.0027 -0.0539
    3HTM    C13 2918   9.133   2.172   5.744 -0.0021 -0.0286 -0.0063
    3HTM    C14 2919   9.044   2.132   5.649 -0.0154 -0.0810  0.0274
    3HTM     S2 2920   9.091   2.193   5.486 -0.0864 -0.0951  0.0017
    4TAL    C15 2921   9.129   2.149   5.899  1.7940 -0.1891  0.0997
    4TAL    C16 2922   9.124   2.280   5.980  0.6434 -0.7331  0.5630
    4TAL    C17 2923   9.000   2.361   6.011  0.1777 -0.0364 -0.9645
    4TAL    C18 2924   8.890   2.302   6.102 -0.9488 -0.3093  0.5189
    4TAL    C19 2925   8.758   2.378   6.120 -1.2574 -0.0246  0.1640
    4TAL    C20 2926   8.663   2.287   6.184  0.2546  0.1112  0.4337
    5HTM    C21 2927   8.921   2.064   5.675  0.8673 -0.3779  0.7939
    5HTM    C22 2928   8.908   1.928   5.679  0.9196 -0.3757  1.0371
    5HTM    C23 2929   8.782   1.884   5.735  0.6092 -0.3095  0.4133
    5HTM    C24 2930   8.700   1.986   5.773  0.3203 -0.2613 -0.3058
    5HTM     S3 2931   8.775   2.147   5.741  0.4182 -0.2959 -0.2502
    6TAL    C25 2932   8.765   1.736   5.752  0.9637  0.1287 -0.4811
    6TAL    C26 2933   8.833   1.651   5.864 -0.1665 -0.2578 -0.1322
    6TAL    C27 2934   8.843   1.690   6.012 -0.1190  0.6734 -0.4206
    6TAL    C28 2935   8.950   1.627   6.107  0.0353  0.3180 -0.1510
    6TAL    C29 2936   9.002   1.725   6.206  0.3829  1.1362 -0.6750
    6TAL    C30 2937   9.128   1.659   6.271  0.8490 -0.3855 -0.3966
    7HTM    C31 2938   8.565   1.979   5.832  0.6498 -0.0881  0.5226
    7HTM    C32 2939   8.467   2.073   5.834  1.1134  0.4069  0.8798
    7HTM    C33 2940   8.348   2.031   5.903  0.8869  0.7148  0.6820
    7HTM    C34 2941   8.356   1.905   5.955  0.2510  0.4546  0.1738
    7HTM     S4 2942   8.515   1.829   5.920 -0.1146 -0.2047 -0.0962
    8TAL    C35 2943   8.222   2.105   5.921  0.9062  0.5563 -0.4693
    8TAL    C36 2944   8.128   2.075   5.796  0.3620 -0.7237 -0.2219
    8TAL    C37 2945   8.020   2.182   5.764 -0.1048  0.2742 -0.5734
    8TAL    C38 2946   7.912   2.175   5.873  0.4270  0.8607  0.8326
    8TAL    C39 2947   7.771   2.121   5.844  0.3163 -0.7821  0.0665
    8TAL    C40 2948   7.711   2.184   5.717  0.4575  0.3116 -0.7620
    9HTM    C41 2949   8.262   1.810   6.023 -0.1246  0.3983  0.7229
    9HTM    C42 2950   8.271   1.760   6.150 -0.6287  0.6674  0.8708
    9HTM    C43 2951   8.156   1.683   6.190 -0.6313  0.4370  0.4374
    9HTM    C44 2952   8.060   1.674   6.095 -0.1292 -0.0077 -0.0415
    9HTM     S5 2953   8.106   1.763   5.945  0.3900 -0.1713  0.0189
   10TAL    C45 2954   8.152   1.620   6.334 -1.3726 -0.9723 -0.2586
   10TAL    C46 2955   8.230   1.692   6.449 -0.2338  0.3842  0.0343
   10TAL    C47 2956   8.378   1.655   6.452  0.9905  0.2819  0.4565
   10TAL    C48 2957   8.448   1.733   6.560  0.0626  0.2084 -0.5955
   10TAL    C49 2958   8.474   1.886   6.556  0.6125 -0.2537  0.0260
   10TAL    C50 2959   8.568   1.929   6.442  0.5680 -0.2591  0.9026
   11HTM    C51 2960   7.919   1.621   6.086  0.2229  0.7228 -0.0757
   11HTM    C52 2961   7.837   1.640   5.978  0.0407  0.6528  0.0490
   11HTM    C53 2962   7.706   1.583   5.994  0.1551  0.4273  0.1997
   11HTM    C54 2963   7.687   1.521   6.113  0.4245  0.3254  0.1899
   11HTM     S6 2964   7.835   1.529   6.216  0.5559  0.5077 -0.0120
   12TAL    C55 2965   7.606   1.621   5.890  0.6870 -0.0330  0.6507
   12TAL    C56 2966   7.653   1.581   5.744  0.2095  1.3799 -0.9358
   12TAL    C57 2967   7.548   1.600   5.630 -1.7961 -0.1293  0.2519
   12TAL    C58 2968   7.547   1.741   5.566 -0.9444  0.3614 -1.3527
   12TAL    C59 2969   7.455   1.780   5.460  1.1679 -0.3613  0.9007
   12TAL    C60 2970   7.494   1.911   5.390  0.0103 -0.4024  0.2974
   13HTM    C61 2971   7.572   1.441   6.157 -0.2762 -0.3189 -0.2083
   13HTM    C62 2972   7.558   1.306   6.167 -0.5469 -0.3248 -0.6521
   13HTM    C63 2973   7.422   1.263   6.187 -0.6212 -0.1143 -0.7014
   13HTM    C64 2974   7.333   1.366   6.193 -0.4069  0.0521 -0.2952
   13HTM     S7 2975   7.414   1.526   6.174 -0.0924 -0.0450  0.1851
   14TAL    C65 2976   7.380   1.112   6.199  0.7530  0.1042 -0.1038
   14TAL    C66 2977   7.443   1.000   6.121  0.2953  0.3480 -0.4161
   14TAL    C67 2978   7.439   1.019   5.964 -0.0058  0.6894  1.1391
   14TAL    C68 2979   7.549   1.073   5.874 -0.0854 -0.2354 -0.1527
   14TAL    C69 2980   7.519   1.056   5.719  0.4443 -0.0061 -0.3801
   14TAL    C70 2981   7.573   1.179   5.635  0.6655 -0.5122  0.1691
   15HTM    C71 2982   7.186   1.375   6.214 -0.8177  0.0482  0.3491
   15HTM    C72 2983   7.113   1.445   6.305 -1.2466  0.0781 -0.0141
   15HTM    C73 2984   6.974   1.461   6.268 -1.1207 -0.0951 -0.5778
   15HTM    C74 2985   6.942   1.403   6.149 -0.5959 -0.2570 -0.6447
   15HTM     S8 2986   7.085   1.322   6.074 -0.2173 -0.2029  0.0042
   16TAL    C75 2987   6.886   1.544   6.357 -0.2633  0.0214 -0.6670
   16TAL    C76 2988   6.924   1.682   6.386  0.0955 -0.5996 -0.0760
   16TAL    C77 2989   6.832   1.767   6.463  0.9623  1.3177  0.3769
   16TAL    C78 2990   6.844   1.920   6.443 -0.3634 -0.3375 -0.5832
   16TAL    C79 2991   6.979   1.984   6.494  0.8275 -0.4463  0.6701
   16TAL    C80 2992   6.955   2.139   6.469  0.6073  0.8330  0.1387
   17HTM    C81 2993   6.821   1.405   6.073  0.2758 -0.1767 -0.0950
   17HTM    C82 2994   6.743   1.502   6.018  1.1961  0.2218 -0.7557
   17HTM    C83 2995   6.637   1.451   5.935  1.1847  0.7095 -1.0471
   17HTM    C84 2996   6.634   1.315   5.926  0.2557  0.6828 -0.6086
   17HTM     S9 2997   6.767   1.240   6.023 -0.6842  0.0346  0.2125
   18TAL    C85 2998   6.535   1.544   5.873  0.7579 -1.0429  0.1227
   18TAL    C86 2999   6.404   1.577   5.954 -0.6058 -0.4590 -0.4169
   18TAL    C87 3000   6.291   1.634   5.861  0.4387 -0.4231 -1.9850
   18TAL    C88 3001   6.185   1.660   5.971  0.9769 -0.0017 -0.5259
   18TAL    C89 3002   6.039   1.687   5.941 -0.2883 -0.3688  0.4084
   18TAL    C90 3003   6.009   1.807   5.838 -0.4413  0.7742 -0.0717
   19HTM    C91 3004   6.575   1.224   5.824  0.4531  0.4787 -0.4289
   19HTM    C92 3005   6.455   1.235   5.761  0.5405  0.8339 -0.5364
   19HTM    C93 3006   6.423   1.123   5.677  0.0677  0.7019 -0.1875
   19HTM    C94 3007   6.519   1.026   5.676 -0.3801  0.2460  0.1860
   19HTM    S10 3008   6.658   1.069   5.782 -0.2383 -0.0542  0.1256
   20TAL    C95 3009   6.315   1.130   5.567  0.2775 -0.7167 -0.3352
   20TAL    C96 3010   6.319   1.250   5.459 -0.4086 -0.6661 -0.3339
   20TAL    C97 3011   6.451   1.304   5.392 -0.0089  0.3399 -0.0984
   20TAL    C98 3012   6.524   1.215   5.295  0.7902  0.1516 -0.2537
   20TAL    C99 3013   6.636   1.297   5.237 -0.2341 -0.4064 -0.9796
   20TAL   C100 3014   6.676   1.250   5.106  0.1773  0.1397  0.3962
   21HTM   C101 3015   6.511   0.894   5.618  0.0854  0.3910 -0.2119
   21HTM   C102 3016   6.463   0.777   5.669  0.0942  0.4408 -0.0902
   21HTM   C103 3017   6.477   0.665   5.581  0.2555  0.3153  0.0917
   21HTM   C104 3018   6.535   0.696   5.461  0.3695  0.1698  0.1084
   21HTM    S11 3019   6.577   0.871   5.452  0.2814  0.1801 -0.1059
   22TAL   C105 3020   6.424   0.529   5.611  0.2255  0.8893  0.0699
   22TAL   C106 3021   6.296   0.526   5.704  0.2705 -0.6766 -0.3268
   22TAL   C107 3022   6.240   0.386   5.751 -0.6735  0.8892 -0.1963
   22TAL   C108 3023   6.092   0.378   5.810 -0.6820  0.2468 -0.0807
   22TAL   C109 3024   6.068   0.480   5.924  0.0825 -0.4831  0.1121
   22TAL   C110 3025   6.052   0.401   6.050 -0.6867 -1.1002 -0.3814
   23HTM   C111 3026   6.566   0.613   5.346  0.2256  0.0737  0.1377
   23HTM   C112 3027   6.660   0.645   5.252 -0.4046  0.4691 -0.3790
   23HTM   C113 3028   6.684   0.541   5.155 -0.5658  0.6062 -0.5667
   23HTM   C114 3029   6.607   0.430   5.175 -0.0583  0.3154 -0.1931
   23HTM    S12 3030   6.499   0.448   5.318  0.6680 -0.1579  0.4294
   24TAL   C115 3031   6.796   0.555   5.061 -0.5276 -0.1392 -0.0103
   24TAL   C116 3032   6.949   0.549   5.098 -0.1827  0.9342 -0.5483
   24TAL   C117 3033   6.985   0.402   5.138 -0.5913 -0.3532  0.3665
   24TAL   C118 3034   7.132   0.361   5.186 -0.6706 -0.3676  0.7586
   24TAL   C119 3035   7.167   0.236   5.264 -0.8833  0.0107 -0.0553
   24TAL   C120 3036   7.320   0.222   5.284  0.8911 -0.0321  0.3446
   25HTM   C121 3037   6.600   0.310   5.091 -0.5047  0.4036 -0.1626
   25HTM   C122 3038   6.495   0.276   5.012 -0.4729  0.5277 -0.2577
   25HTM   C123 3039   6.508   0.147   4.949 -0.4596  0.6140 -0.4340
   25HTM   C124 3040   6.624   0.083   4.981 -0.4813  0.5556 -0.4733
   25HTM    S13 3041   6.725   0.181   5.094 -0.5205  0.3859 -0.2892
   26TAL   C125 3042   6.401   0.080   4.857 -0.5606 -0.4300  0.7810
   26TAL   C126 3043   6.263   0.093   4.923 -0.1661  0.3625  1.3696
   26TAL   C127 3044   6.187   0.005   4.835  0.0182  0.6735 -0.0873
   26TAL   C128 3045   6.036   0.030   4.847 -0.0820 -0.5051 -0.6193
   26TAL   C129 3046   5.962  -0.076   4.779  1.1615  1.1933  0.3457
   26TAL   C130 3047   5.831  -0.125   4.833 -0.2691  0.0361 -0.2310
   27HTM   C131 3048   6.684  -0.047   4.951 -0.1166 -0.3771  0.6453
   27HTM   C132 3049   6.807  -0.073   4.896  0.2673 -0.5457  1.5545
   27HTM   C133 3050   6.816  -0.202   4.833  0.4523 -0.4220  1.3266
   27HTM   C134 3051   6.700  -0.274   4.839  0.2092 -0.1590  0.2435
   27HTM    S14 3052   6.570  -0.184   4.926 -0.2757 -0.0461 -0.5789
   28TAL   C135 3053   6.948  -0.242   4.772 -0.5789 -0.1792  0.0795
   28TAL   C136 3054   6.954  -0.246   4.626  0.4995 -0.3230  0.0229
   28TAL   C137 3055   7.095  -0.248   4.573  0.4977  0.2399 -0.4544
   28TAL   C138 3056   7.176  -0.123   4.602  0.2033  0.0861  0.0235
   28TAL   C139 3057   7.143  -0.004   4.508  0.5457 -0.3729 -0.3631
   28TAL   C140 3058   7.259   0.108   4.508 -0.5213 -0.6166 -0.3499
   29HTM   C141 3059   6.661  -0.403   4.782  0.0349  0.4280 -0.2582
   29HTM   C142 3060   6.538  -0.461   4.780 -0.1812  0.8843 -0.9998
   29HTM   C143 3061   6.536  -0.592   4.720 -0.3569  0.9935 -1.2358
   29HTM   C144 3062   6.658  -0.634   4.676 -0.2747  0.6208 -0.6742
   29HTM    S15 3063   6.786  -0.510   4.707  0.0334  0.0984  0.2032
   30TAL   C145 3064   6.401  -0.680   4.722 -0.3167 -0.8153 -1.0872
   30TAL   C146 3065   6.267  -0.623   4.771 -0.4210  0.2972 -0.2252
   30TAL   C147 3066   6.239  -0.563   4.910 -0.0232  0.2336 -0.6521
   30TAL   C148 3067   6.294  -0.648   5.033 -0.3003 -0.0108 -0.2129
   30TAL   C149 3068   6.270  -0.577   5.162 -0.1518  0.2069  0.2198
   30TAL   C150 3069   6.181  -0.649   5.256 -0.2539  0.4728 -0.2175
   31HTM   C151 3070   6.703  -0.746   4.589 -0.6196 -0.3176  0.3640
   31HTM   C152 3071   6.717  -0.750   4.453 -0.8448 -0.0501  0.3326
   31HTM   C153 3072   6.764  -0.876   4.403 -0.3564  0.2346  0.0563
   31HTM   C154 3073   6.786  -0.969   4.501  0.2412  0.1836 -0.1228
   31HTM    S16 3074   6.750  -0.903   4.665  0.2332 -0.2307  0.0445
   32TAL   C155 3075   6.786  -0.891   4.258 -0.0338  0.0928  0.2869
   32TAL   C156 3076   6.922  -0.832   4.220  0.2343 -0.2211 -0.2355
   32TAL   C157 3077   6.967  -0.856   4.076  1.0184 -0.2070  0.6176
   32TAL   C158 3078   6.862  -0.799   3.981 -0.6540 -0.1477 -0.1591
   32TAL   C159 3079   6.908  -0.819   3.837 -1.0637  0.2133 -1.0589
   32TAL   C160 3080   6.812  -0.758   3.748 -0.5732 -0.8875 -0.6140
   33HTM   C161 3081   6.824  -1.110   4.507 -0.2725  0.1793 -0.4484
   33HTM   C162 3082   6.805  -1.190   4.616 -0.6368  0.2592 -0.4494
   33HTM   C163 3083   6.847  -1.326   4.597 -0.8345  0.1755 -0.3010
   33HTM   C164 3084   6.898  -1.351   4.472 -0.6206  0.0315 -0.1870
   33HTM    S17 3085   6.896  -1.202   4.370 -0.1496 -0.0093 -0.2586
   34TAL   C165 3086   6.869  -1.409   4.720  0.3679  0.3033 -0.0004
   34TAL   C166 3087   6.922  -1.554   4.718 -0.3370 -0.8968  0.0097
   34TAL   C167 3088   6.867  -1.627   4.843  1.3056 -0.1838  0.1604
   34TAL   C168 3089   6.916  -1.770   4.865  1.2072 -0.4767  1.4270
   34TAL   C169 3090   7.046  -1.795   4.949 -0.1733  0.3510 -1.2192
   34TAL   C170 3091   7.033  -1.937   4.999  0.1407  0.6704 -0.1797
   35HTM   C171 3092   6.973  -1.466   4.410  0.1880 -0.6016 -0.0064
   35HTM   C172 3093   6.931  -1.594   4.387  0.4300 -0.6130 -0.4097
   35HTM   C173 3094   7.027  -1.675   4.316  0.6158 -0.2310 -0.5982
   35HTM   C174 3095   7.142  -1.609   4.285  0.5154  0.0708 -0.3386
   35HTM    S18 3096   7.137  -1.438   4.343  0.1758 -0.1041  0.1679
   36TAL   C175 3097   6.964  -1.814   4.278 -0.2625  0.1636  0.5764
   36TAL   C176 3098   7.045  -1.945   4.335 -0.9270 -0.2551 -0.1625
   36TAL   C177 3099   7.042  -2.083   4.287  0.6859  1.4229  0.2794
   36TAL   C178 3100   7.111  -2.113   4.149 -0.1204 -0.0591  0.1781
   36TAL   C179 3101   7.088  -2.248   4.071  0.1614  0.8884 -0.3986
   36TAL   C180 3102   7.228  -2.297   4.029 -0.0221  0.2428  0.1637
   37HTM   C181 3103   7.250  -1.636   4.188  0.0195  0.2735 -0.4400
   37HTM   C182 3104   7.365  -1.563   4.174  0.0685  0.1812 -0.5211
   37HTM   C183 3105   7.454  -1.615   4.074  0.1796 -0.1743 -0.2407
   37HTM   C184 3106   7.408  -1.728   4.012  0.2155 -0.3532  0.0541
   37HTM    S19 3107   7.247  -1.777   4.076  0.1108 -0.0839  0.0001
   38TAL   C185 3108   7.574  -1.524   4.030  0.8223  0.6830  0.0063
   38TAL   C186 3109   7.542  -1.419   3.917 -1.3007  0.0967 -0.1866
   38TAL   C187 3110   7.456  -1.305   3.962 -0.6965  0.1043 -0.2819
   38TAL   C188 3111   7.426  -1.200   3.848  0.0426  0.2442  0.5504
   38TAL   C189 3112   7.531  -1.101   3.810 -0.2458  0.0645 -0.5831
   38TAL   C190 3113   7.565  -0.983   3.906  0.1073  0.4085 -0.8467
   39HTM   C191 3114   7.468  -1.806   3.908  0.1022 -0.1813 -0.1461
   39HTM   C192 3115   7.401  -1.912   3.854  0.4989 -0.4096 -0.1908
   39HTM   C193 3116   7.468  -1.971   3.741  0.7515 -0.1510 -0.1776
   39HTM   C194 3117   7.586  -1.909   3.709  0.5473  0.2745 -0.1227
   39HTM    S20 3118   7.621  -1.771   3.820  0.0162  0.3825 -0.0832
   40TAL   C195 3119   7.400  -2.091   3.680 -0.0869 -0.8690  0.1108
   40TAL   C196 3120   7.253  -2.057   3.634 -0.1628 -0.1131  0.8101
   40TAL   C197 3121   7.136  -2.163   3.627  0.6407 -0.4968  1.1223
   40TAL   C198 3122   7.177  -2.284   3.552 -1.3904  0.0233 -0.5860
   40TAL   C199 3123   7.248  -2.389   3.630  0.1763  0.1274 -0.5448
   40TAL   C200 3124   7.296  -2.512   3.544 -0.0046 -0.9025 -0.1159
   41HTM   C201 3125   7.687  -1.936   3.607  0.5790 -0.4756  0.3315
   41HTM   C202 3126   7.713  -2.056   3.548  0.8476 -0.5618  0.6216
   41HTM   C203 3127   7.811  -2.049   3.442  0.9251 -0.6222  0.6887
   41HTM   C204 3128   7.859  -1.923   3.420  0.7157 -0.5818  0.4497
   41HTM    S21 3129   7.784  -1.803   3.533  0.4019 -0.4637  0.1189
   42TAL   C205 3130   7.850  -2.179   3.376 -0.1246  0.6049 -0.1802
   42TAL   C206 3131   7.953  -2.271   3.445 -0.2184 -1.5866  0.2988
   42TAL   C207 3132   8.089  -2.209   3.423 -0.0926  0.0797 -0.9091
   42TAL   C208 3133   8.217  -2.301   3.434  0.5242  0.2758 -0.6042
   42TAL   C209 3134   8.327  -2.253   3.345  0.2383  0.4371 -0.1977
   42TAL   C210 3135   8.439  -2.347   3.394  0.3294  0.1570  0.5628
   43HTM   C211 3136   7.960  -1.864   3.337  0.1878  0.0801 -0.4036
   43HTM   C212 3137   8.004  -1.901   3.214  0.5996  0.2197 -0.3000
   43HTM   C213 3138   8.109  -1.817   3.162  0.9513  0.1361  0.2476
   43HTM   C214 3139   8.143  -1.714   3.245  0.8077 -0.0676  0.5614
   43HTM    S22 3140   8.046  -1.717   3.397  0.2123 -0.1700  0.1868
   44TAL   C215 3141   8.164  -1.875   3.035  0.1040  0.2080  0.5692
   44TAL   C216 3142   8.113  -1.859   2.881 -0.3525  1.6760 -0.4117
   44TAL   C217 3143   7.970  -1.921   2.847 -0.5796  0.4110 -0.1330
   44TAL   C218 3144   7.949  -1.976   2.708  0.3664  0.0325 -0.4827
   44TAL   C219 3145   8.004  -1.902   2.588  0.3018  0.1877  0.2999
   44TAL   C220 3146   7.882  -1.851   2.511  0.1716 -0.6846 -0.1537
   45HTM   C221 3147   8.244  -1.615   3.224 -0.0630  0.0782 -0.1402
   45HTM   C222 3148   8.310  -1.561   3.330 -0.1681  0.6301 -0.3529
   45HTM   C223 3149   8.435  -1.499   3.295 -0.3245  0.8070 -0.6076
   45HTM   C224 3150   8.465  -1.507   3.163 -0.3383  0.3899 -0.5892
   45HTM    S23 3151   8.336  -1.593   3.071 -0.1540 -0.2640 -0.2460
   46TAL   C225 3152   8.510  -1.442   3.415 -0.5338  1.5334  0.1075
   46TAL   C226 3153   8.479  -1.309   3.484 -0.6779 -0.2175  0.0320
   46TAL   C227 3154   8.584  -1.243   3.573 -0.5441 -0.6573 -0.2046
   46TAL   C228 3155   8.646  -1.297   3.700  0.0332  0.1466  0.1953
   46TAL   C229 3156   8.578  -1.380   3.814  0.6649 -0.1812  0.8185
   46TAL   C230 3157   8.506  -1.286   3.904  0.6086  0.4745  0.4003
   47HTM   C231 3158   8.577  -1.453   3.082 -0.0811  0.5815 -0.1796
   47HTM   C232 3159   8.619  -1.516   2.969 -0.4063  1.2383 -0.6760
   47HTM   C233 3160   8.752  -1.479   2.928 -0.4039  1.2398 -0.6672
   47HTM   C234 3161   8.812  -1.389   3.011 -0.0768  0.5837 -0.1640
   47HTM    S24 3162   8.704  -1.342   3.147  0.2559 -0.0920  0.3416
   48TAL   C235 3163   8.838  -1.510   2.812  0.5563  0.4886  0.1922
   48TAL   C236 3164   8.789  -1.572   2.679  0.6150 -1.1924 -0.3817
   48TAL   C237 3165   8.716  -1.462   2.596  0.7864  0.2319 -0.3446
   48TAL   C238 3166   8.799  -1.438   2.475  0.2287 -0.3560  0.6301
   48TAL   C239 3167   8.845  -1.293   2.460 -0.1561  0.2339 -0.3682
   48TAL   C240 3168   8.875  -1.249   2.324 -0.9390  0.2707  1.0718
    1HTM     C1 3169   6.833   5.018   6.625  0.0952 -0.5976 -0.0936
    1HTM     C2 3170   6.747   4.970   6.531 -0.1005 -0.5116  0.0404
    1HTM     C3 3171   6.678   4.851   6.572 -0.1262 -0.4660  0.1317
    1HTM     C4 3172   6.712   4.807   6.697  0.0498 -0.5170  0.0674
    1HTM     S1 3173   6.834   4.915   6.774  0.2632 -0.6275 -0.1150
    2TAL     C5 3174   6.587   4.794   6.473  0.3898 -0.8030  1.3431
    2TAL     C6 3175   6.660   4.710   6.370  0.6698  1.0363 -0.5671
    2TAL     C7 3176   6.593   4.622   6.263 -0.0408 -0.8544 -0.2914
    2TAL     C8 3177   6.485   4.525   6.300 -0.5117  0.9051  0.6242
    2TAL     C9 3178   6.482   4.405   6.201  0.0223 -1.1104  0.4548
    2TAL    C10 3179   6.364   4.322   6.248 -0.2999 -0.6924  0.5128
    3HTM    C11 3180   6.712   4.681   6.755 -0.3772  0.0944  0.2470
    3HTM    C12 3181   6.815   4.632   6.828 -0.6998  0.0963  0.7136
    3HTM    C13 3182   6.820   4.488   6.832 -0.5330  0.0943  0.4680
    3HTM    C14 3183   6.720   4.428   6.761 -0.0829  0.0906 -0.1857
    3HTM     S2 3184   6.611   4.549   6.684  0.1668  0.0893 -0.5448
    4TAL    C15 3185   6.924   4.416   6.908 -0.0727  1.1964  0.2464
    4TAL    C16 3186   6.894   4.385   7.046  1.4342 -0.0139  0.0424
    4TAL    C17 3187   6.984   4.275   7.101 -0.8064  0.1807  0.7562
    4TAL    C18 3188   7.116   4.345   7.154  0.3168 -0.4481 -0.2277
    4TAL    C19 3189   7.224   4.250   7.185 -0.3680 -1.5307  0.6764
    4TAL    C20 3190   7.239   4.143   7.285 -0.2001  1.0374 -0.4071
    5HTM    C21 3191   6.680   4.290   6.752 -0.3616  0.2114  0.5620
    5HTM    C22 3192   6.552   4.249   6.731 -0.4014 -0.1044  1.3658
    5HTM    C23 3193   6.539   4.107   6.712 -0.1876 -0.1514  1.5634
    5HTM    C24 3194   6.657   4.039   6.718  0.0150  0.1286  0.9103
    5HTM     S3 3195   6.796   4.151   6.749 -0.0489  0.4758 -0.0122
    6TAL    C25 3196   6.408   4.034   6.679 -0.2731 -0.5086  0.5220
    6TAL    C26 3197   6.278   4.101   6.672  0.6596  0.1129 -0.7694
    6TAL    C27 3198   6.166   4.009   6.617  0.3893  0.0629 -0.3931
    6TAL    C28 3199   6.044   4.010   6.722  0.3027 -0.5132  0.5579
    6TAL    C29 3200   5.921   3.933   6.673  0.9099 -0.6493 -0.2504
    6TAL    C30 3201   5.812   3.919   6.785 -0.3189  0.0918 -0.3126
    7HTM    C31 3202   6.700   3.902   6.688  0.3201  0.4408 -0.6403
    7HTM    C32 3203   6.819   3.881   6.625 -0.0389  0.3607 -1.3092
    7HTM    C33 3204   6.830   3.751   6.565 -0.4340  0.3262 -1.3133
    7HTM    C34 3205   6.719   3.672   6.582 -0.3761  0.3799 -0.6477
    7HTM     S4 3206   6.592   3.758   6.677  0.1861  0.4791  0.0416
    8TAL    C35 3207   6.939   3.712   6.466  0.3721  0.5887 -1.2097
    8TAL    C36 3208   6.959   3.825   6.372 -0.2235 -0.9381  0.0313
    8TAL    C37 3209   7.097   3.828   6.296 -0.2008 -0.8428 -0.3771
    8TAL    C38 3210   7.102   3.772   6.161  0.5182  0.2706  1.3391
    8TAL    C39 3211   7.061   3.884   6.060  0.8022  0.2258 -0.2155
    8TAL    C40 3212   7.037   3.843   5.918  0.5959 -0.9317  0.1503
    9HTM    C41 3213   6.686   3.545   6.522  0.4792  0.0208 -0.2810
    9HTM    C42 3214   6.675   3.426   6.588  0.4786  0.0056 -0.3089
    9HTM    C43 3215   6.628   3.318   6.504  0.0547  0.1239 -0.2277
    9HTM    C44 3216   6.603   3.356   6.375 -0.2678  0.2294 -0.1377
    9HTM     S5 3217   6.638   3.531   6.349 -0.0598  0.1870 -0.1489
   10TAL    C45 3218   6.596   3.173   6.555 -0.4463 -0.7951  0.3186
   10TAL    C46 3219   6.464   3.163   6.634 -0.4521  0.0330  0.4919
   10TAL    C47 3220   6.447   3.020   6.687  0.2023 -0.7079 -1.0261
   10TAL    C48 3221   6.306   2.982   6.748  0.2748 -0.4910 -0.0542
   10TAL    C49 3222   6.236   3.080   6.847  0.4327  0.7802  0.9409
   10TAL    C50 3223   6.330   3.129   6.964 -0.0566  0.4305 -0.2623
   11HTM    C51 3224   6.553   3.281   6.261  0.3430 -0.4664 -0.7047
   11HTM    C52 3225   6.604   3.177   6.189  0.2975 -0.0363 -1.3781
   11HTM    C53 3226   6.520   3.136   6.079 -0.0989  0.2012 -1.1672
   11HTM    C54 3227   6.405   3.209   6.068 -0.3558 -0.0480 -0.3331
   11HTM     S6 3228   6.395   3.336   6.195 -0.1151 -0.6063  0.2554
   12TAL    C55 3229   6.542   3.016   5.994  0.8423  0.0280 -0.4681
   12TAL    C56 3230   6.666   2.917   6.004  1.0898 -0.2666  0.6016
   12TAL    C57 3231   6.667   2.813   5.892  0.7618  1.4776  0.0874
   12TAL    C58 3232   6.590   2.676   5.912  0.4849 -0.2410 -0.5659
   12TAL    C59 3233   6.450   2.684   5.828  0.2978  1.2269  0.6779
   12TAL    C60 3234   6.322   2.664   5.918  0.5218  0.3785 -0.5802
   13HTM    C61 3235   6.298   3.208   5.974  0.2721 -0.3609  0.1602
   13HTM    C62 3236   6.219   3.313   5.935  0.4632 -0.0522  0.5921
   13HTM    C63 3237   6.104   3.273   5.859  0.2592  0.4563  0.6311
   13HTM    C64 3238   6.094   3.139   5.839 -0.0876  0.5352  0.2290
   13HTM     S7 3239   6.232   3.051   5.916 -0.1841 -0.0309 -0.2337
   14TAL    C65 3240   5.989   3.375   5.829 -0.2552 -0.0659 -0.8376
   14TAL    C66 3241   6.022   3.442   5.701  0.6221  0.1905 -0.1852
   14TAL    C67 3242   5.919   3.564   5.670  0.1763  0.1141  0.7681
   14TAL    C68 3243   5.869   3.670   5.773 -0.1962 -0.2079 -0.3420
   14TAL    C69 3244   5.784   3.790   5.746  0.3827 -0.0581  0.5082
   14TAL    C70 3245   5.852   3.876   5.649  0.9045  0.6200  0.5330
   15HTM    C71 3246   6.011   3.075   5.733 -0.4179  0.5341  0.1150
   15HTM    C72 3247   5.898   2.998   5.742 -0.6151  0.7948 -0.1047
   15HTM    C73 3248   5.862   2.933   5.619 -0.2913  0.5528 -0.0734
   15HTM    C74 3249   5.948   2.960   5.516  0.1528  0.1077  0.1699
   15HTM     S8 3250   6.081   3.070   5.567  0.1971 -0.0416  0.3803
   16TAL    C75 3251   5.735   2.851   5.640 -0.1795 -0.1723 -0.2943
   16TAL    C76 3252   5.677   2.763   5.538  0.4868 -0.1762 -0.4765
   16TAL    C77 3253   5.527   2.786   5.509 -0.5821 -0.1563  0.0040
   16TAL    C78 3254   5.517   2.706   5.378  0.8813  0.9328  0.3039
   16TAL    C79 3255   5.375   2.636   5.358 -0.7922 -0.6492 -0.6136
   16TAL    C80 3256   5.256   2.721   5.318 -0.4467 -0.4611 -0.0150
   17HTM    C81 3257   5.955   2.926   5.374  0.5815 -0.8962  0.5996
   17HTM    C82 3258   6.045   2.984   5.290  0.3952 -0.7145  0.5232
   17HTM    C83 3259   6.017   2.961   5.150 -0.0966 -0.1393  0.5227
   17HTM    C84 3260   5.905   2.886   5.128 -0.2852  0.1178  0.5991
   17HTM     S9 3261   5.826   2.838   5.284  0.1470 -0.3505  0.6777
   18TAL    C85 3262   6.106   3.023   5.039 -0.4748  0.4374 -0.3457
   18TAL    C86 3263   6.124   3.181   5.045 -0.9833  0.1077 -0.3747
   18TAL    C87 3264   6.015   3.280   5.014  0.0105 -0.2062  0.2461
   18TAL    C88 3265   5.956   3.269   4.871  0.3479  0.6896 -0.2797
   18TAL    C89 3266   5.841   3.370   4.854  0.9828  0.1017  0.5839
   18TAL    C90 3267   5.751   3.336   4.723 -0.3092 -0.2846  0.1999
   19HTM    C91 3268   5.840   2.831   5.007  0.0364 -0.4243 -0.0490
   19HTM    C92 3269   5.830   2.702   4.964 -0.6789 -0.3685 -0.0795
   19HTM    C93 3270   5.748   2.686   4.847 -0.8570  0.0990 -0.0235
   19HTM    C94 3271   5.694   2.802   4.801 -0.2776  0.3997  0.0495
   19HTM    S10 3272   5.745   2.943   4.902  0.5442  0.1135  0.0535
   20TAL    C95 3273   5.723   2.546   4.785 -0.5043 -0.2503 -0.7107
   20TAL    C96 3274   5.858   2.464   4.778 -0.0974  0.0653 -0.1227
   20TAL    C97 3275   5.966   2.529   4.692  0.1990  0.3072  0.3470
   20TAL    C98 3276   6.098   2.455   4.692  0.3908 -0.8533 -0.8625
   20TAL    C99 3277   6.233   2.533   4.670 -0.1168  0.2364 -0.6363
   20TAL   C100 3278   6.263   2.533   4.521 -1.0436 -0.2507 -0.3830
   21HTM   C101 3279   5.596   2.831   4.690 -0.3565  0.5816  0.1635
   21HTM   C102 3280   5.538   2.951   4.660 -1.1611  0.3287  0.6349
   21HTM   C103 3281   5.451   2.946   4.545 -1.2593  0.1671  0.7150
   21HTM   C104 3282   5.443   2.823   4.488 -0.5296  0.2968  0.3045
   21HTM    S11 3283   5.545   2.702   4.575  0.3451  0.6358 -0.2190
   22TAL   C105 3284   5.381   3.084   4.506  0.1187  1.1205 -0.4379
   22TAL   C106 3285   5.274   3.086   4.398 -0.2667 -0.4264 -0.4151
   22TAL   C107 3286   5.227   3.224   4.375 -0.6350  0.1862 -0.2703
   22TAL   C108 3287   5.135   3.263   4.264 -0.3486  0.2474  0.9796
   22TAL   C109 3288   5.176   3.225   4.119  0.1618  0.2016  0.4936
   22TAL   C110 3289   5.054   3.233   4.031  0.4168 -0.2953  0.5210
   23HTM   C111 3290   5.399   2.779   4.359  0.1379 -0.7528 -0.1960
   23HTM   C112 3291   5.271   2.745   4.329  0.0182 -0.1010 -0.4345
   23HTM   C113 3292   5.248   2.725   4.188  0.0335  0.5662 -0.5423
   23HTM   C114 3293   5.359   2.742   4.112  0.1644  0.4233 -0.3859
   23HTM    S12 3294   5.502   2.786   4.212  0.2802 -0.5730 -0.0881
   24TAL   C115 3295   5.111   2.667   4.138  0.6770 -0.2914 -0.2309
   24TAL   C116 3296   5.070   2.526   4.157 -0.7265  0.3632  0.2248
   24TAL   C117 3297   5.067   2.465   4.298 -0.7806 -0.6080  0.3395
   24TAL   C118 3298   5.016   2.309   4.306 -0.0350  0.2425  0.8917
   24TAL   C119 3299   5.085   2.186   4.227  0.2352 -0.1236 -0.7137
   24TAL   C120 3300   5.035   2.057   4.283  0.1748  0.4255 -0.6568
   25HTM   C121 3301   5.377   2.722   3.967 -0.0492 -0.4004  0.0546
   25HTM   C122 3302   5.499   2.728   3.908  0.0842 -1.0670  0.2444
   25HTM   C123 3303   5.496   2.703   3.766  0.1781 -1.1370  0.2549
   25HTM   C124 3304   5.371   2.677   3.718  0.1164 -0.5238  0.0732
   25HTM    S13 3305   5.247   2.683   3.848 -0.0666  0.1952 -0.1270
   26TAL   C125 3306   5.631   2.703   3.699 -0.5046 -0.7762  0.0544
   26TAL   C126 3307   5.681   2.790   3.581  1.2273 -0.3501  0.9976
   26TAL   C127 3308   5.655   2.942   3.589 -0.1924  0.3531  0.4587
   26TAL   C128 3309   5.511   2.985   3.588  0.0748  0.2415 -0.8141
   26TAL   C129 3310   5.488   3.134   3.628 -0.1954  0.2353  0.6568
   26TAL   C130 3311   5.389   3.164   3.740 -0.1697 -0.2845 -0.1812
   27HTM   C131 3312   5.318   2.663   3.590  1.0935  0.1555  0.2741
   27HTM   C132 3313   5.246   2.759   3.525  2.0392  0.6416 -0.0929
   27HTM   C133 3314   5.193   2.716   3.398  2.1733  0.9059 -0.2391
   27HTM   C134 3315   5.225   2.588   3.366  1.3301  0.6212  0.0165
   27HTM    S14 3316   5.324   2.510   3.495  0.2930 -0.0076  0.4651
   28TAL   C135 3317   5.093   2.803   3.320  0.4626  1.5239  0.5292
   28TAL   C136 3318   4.983   2.884   3.398 -0.4804  0.5861  0.6795
   28TAL   C137 3319   4.872   2.788   3.447 -0.3569  0.0898  0.0082
   28TAL   C138 3320   4.830   2.785   3.596 -0.4999 -0.6343  0.9326
   28TAL   C139 3321   4.783   2.923   3.673 -0.2938  0.2705 -0.1616
   28TAL   C140 3322   4.888   2.986   3.767  0.2104 -0.2968  0.7594
   29HTM   C141 3323   5.203   2.504   3.246 -0.2787  0.4183  0.0290
   29HTM   C142 3324   5.310   2.449   3.180  0.0359  1.4718 -0.3811
   29HTM   C143 3325   5.276   2.393   3.052  0.2177  1.6299 -0.4994
   29HTM   C144 3326   5.144   2.404   3.020  0.0418  0.6970 -0.1796
   29HTM    S15 3327   5.051   2.488   3.150 -0.3702 -0.4624  0.2995
   30TAL   C145 3328   5.394   2.336   2.968  0.0690 -0.8678  0.9749
   30TAL   C146 3329   5.436   2.184   2.990 -0.3118  0.1381  0.6910
   30TAL   C147 3330   5.454   2.134   3.135  0.4646 -0.3688 -0.9811
   30TAL   C148 3331   5.460   1.983   3.130 -0.0078  1.1672 -0.2614
   30TAL   C149 3332   5.465   1.916   3.268 -0.4089  0.4428 -0.9140
   30TAL   C150 3333   5.567   1.809   3.290 -0.6082  0.6184  0.0795
   31HTM   C151 3334   5.072   2.364   2.902 -0.0705 -0.1110  0.0412
   31HTM   C152 3335   5.063   2.239   2.848 -0.1702  0.0106 -0.2288
   31HTM   C153 3336   4.972   2.231   2.737  0.0341  0.3832 -0.4296
   31HTM   C154 3337   4.912   2.349   2.706  0.2895  0.5459 -0.3127
   31HTM    S16 3338   4.966   2.482   2.815  0.2918  0.2385  0.0630
   32TAL   C155 3339   4.944   2.111   2.644  0.5392 -0.1314 -0.3903
   32TAL   C156 3340   4.836   2.013   2.690  0.9499 -0.3151  0.7397
   32TAL   C157 3341   4.816   1.893   2.609  0.4382 -0.0205 -0.1148
   32TAL   C158 3342   4.930   1.803   2.563  0.1148  0.5534  0.3598
   32TAL   C159 3343   4.900   1.670   2.490  0.3621  0.7002  0.1330
   32TAL   C160 3344   4.817   1.581   2.579 -0.6791  1.0303 -0.4471
   33HTM   C161 3345   4.794   2.384   2.620 -0.5698 -0.5364  0.0891
   33HTM   C162 3346   4.664   2.409   2.654 -0.5840 -0.4119 -0.0539
   33HTM   C163 3347   4.575   2.417   2.541 -0.4995 -0.6042 -0.1348
   33HTM   C164 3348   4.637   2.398   2.421 -0.4207 -0.8751 -0.0536
   33HTM    S17 3349   4.814   2.369   2.442 -0.4474 -0.9088  0.1328
   34TAL   C165 3350   4.428   2.437   2.572 -0.9613  1.3466  0.7243
   34TAL   C166 3351   4.353   2.356   2.683 -0.3964  0.0995  0.8508
   34TAL   C167 3352   4.367   2.207   2.686  0.8468  0.0989  1.0474
   34TAL   C168 3353   4.325   2.125   2.557 -1.4095 -1.0425 -0.6780
   34TAL   C169 3354   4.452   2.049   2.503  0.9721 -0.9527  0.4406
   34TAL   C170 3355   4.424   1.979   2.363  0.5473 -0.3591 -1.2371
   35HTM   C171 3356   4.584   2.388   2.283  0.7050 -0.7285 -0.9918
   35HTM   C172 3357   4.634   2.462   2.180  0.4987 -0.7982 -1.1430
   35HTM   C173 3358   4.569   2.436   2.054 -0.1925 -0.4082 -0.8760
   35HTM   C174 3359   4.469   2.344   2.061 -0.5133 -0.0412 -0.5213
   35HTM    S18 3360   4.449   2.281   2.229  0.0371 -0.1606 -0.4967
   36TAL   C175 3361   4.641   2.484   1.915  0.6701  0.6455 -0.7041
   36TAL   C176 3362   4.751   2.592   1.917  0.5653  0.0076 -0.8674
   36TAL   C177 3363   4.809   2.604   1.777  0.9820 -0.5907 -0.4839
   36TAL   C178 3364   4.905   2.724   1.773  0.2721  0.8949 -0.8593
   36TAL   C179 3365   4.947   2.750   1.627 -0.9676 -0.1915 -1.2814
   36TAL   C180 3366   5.056   2.859   1.598  0.6636  0.7496  0.1383
   37HTM   C181 3367   4.379   2.285   1.969  0.0429 -0.1212  0.6799
   37HTM   C182 3368   4.354   2.332   1.843 -0.2258  0.4457  0.9363
   37HTM   C183 3369   4.260   2.252   1.769 -0.4776  0.8476  0.8161
   37HTM   C184 3370   4.213   2.144   1.838 -0.4011  0.5871  0.4682
   37HTM    S19 3371   4.284   2.135   2.003 -0.0017 -0.1921  0.2637
   38TAL   C185 3372   4.216   2.314   1.641 -0.1309  0.0995 -0.7740
   38TAL   C186 3373   4.154   2.241   1.529 -0.6163  0.8997  0.5226
   38TAL   C187 3374   4.086   2.335   1.424 -0.6883  0.5000 -0.2974
   38TAL   C188 3375   3.998   2.251   1.333 -0.8707  0.6106  0.0727
   38TAL   C189 3376   3.936   2.344   1.225 -0.4540  0.5192 -0.6273
   38TAL   C190 3377   3.858   2.266   1.123 -0.2203 -0.1759 -0.3046
   39HTM   C191 3378   4.142   2.027   1.798  0.3354  0.2110  0.0708
   39HTM   C192 3379   4.035   1.972   1.861  0.7725  0.0122  0.6530
   39HTM   C193 3380   3.985   1.852   1.798  0.8216 -0.2377  1.0819
   39HTM   C194 3381   4.054   1.816   1.687  0.4219 -0.2295  0.8266
   39HTM    S20 3382   4.189   1.931   1.652 -0.0513  0.0970  0.0186
   40TAL   C195 3383   3.864   1.770   1.842  0.1149 -0.6662  0.9132
   40TAL   C196 3384   3.729   1.822   1.827  0.0861  0.7747 -0.0503
   40TAL   C197 3385   3.656   1.861   1.707  0.7452 -0.0638  0.4434
   40TAL   C198 3386   3.551   1.966   1.724 -0.2904  0.5454  0.0165
   40TAL   C199 3387   3.448   1.966   1.619 -0.3830  0.9329  0.4772
   40TAL   C200 3388   3.387   2.107   1.609 -1.0934  0.0109 -0.5134
   41HTM   C201 3389   4.045   1.703   1.590 -0.0237 -0.2541 -0.0823
   41HTM   C202 3390   4.047   1.708   1.454 -0.4312 -0.3051 -0.0905
   41HTM   C203 3391   4.028   1.579   1.392 -0.4965 -0.3469  0.0142
   41HTM   C204 3392   4.012   1.477   1.480 -0.1385 -0.3278  0.1024
   41HTM    S21 3393   4.020   1.535   1.651  0.3121 -0.2550  0.0596
   42TAL   C205 3394   4.037   1.584   1.246  0.0701 -0.1439 -0.6741
   42TAL   C206 3395   4.083   1.465   1.163  0.1253 -0.7210  0.2153
   42TAL   C207 3396   4.078   1.462   1.007 -0.9512  0.2162 -1.1598
   42TAL   C208 3397   3.973   1.561   0.957  1.3443  0.1880  0.4616
   42TAL   C209 3398   3.924   1.533   0.809  0.3385 -0.9238  1.0367
   42TAL   C210 3399   3.798   1.444   0.815 -0.4815  0.0017 -0.5075
   43HTM   C211 3400   4.018   1.341   1.445  0.2916  0.2289 -0.2387
   43HTM   C212 3401   3.918   1.254   1.411  0.0930  0.6509 -0.7560
   43HTM   C213 3402   3.965   1.123   1.375 -0.2531  0.5456 -0.8278
   43HTM   C214 3403   4.100   1.109   1.381 -0.3183  0.0434 -0.3651
   43HTM    S22 3404   4.180   1.262   1.434  0.0553 -0.3385  0.2014
   44TAL   C215 3405   3.862   1.029   1.322 -0.7253 -0.4185  0.4224
   44TAL   C216 3406   3.711   1.056   1.281 -1.2185  0.3264  0.3909
   44TAL   C217 3407   3.687   1.167   1.180 -0.2112  0.8695 -0.7204
   44TAL   C218 3408   3.715   1.109   1.038 -0.2720 -0.6243 -0.0763
   44TAL   C219 3409   3.607   1.086   0.936  0.6497  0.6256  0.4596
   44TAL   C220 3410   3.658   1.060   0.792 -0.4037 -0.5459 -0.0445
   45HTM   C221 3411   4.182   0.993   1.382 -0.6652 -1.0233 -0.2684
   45HTM   C222 3412   4.243   0.936   1.275 -1.2261 -1.4729 -0.3624
   45HTM   C223 3413   4.311   0.812   1.305 -0.6610 -1.1023 -0.0754
   45HTM   C224 3414   4.300   0.775   1.436  0.3310 -0.3702  0.2373
   45HTM    S23 3415   4.204   0.894   1.531  0.6303 -0.0898  0.1934
   46TAL   C225 3416   4.400   0.770   1.190 -0.1158 -0.3302  0.0049
   46TAL   C226 3417   4.359   0.722   1.048  0.5925 -0.8992  0.9490
   46TAL   C227 3418   4.457   0.694   0.932  0.0685  0.3436  0.7461
   46TAL   C228 3419   4.398   0.606   0.816  0.4884  0.3028 -0.5894
   46TAL   C229 3420   4.384   0.653   0.673  0.0935 -0.4439 -0.1054
   46TAL   C230 3421   4.321   0.535   0.602  0.1852 -0.3168  0.1454
   47HTM   C231 3422   4.372   0.673   1.505 -0.1151 -0.0514 -0.2308
   47HTM   C232 3423   4.353   0.642   1.636 -0.0052  0.3456 -0.1208
   47HTM   C233 3424   4.436   0.534   1.683  0.0645  0.5145  0.1488
   47HTM   C234 3425   4.518   0.482   1.587  0.0080  0.2462  0.2443
   47HTM    S24 3426   4.497   0.566   1.429 -0.1389 -0.2443 -0.0007
   48TAL   C235 3427   4.439   0.491   1.826 -0.1528  0.1703  0.2334
   48TAL   C236 3428   4.478   0.349   1.865  0.1944 -0.3365 -0.7774
   48TAL   C237 3429   4.402   0.232   1.804  0.5498  0.9833  0.4207
   48TAL   C238 3430   4.460   0.093   1.863  0.7593 -0.9714  0.9007
   48TAL   C239 3431   4.366  -0.025   1.837  1.4760  0.2755 -0.4655
   48TAL   C240 3432   4.433  -0.159   1.883  0.2620 -0.3309 -0.2134
    1HTM     C1 3433   0.668   0.532   9.454 -0.0142 -0.1466  0.2891
    1HTM     C2 3434   0.588   0.612   9.530  0.0460  0.0187  0.1810
    1HTM     C3 3435   0.461   0.552   9.564 -0.0980  0.2550  0.0620
    1HTM     C4 3436   0.444   0.426   9.512 -0.2679  0.2700  0.0798
    1HTM     S1 3437   0.588   0.374   9.418 -0.2593 -0.0155  0.2493
    2TAL     C5 3438   0.359   0.621   9.648 -0.6470 -0.1770  0.4639
    2TAL     C6 3439   0.339   0.768   9.644 -0.8851  0.5630 -0.1086
    2TAL     C7 3440   0.248   0.820   9.534  0.3289  0.9301 -0.1659
    2TAL     C8 3441   0.235   0.970   9.571  1.2733 -0.3535  1.4187
    2TAL     C9 3442   0.106   1.034   9.518 -0.0543 -0.5572  0.2137
    2TAL    C10 3443   0.051   1.143   9.610 -0.3097 -0.9871  0.8910
    3HTM    C11 3444   0.330   0.334   9.524 -0.1008  0.0112 -0.2678
    3HTM    C12 3445   0.328   0.205   9.568 -0.0879 -0.0727 -0.5138
    3HTM    C13 3446   0.198   0.144   9.561 -0.0491 -0.1303 -0.7906
    3HTM    C14 3447   0.101   0.226   9.513 -0.0324 -0.0904 -0.7558
    3HTM     S2 3448   0.167   0.389   9.472 -0.0647  0.0241 -0.3673
    4TAL    C15 3449   0.205   0.002   9.623 -0.3456  0.3374 -0.5853
    4TAL    C16 3450   0.304  -0.104   9.575  0.5644 -0.3033 -1.0902
    4TAL    C17 3451   0.280  -0.224   9.668 -0.0438 -0.5783  0.2502
    4TAL    C18 3452   0.384  -0.255   9.765 -0.5275 -0.0257 -0.0841
    4TAL    C19 3453   0.355  -0.382   9.850  0.4988 -0.9200 -0.2366
    4TAL    C20 3454   0.345  -0.509   9.785 -0.1056  0.2034 -0.3128
    5HTM    C21 3455  -0.038   0.211   9.492  0.7159  0.2018  0.4612
    5HTM    C22 3456  -0.104   0.143   9.394  1.2105 -0.8544  0.8433
    5HTM    C23 3457  -0.243   0.119   9.423  1.3676 -1.7015  0.9589
    5HTM    C24 3458  -0.283   0.170   9.543  0.9926 -1.2913  0.6649
    5HTM     S3 3459  -0.148   0.252   9.629  0.4074  0.2085  0.2158
    6TAL    C25 3460  -0.341   0.048   9.325  0.8028  0.1754  0.4405
    6TAL    C26 3461  -0.271  -0.064   9.234  0.3582 -0.3971  0.0478
    6TAL    C27 3462  -0.165  -0.159   9.274  0.2946 -0.1553 -0.4273
    6TAL    C28 3463  -0.166  -0.239   9.416  0.3141 -0.0055  0.4894
    6TAL    C29 3464  -0.046  -0.325   9.435  0.5512 -0.3758 -0.2226
    6TAL    C30 3465  -0.055  -0.393   9.572 -0.1106  0.0098  0.1680
    7HTM    C31 3466  -0.410   0.180   9.606 -0.1467 -0.0865 -0.2582
    7HTM    C32 3467  -0.509   0.086   9.615 -0.9215  0.5904 -1.2207
    7HTM    C33 3468  -0.620   0.127   9.698 -1.0781  1.0419 -1.6453
    7HTM    C34 3469  -0.606   0.252   9.751 -0.4224  0.7092 -1.0066
    7HTM     S4 3470  -0.450   0.328   9.701  0.4501 -0.2072  0.1899
    8TAL    C35 3471  -0.739   0.041   9.733 -0.1739 -0.0916  0.0514
    8TAL    C36 3472  -0.781  -0.075   9.635  0.3588  0.1687 -0.9977
    8TAL    C37 3473  -0.710  -0.211   9.649 -0.5976 -1.5092 -0.4943
    8TAL    C38 3474  -0.738  -0.350   9.592 -0.7293  0.3475  0.1354
    8TAL    C39 3475  -0.814  -0.366   9.463  0.1896  0.8822  0.1876
    8TAL    C40 3476  -0.792  -0.503   9.409  0.4775  0.3423 -0.4411
    9HTM    C41 3477  -0.676   0.341   9.852  0.3303 -0.2117 -0.1306
    9HTM    C42 3478  -0.626   0.414   9.955  0.2270 -0.6486  0.2370
    9HTM    C43 3479  -0.725   0.496  10.022  0.2129 -0.7275  0.3133
    9HTM    C44 3480  -0.850   0.484   9.969  0.3048 -0.3508  0.0038
    9HTM     S5 3481  -0.853   0.369   9.830  0.4180  0.1366 -0.4112
   10TAL    C45 3482  -0.701   0.600  10.141 -0.0312  0.2515 -1.4130
   10TAL    C46 3483  -0.592   0.561  10.249  0.5461 -0.5159  0.0340
   10TAL    C47 3484  -0.627   0.456  10.347  0.2474  0.6043  0.1929
   10TAL    C48 3485  -0.740   0.476  10.452  0.2351 -0.0433  0.3682
   10TAL    C49 3486  -0.721   0.596  10.544  0.6291  0.0142 -0.4065
   10TAL    C50 3487  -0.611   0.568  10.650  0.1797  0.1849  0.7138
   11HTM    C51 3488  -0.980   0.530  10.022 -0.4094 -0.3094  0.3472
   11HTM    C52 3489  -1.026   0.512  10.149 -1.0409 -0.7923  0.0641
   11HTM    C53 3490  -1.150   0.581  10.175 -0.9933 -0.6031 -0.1911
   11HTM    C54 3491  -1.199   0.650  10.068 -0.3254  0.0241 -0.1025
   11HTM     S6 3492  -1.091   0.634   9.925  0.3002  0.4275  0.3133
   12TAL    C55 3493  -1.225   0.567  10.309 -0.3444 -0.7749 -0.0715
   12TAL    C56 3494  -1.179   0.479  10.427 -0.2020  0.9254 -0.4121
   12TAL    C57 3495  -1.077   0.550  10.524  0.4166 -0.0984  0.5050
   12TAL    C58 3496  -1.106   0.658  10.633 -0.4279 -0.0940  0.4542
   12TAL    C59 3497  -1.162   0.622  10.765 -0.1420  1.0602  0.4372
   12TAL    C60 3498  -1.308   0.568  10.776 -0.4698 -0.1118  0.6179
   13HTM    C61 3499  -1.336   0.704  10.038 -0.1548 -0.1078 -0.8965
   13HTM    C62 3500  -1.422   0.657   9.943 -0.5770 -0.3133 -0.4172
   13HTM    C63 3501  -1.553   0.715   9.950 -0.5968 -0.4142  0.1359
   13HTM    C64 3502  -1.567   0.807  10.050 -0.1901 -0.2855  0.0783
   13HTM     S7 3503  -1.415   0.827  10.144  0.2533 -0.0250 -0.6848
   14TAL    C65 3504  -1.652   0.686   9.841  0.2962  0.0419  0.7990
   14TAL    C66 3505  -1.700   0.548   9.805 -0.0108 -0.0553 -0.7066
   14TAL    C67 3506  -1.614   0.448   9.730 -0.4741  0.1287 -1.0407
   14TAL    C68 3507  -1.702   0.331   9.705  0.2591 -0.1997 -0.0547
   14TAL    C69 3508  -1.654   0.243   9.589  0.4160 -0.0692  0.5533
   14TAL    C70 3509  -1.641   0.287   9.450 -0.4770  0.2828  1.2674
   15HTM    C71 3510  -1.680   0.890  10.095 -0.2699 -0.2541  0.1334
   15HTM    C72 3511  -1.674   0.974  10.202 -0.3636 -0.7771  0.5618
   15HTM    C73 3512  -1.800   1.033  10.237 -0.3731 -0.8603  0.6679
   15HTM    C74 3513  -1.903   0.994  10.158 -0.2864 -0.4008  0.3205
   15HTM     S8 3514  -1.848   0.878  10.031 -0.1851  0.1773 -0.1716
   16TAL    C75 3515  -1.790   1.151  10.335  1.1850 -0.1566  0.5292
   16TAL    C76 3516  -1.691   1.135  10.451 -0.7492 -0.3283  0.0290
   16TAL    C77 3517  -1.729   1.016  10.538 -0.1835  0.5425 -0.0902
   16TAL    C78 3518  -1.673   1.013  10.684  0.1559  0.2046  0.4702
   16TAL    C79 3519  -1.551   1.108  10.720 -1.0726 -0.4602 -0.7409
   16TAL    C80 3520  -1.415   1.045  10.700  0.9312 -0.1598  0.0850
   17HTM    C81 3521  -2.037   1.038  10.166  0.8589  1.2585  0.0871
   17HTM    C82 3522  -2.129   1.001  10.260  1.2197  1.6207  0.5900
   17HTM    C83 3523  -2.265   1.017  10.218  1.0562  0.9554  0.8520
   17HTM    C84 3524  -2.278   1.065  10.091  0.5706  0.0858  0.5488
   17HTM     S9 3525  -2.118   1.096  10.015  0.2801  0.0394 -0.0960
   18TAL    C85 3526  -2.386   0.965  10.312  0.8281 -0.2078  0.1522
   18TAL    C86 3527  -2.371   0.845  10.397  0.5430 -0.7129 -0.3430
   18TAL    C87 3528  -2.337   0.707  10.353  0.9353 -0.8199 -0.1258
   18TAL    C88 3529  -2.420   0.616  10.263  0.1223  0.0444 -0.3645
   18TAL    C89 3530  -2.470   0.660  10.127 -0.3968 -1.1309 -0.9683
   18TAL    C90 3531  -2.360   0.663  10.020  0.0421 -0.6915 -0.5974
   19HTM    C91 3532  -2.392   1.092  10.012 -0.1027  0.6283  0.3373
   19HTM    C92 3533  -2.392   1.153   9.890 -0.4156  1.2327  0.6334
   19HTM    C93 3534  -2.521   1.150   9.824 -0.4946  1.2281  0.7873
   19HTM    C94 3535  -2.618   1.087   9.896 -0.2421  0.6200  0.6085
   19HTM    S10 3536  -2.555   1.026  10.053  0.1180  0.0015  0.2290
   20TAL    C95 3537  -2.533   1.218   9.699 -0.4101 -0.3263 -0.0281
   20TAL    C96 3538  -2.428   1.245   9.592  0.0688  0.3662 -0.1368
   20TAL    C97 3539  -2.491   1.317   9.484 -0.4315 -0.5812  0.6166
   20TAL    C98 3540  -2.407   1.305   9.355  0.1729  0.6871 -0.9669
   20TAL    C99 3541  -2.459   1.335   9.220  1.0382 -0.5662  0.8158
   20TAL   C100 3542  -2.368   1.395   9.116  0.6645 -1.1889 -0.3568
   21HTM   C101 3543  -2.752   1.041   9.856  0.0427  0.3730 -0.2108
   21HTM   C102 3544  -2.784   0.938   9.773  0.4156  0.5611 -0.5941
   21HTM   C103 3545  -2.925   0.918   9.757  0.4854  0.2522 -0.8481
   21HTM   C104 3546  -3.001   1.006   9.828  0.1661 -0.1714 -0.6584
   21HTM    S11 3547  -2.899   1.121   9.922 -0.2512 -0.2134 -0.1405
   22TAL   C105 3548  -2.975   0.816   9.651 -0.6349  0.1915 -0.3888
   22TAL   C106 3549  -2.936   0.817   9.503  0.3387 -0.1217  0.4468
   22TAL   C107 3550  -3.003   0.937   9.420 -0.1791 -0.6497 -0.6072
   22TAL   C108 3551  -2.949   0.953   9.282 -0.5156  0.7650  0.8291
   22TAL   C109 3552  -2.795   0.989   9.274  0.9616 -0.1317  0.3340
   22TAL   C110 3553  -2.744   1.057   9.144  0.0088 -0.0940  0.2853
   23HTM   C111 3554  -3.145   1.012   9.858  0.3546 -0.0121  0.4596
   23HTM   C112 3555  -3.208   1.129   9.889  0.5977  0.0361  0.7919
   23HTM   C113 3556  -3.350   1.115   9.907  0.4938  0.3620  0.2631
   23HTM   C114 3557  -3.395   0.987   9.890  0.1712  0.5623 -0.4723
   23HTM    S12 3558  -3.261   0.874   9.850 -0.0276  0.3532 -0.5547
   24TAL   C115 3559  -3.471   1.217   9.926 -0.8304  0.8007 -0.5241
   24TAL   C116 3560  -3.439   1.370   9.945  0.0982 -0.0689  0.3012
   24TAL   C117 3561  -3.327   1.439  10.031  1.0094  0.2514  0.2005
   24TAL   C118 3562  -3.281   1.366  10.155  0.5418 -0.5677 -1.0304
   24TAL   C119 3563  -3.375   1.334  10.272  0.1472 -0.5513  0.8483
   24TAL   C120 3564  -3.451   1.450  10.334 -0.2420 -1.6788  0.4986
   25HTM   C121 3565  -3.525   0.911   9.913  0.2507 -0.3391  0.3837
   25HTM   C122 3566  -3.569   0.791   9.865  0.0265 -0.0438 -0.1581
   25HTM   C123 3567  -3.694   0.748   9.921 -0.0857 -0.0383 -0.3987
   25HTM   C124 3568  -3.746   0.835  10.013  0.0531 -0.3295 -0.0405
   25HTM    S13 3569  -3.639   0.979  10.035  0.3385 -0.6355  0.6339
   26TAL   C125 3570  -3.740   0.606   9.879  0.0870 -0.1363  0.3403
   26TAL   C126 3571  -3.852   0.604   9.782  0.2479  0.0134  2.1035
   26TAL   C127 3572  -3.808   0.652   9.628 -0.3477  0.9162  0.5498
   26TAL   C128 3573  -3.741   0.549   9.533  0.1944  0.3948  0.2048
   26TAL   C129 3574  -3.599   0.588   9.484 -0.1647  0.2194 -0.0822
   26TAL   C130 3575  -3.567   0.708   9.396  0.5309 -0.4439  0.3857
   27HTM   C131 3576  -3.861   0.827  10.096 -0.1757 -0.2066 -0.2547
   27HTM   C132 3577  -3.985   0.789  10.053 -0.3718  0.0968  0.0375
   27HTM   C133 3578  -4.077   0.760  10.161 -0.2660  0.5550  0.2576
   27HTM   C134 3579  -4.023   0.776  10.285  0.0110  0.6009  0.1333
   27HTM    S14 3580  -3.851   0.829  10.276  0.1605  0.0649 -0.2746
   28TAL   C135 3581  -4.225   0.719  10.136  0.2826  0.2235  0.0810
   28TAL   C136 3582  -4.304   0.716  10.001  1.2427 -0.3507 -0.6828
   28TAL   C137 3583  -4.286   0.603   9.906 -1.3309  0.1669  0.2085
   28TAL   C138 3584  -4.421   0.568   9.840  0.0201  1.0783  0.1194
   28TAL   C139 3585  -4.398   0.458   9.731  0.8999  0.3894 -0.7881
   28TAL   C140 3586  -4.535   0.399   9.686 -0.6794  0.8810 -0.3938
   29HTM   C141 3587  -4.079   0.764  10.419  0.2320 -0.7894 -0.3367
   29HTM   C142 3588  -4.001   0.758  10.531 -0.0247 -0.5637 -0.1408
   29HTM   C143 3589  -4.074   0.737  10.652 -0.3636  0.2752 -0.1909
   29HTM   C144 3590  -4.209   0.728  10.634 -0.3651  0.6891 -0.4250
   29HTM    S15 3591  -4.254   0.744  10.460  0.0645  0.0466 -0.6017
   30TAL   C145 3592  -3.993   0.728  10.782 -0.0439 -0.0023  0.0398
   30TAL   C146 3593  -3.980   0.602  10.860 -0.9942  0.0329 -0.5852
   30TAL   C147 3594  -3.903   0.621  10.991  0.0843 -0.7285  0.5326
   30TAL   C148 3595  -3.749   0.653  10.968  0.3793 -0.4374 -1.3268
   30TAL   C149 3596  -3.689   0.710  11.103 -0.9634 -0.2569 -0.3455
   30TAL   C150 3597  -3.541   0.744  11.077  0.9151 -0.2867  0.7107
   31HTM   C151 3598  -4.312   0.713  10.737  0.2043  0.1182  0.1999
   31HTM   C152 3599  -4.390   0.606  10.771  0.1330  0.2041  0.3096
   31HTM   C153 3600  -4.506   0.641  10.848  0.0141  0.3951  0.0474
   31HTM   C154 3601  -4.516   0.775  10.874 -0.0056  0.4548 -0.2623
   31HTM    S16 3602  -4.379   0.867  10.802  0.1257  0.2731 -0.2466
   32TAL   C155 3603  -4.592   0.525  10.905 -0.8570  0.2238  0.6386
   32TAL   C156 3604  -4.737   0.532  10.975 -0.3013 -0.9593 -0.5043
   32TAL   C157 3605  -4.786   0.431  11.074  0.2299 -0.3906 -0.0799
   32TAL   C158 3606  -4.689   0.389  11.179  0.9162  0.2150 -0.7099
   32TAL   C159 3607  -4.731   0.283  11.281 -0.1437  0.6404  0.1110
   32TAL   C160 3608  -4.841   0.345  11.372 -0.0014  0.3636 -0.4027
   33HTM   C161 3609  -4.611   0.847  10.959  0.2155  0.1599 -0.2438
   33HTM   C162 3610  -4.623   0.831  11.094 -0.3628 -0.4222 -0.3529
   33HTM   C163 3611  -4.691   0.941  11.159 -0.8261 -0.7987 -0.1892
   33HTM   C164 3612  -4.730   1.039  11.074 -0.6013 -0.5037  0.0446
   33HTM    S17 3613  -4.684   1.002  10.903  0.2193  0.2786  0.0765
   34TAL   C165 3614  -4.706   0.953  11.309 -0.2460  0.0917  0.9004
   34TAL   C166 3615  -4.833   0.868  11.350 -0.2189 -0.9741 -0.0587
   34TAL   C167 3616  -4.910   0.946  11.462  0.0115 -0.1213  0.1734
   34TAL   C168 3617  -5.035   0.876  11.534  0.8979 -1.0855  0.3050
   34TAL   C169 3618  -5.109   0.971  11.626 -0.3862 -0.1656  0.6437
   34TAL   C170 3619  -5.258   0.920  11.626 -0.2855  0.5427  1.1873
   35HTM   C171 3620  -4.797   1.167  11.097  0.2812 -0.3722 -0.4117
   35HTM   C172 3621  -4.906   1.203  11.171  0.4120 -0.5492 -0.1283
   35HTM   C173 3622  -4.931   1.345  11.172  0.5696 -0.5198  0.4824
   35HTM   C174 3623  -4.842   1.417  11.099  0.5589 -0.3204  0.6648
   35HTM    S18 3624  -4.717   1.311  11.023  0.3471 -0.1530  0.0747
   36TAL   C175 3625  -5.052   1.377  11.257 -0.3356 -1.1067 -0.8063
   36TAL   C176 3626  -5.104   1.521  11.273  0.0161  1.4520 -0.4637
   36TAL   C177 3627  -5.148   1.520  11.417  1.0095 -0.2694  0.6008
   36TAL   C178 3628  -5.246   1.642  11.457 -0.0167  0.1999  0.5897
   36TAL   C179 3629  -5.194   1.779  11.415 -0.4696 -1.3161  0.3620
   36TAL   C180 3630  -5.232   1.900  11.496 -0.0727  0.2094 -0.2139
   37HTM   C181 3631  -4.803   1.561  11.088 -0.2453 -0.3178  0.2140
   37HTM   C182 3632  -4.796   1.643  10.979 -0.3428 -0.6607 -0.0542
   37HTM   C183 3633  -4.738   1.771  11.007 -0.1832 -0.6225 -0.5463
   37HTM   C184 3634  -4.700   1.787  11.137  0.0360 -0.2504 -0.6533
   37HTM    S19 3635  -4.735   1.640  11.235  0.0580  0.0831 -0.1368
   38TAL   C185 3636  -4.734   1.878  10.898  0.6351  1.1155  0.0445
   38TAL   C186 3637  -4.700   1.825  10.755 -0.4450  0.1692  0.4995
   38TAL   C187 3638  -4.676   1.953  10.678  0.5163  0.6769  0.4159
   38TAL   C188 3639  -4.581   1.953  10.557  0.1159  0.6579  0.3022
   38TAL   C189 3640  -4.558   2.078  10.472  0.2578 -0.8364  0.7594
   38TAL   C190 3641  -4.668   2.105  10.382 -0.1480 -0.1993  0.0560
   39HTM   C191 3642  -4.629   1.887  11.224 -0.0133  0.3806  0.5691
   39HTM   C192 3643  -4.582   1.870  11.351  0.2115  0.6490  0.5236
   39HTM   C193 3644  -4.520   1.988  11.406  0.2713  0.7788  0.1806
   39HTM   C194 3645  -4.518   2.094  11.320  0.0921  0.6093 -0.0353
   39HTM    S20 3646  -4.597   2.053  11.163 -0.1681  0.2699  0.1793
   40TAL   C195 3647  -4.466   1.984  11.550  0.4265 -0.6306  0.2380
   40TAL   C196 3648  -4.548   2.032  11.664  0.9793 -0.0600 -0.7621
   40TAL   C197 3649  -4.676   1.967  11.702 -0.2895 -0.7392 -0.1200
   40TAL   C198 3650  -4.747   2.084  11.762 -0.8790 -0.3627  0.2866
   40TAL   C199 3651  -4.905   2.075  11.760 -0.4273  1.0391  0.5390
   40TAL   C200 3652  -4.969   2.179  11.676 -0.5907 -0.2195 -0.0494
   41HTM   C201 3653  -4.437   2.208  11.331  0.3688 -0.2851  0.6262
   41HTM   C202 3654  -4.399   2.279  11.221 -0.1830 -0.4232  0.3412
   41HTM   C203 3655  -4.355   2.413  11.250 -0.3289 -0.2785 -0.0874
   41HTM   C204 3656  -4.359   2.444  11.382  0.1119 -0.0301 -0.1291
   41HTM    S21 3657  -4.420   2.306  11.481  0.7500  0.0409  0.3736
   42TAL   C205 3658  -4.282   2.503  11.139 -0.1689  0.9473  0.7135
   42TAL   C206 3659  -4.172   2.447  11.045 -0.2165 -0.0773 -0.4456
   42TAL   C207 3660  -4.202   2.355  10.926 -0.2536 -0.1611 -1.3925
   42TAL   C208 3661  -4.281   2.394  10.802 -0.0671 -0.5076  0.1212
   42TAL   C209 3662  -4.210   2.473  10.697  0.1738  0.2034 -0.4601
   42TAL   C210 3663  -4.271   2.464  10.558  0.5044 -0.6424  0.3125
   43HTM   C211 3664  -4.316   2.563  11.452 -0.0224  0.0593 -0.7068
   43HTM   C212 3665  -4.394   2.650  11.522 -0.0507 -0.4143 -0.1294
   43HTM   C213 3666  -4.320   2.737  11.610 -0.0888 -1.0300  0.5308
   43HTM   C214 3667  -4.185   2.716  11.607 -0.0896 -1.0260  0.4566
   43HTM    S22 3668  -4.141   2.584  11.492 -0.0418 -0.2380 -0.4598
   44TAL   C215 3669  -4.395   2.853  11.682  0.1464  0.7790 -0.2605
   44TAL   C216 3670  -4.413   2.969  11.588  0.4355  0.1571 -0.3883
   44TAL   C217 3671  -4.481   3.078  11.649  0.3994  0.5220 -0.5525
   44TAL   C218 3672  -4.427   3.156  11.769  0.4628  0.7665  0.0349
   44TAL   C219 3673  -4.505   3.289  11.781 -0.3211 -0.0437 -0.4282
   44TAL   C220 3674  -4.667   3.279  11.764  0.1127 -0.3637  0.5108
   45HTM   C221 3675  -4.079   2.763  11.687 -0.6693  0.4533 -0.4336
   45HTM   C222 3676  -3.995   2.687  11.762 -0.9385  0.0882 -0.4978
   45HTM   C223 3677  -3.898   2.763  11.836 -0.8392 -0.3020 -0.2194
   45HTM   C224 3678  -3.909   2.898  11.818 -0.4945 -0.2344  0.0570
   45HTM    S23 3679  -4.043   2.939  11.704 -0.2667  0.3316 -0.0135
   46TAL   C225 3680  -3.792   2.688  11.932  0.6854 -0.5125 -1.2314
   46TAL   C226 3681  -3.825   2.549  11.991 -0.1021 -0.3303 -0.1314
   46TAL   C227 3682  -3.954   2.546  12.073 -0.1716 -0.5570  0.6103
   46TAL   C228 3683  -4.012   2.405  12.100  0.0784 -0.3397 -1.5324
   46TAL   C229 3684  -4.098   2.392  12.236  0.7427  0.2912 -0.4193
   46TAL   C230 3685  -4.050   2.447  12.368  0.3099  0.1267  0.3220
   47HTM   C231 3686  -3.820   3.002  11.877  0.0075 -0.0670 -0.7537
   47HTM   C232 3687  -3.845   3.088  11.979 -0.6225 -0.2413 -0.7498
   47HTM   C233 3688  -3.741   3.186  11.999 -0.7759 -0.2184  0.0027
   47HTM   C234 3689  -3.637   3.173  11.911 -0.2625 -0.0266  0.5726
   47HTM    S24 3690  -3.662   3.037  11.797  0.4599  0.1412  0.2001
   48TAL   C235 3691  -3.729   3.292  12.107  0.1254 -0.2762 -0.3857
   48TAL   C236 3692  -3.653   3.424  12.087  0.0467  0.2226  0.2029
   48TAL   C237 3693  -3.679   3.541  12.183  0.9109 -0.4959 -0.3397
   48TAL   C238 3694  -3.810   3.623  12.178 -0.9090 -0.8168 -0.3053
   48TAL   C239 3695  -3.854   3.677  12.043  0.1013 -0.6569  0.5437
   48TAL   C240 3696  -3.981   3.757  12.065 -0.0302  0.3395 -0.6024
    1HTM     C1 3697   1.212   0.599   6.292 -0.1367 -0.4727  0.2279
    1HTM     C2 3698   1.211   0.691   6.394 -0.7448 -0.7480  0.4838
    1HTM     C3 3699   1.297   0.656   6.504 -0.7095 -0.6134  0.4995
    1HTM     C4 3700   1.363   0.537   6.487 -0.0746 -0.2356  0.2557
    1HTM     S1 3701   1.321   0.461   6.329  0.5328 -0.0187 -0.0148
    2TAL     C5 3702   1.310   0.736   6.627 -0.7596 -0.4822 -0.2043
    2TAL     C6 3703   1.193   0.797   6.694  0.9042 -0.0538 -0.6812
    2TAL     C7 3704   1.223   0.809   6.847  0.1042  1.1049  0.6476
    2TAL     C8 3705   1.111   0.866   6.934 -0.6358  0.4063 -0.0058
    2TAL     C9 3706   1.135   0.838   7.076  0.0235 -0.8534  0.3502
    2TAL    C10 3707   1.012   0.875   7.159  0.6709  0.6644  0.3159
    3HTM    C11 3708   1.466   0.474   6.567 -0.0157  0.4383  0.1215
    3HTM    C12 3709   1.597   0.456   6.535 -0.0370  0.3981  0.0545
    3HTM    C13 3710   1.671   0.381   6.634 -0.1039  0.0196 -0.1779
    3HTM    C14 3711   1.595   0.342   6.741 -0.1335 -0.2287 -0.2879
    3HTM     S2 3712   1.424   0.397   6.724 -0.0789 -0.0021 -0.1055
    4TAL    C15 3713   1.819   0.353   6.609 -0.5624 -0.3856 -0.1243
    4TAL    C16 3714   1.929   0.440   6.696 -0.2333  0.0742  0.5667
    4TAL    C17 3715   2.076   0.384   6.716  0.5975 -0.3782 -0.7811
    4TAL    C18 3716   2.152   0.313   6.602  0.3442 -1.0900 -0.4370
    4TAL    C19 3717   2.296   0.270   6.643  0.5929  0.4519 -0.4880
    4TAL    C20 3718   2.419   0.352   6.636  0.9903 -0.0726  0.5221
    5HTM    C21 3719   1.625   0.257   6.857 -0.2259  0.5038  0.7638
    5HTM    C22 3720   1.536   0.199   6.943  0.0279  0.2745  0.8752
    5HTM    C23 3721   1.598   0.115   7.042  0.3127 -0.1009  0.3864
    5HTM    C24 3722   1.734   0.108   7.031  0.2761 -0.1579 -0.0978
    5HTM     S3 3723   1.795   0.209   6.894 -0.1241  0.2614  0.0271
    6TAL    C25 3724   1.506   0.052   7.148 -0.5454 -0.7957  0.6628
    6TAL    C26 3725   1.440   0.162   7.232 -0.1452 -0.1617 -0.7461
    6TAL    C27 3726   1.320   0.117   7.316 -0.0151  0.2326 -0.1418
    6TAL    C28 3727   1.288   0.229   7.400 -0.0614 -0.5531  0.2119
    6TAL    C29 3728   1.202   0.203   7.513  1.2403  0.7013 -1.1432
    6TAL    C30 3729   1.230   0.278   7.643  0.2099  0.2726  0.0366
    7HTM    C31 3730   1.826   0.019   7.090  0.9451  0.6515  0.0996
    7HTM    C32 3731   1.890   0.012   7.211  1.2859  0.8646 -0.0652
    7HTM    C33 3732   1.985  -0.096   7.220  0.6402  0.3021  0.1662
    7HTM    C34 3733   1.993  -0.172   7.106 -0.1929 -0.3401  0.5076
    7HTM     S4 3734   1.881  -0.112   6.978 -0.2266 -0.2835  0.5636
    8TAL    C35 3735   2.078  -0.116   7.343 -0.5082  0.3153  1.1501
    8TAL    C36 3736   2.011  -0.188   7.452 -0.7057  0.1012 -0.3556
    8TAL    C37 3737   2.096  -0.208   7.584  0.2391 -0.0329  0.2297
    8TAL    C38 3738   2.006  -0.264   7.702 -0.8924 -0.2100  0.0149
    8TAL    C39 3739   2.043  -0.394   7.743 -0.3288  1.9354  0.0099
    8TAL    C40 3740   2.187  -0.398   7.804  0.0106  0.3079 -0.6323
    9HTM    C41 3741   2.074  -0.287   7.080 -0.1697 -0.0834 -0.0066
    9HTM    C42 3742   2.151  -0.307   6.968 -0.4035 -0.1812 -0.1513
    9HTM    C43 3743   2.223  -0.432   6.969 -0.3555 -0.1533 -0.1650
    9HTM    C44 3744   2.201  -0.507   7.080 -0.0851 -0.0345 -0.0309
    9HTM     S5 3745   2.088  -0.426   7.194  0.1316  0.0522  0.1244
   10TAL    C45 3746   2.312  -0.465   6.852  0.4362  0.4998  0.6921
   10TAL    C46 3747   2.458  -0.431   6.858 -0.5912 -0.5510  0.4464
   10TAL    C47 3748   2.491  -0.285   6.834  0.8066 -1.2064 -0.9791
   10TAL    C48 3749   2.622  -0.264   6.765  0.6197 -0.4797  0.0682
   10TAL    C49 3750   2.669  -0.116   6.737 -0.1333  0.6989 -0.7187
   10TAL    C50 3751   2.821  -0.127   6.760 -0.3538  0.3546 -0.2881
   11HTM    C51 3752   2.254  -0.633   7.130 -0.5129 -0.2660  0.0790
   11HTM    C52 3753   2.216  -0.710   7.235 -0.2946 -0.3955  0.0638
   11HTM    C53 3754   2.290  -0.834   7.246 -0.0376 -0.2532 -0.0392
   11HTM    C54 3755   2.384  -0.850   7.149 -0.0599 -0.0150 -0.1027
   11HTM     S6 3756   2.387  -0.710   7.035 -0.4099  0.0481 -0.0366
   12TAL    C55 3757   2.263  -0.927   7.365 -0.3800  0.3060 -0.4005
   12TAL    C56 3758   2.156  -1.028   7.363  0.4478  0.2160 -0.3158
   12TAL    C57 3759   2.143  -1.132   7.472 -0.4032 -1.7444  0.0279
   12TAL    C58 3760   2.239  -1.242   7.475  0.1467  0.6979 -0.7548
   12TAL    C59 3761   2.186  -1.378   7.464  0.5358 -0.8284  0.4945
   12TAL    C60 3762   2.297  -1.473   7.458 -0.3334  0.5779 -0.8373
   13HTM    C61 3763   2.491  -0.950   7.124 -0.1944  0.0239 -0.4771
   13HTM    C62 3764   2.560  -0.957   7.007 -0.2578 -0.0620 -0.5096
   13HTM    C63 3765   2.649  -1.070   6.999 -0.1044  0.0491 -0.3878
   13HTM    C64 3766   2.648  -1.149   7.110  0.0763  0.2198 -0.2623
   13HTM     S7 3767   2.533  -1.087   7.234  0.0663  0.2539 -0.2885
   14TAL    C65 3768   2.725  -1.114   6.879  0.2074 -1.0073  0.4588
   14TAL    C66 3769   2.661  -1.155   6.744  1.1842  0.7389 -0.1397
   14TAL    C67 3770   2.526  -1.242   6.742 -0.0607  0.0640  0.2512
   14TAL    C68 3771   2.548  -1.377   6.805 -0.2238  0.0730  0.4479
   14TAL    C69 3772   2.415  -1.444   6.833 -0.2369 -0.7443 -0.0699
   14TAL    C70 3773   2.398  -1.574   6.898  0.4799 -0.0705  0.8999
   15HTM    C71 3774   2.718  -1.276   7.149 -0.0313 -0.2793  0.4004
   15HTM    C72 3775   2.743  -1.301   7.281 -0.1950 -0.7582  0.3434
   15HTM    C73 3776   2.825  -1.417   7.303 -0.3015 -0.8969  0.0302
   15HTM    C74 3777   2.864  -1.480   7.188 -0.2191 -0.5241 -0.1517
   15HTM     S8 3778   2.798  -1.398   7.042  0.0011  0.0364  0.0603
   16TAL    C75 3779   2.845  -1.445   7.453 -0.6070 -0.9775 -0.3331
   16TAL    C76 3780   2.745  -1.499   7.545  1.1370  0.8046 -0.0237
   16TAL    C77 3781   2.700  -1.638   7.508 -0.5282 -0.4985 -0.4833
   16TAL    C78 3782   2.663  -1.730   7.629  0.0922 -0.5866  0.2034
   16TAL    C79 3783   2.567  -1.680   7.733  0.0923  0.2243  0.1338
   16TAL    C80 3784   2.515  -1.777   7.841  0.3787 -0.1703  0.5160
   17HTM    C81 3785   2.933  -1.610   7.171  0.4556  0.2217 -0.4451
   17HTM    C82 3786   2.887  -1.708   7.089  0.4907  0.2213 -0.4642
   17HTM    C83 3787   2.977  -1.820   7.075  0.4176  0.1380 -0.2817
   17HTM    C84 3788   3.092  -1.806   7.146  0.3265  0.0751 -0.1235
   17HTM     S9 3789   3.095  -1.651   7.238  0.3263  0.1162 -0.1932
   18TAL    C85 3790   2.933  -1.945   7.005 -0.2821  0.5851 -0.4606
   18TAL    C86 3791   2.834  -2.042   7.080  0.8194 -0.8480 -0.5399
   18TAL    C87 3792   2.866  -2.066   7.230  0.9131  0.4054  0.1507
   18TAL    C88 3793   2.813  -2.192   7.290  0.1271  0.3725 -0.5218
   18TAL    C89 3794   2.674  -2.238   7.254 -0.1282 -0.9594 -0.1121
   18TAL    C90 3795   2.645  -2.373   7.305  0.1113  0.9544 -0.3030
   19HTM    C91 3796   3.209  -1.891   7.163 -0.3347 -0.2607 -0.2233
   19HTM    C92 3797   3.303  -1.931   7.072 -0.8340 -0.8343 -0.5038
   19HTM    C93 3798   3.402  -2.020   7.125 -0.8715 -0.9619 -0.6438
   19HTM    C94 3799   3.385  -2.048   7.258 -0.4009 -0.4855 -0.4702
   19HTM    S10 3800   3.240  -1.964   7.325  0.1302  0.1661 -0.1138
   20TAL    C95 3801   3.513  -2.059   7.024  0.8521 -0.3727 -0.8894
   20TAL    C96 3802   3.625  -1.958   6.999  0.3617 -0.4666  0.6941
   20TAL    C97 3803   3.741  -2.020   6.913  0.3287  0.3829  0.3414
   20TAL    C98 3804   3.819  -2.131   6.991 -0.5932  0.7010  0.4827
   20TAL    C99 3805   3.952  -2.200   6.943  0.3973  0.0215 -0.3256
   20TAL   C100 3806   4.000  -2.156   6.805  0.5013 -0.3971  0.1351
   21HTM   C101 3807   3.459  -2.148   7.340 -0.7185 -0.3973 -0.0825
   21HTM   C102 3808   3.587  -2.192   7.318 -0.4861  0.1180  0.2056
   21HTM   C103 3809   3.628  -2.297   7.407 -0.0079  0.7463  0.7501
   21HTM   C104 3810   3.532  -2.334   7.497  0.1243  0.7099  0.8771
   21HTM    S11 3811   3.381  -2.238   7.476 -0.3486 -0.1270  0.3147
   22TAL   C105 3812   3.771  -2.349   7.395 -0.5780 -0.0857 -0.5005
   22TAL   C106 3813   3.870  -2.276   7.496  0.8617  0.2491 -0.5216
   22TAL   C107 3814   4.014  -2.280   7.455 -0.5998  0.1775 -0.3174
   22TAL   C108 3815   4.051  -2.267   7.302  0.2170 -0.5700  0.0939
   22TAL   C109 3816   4.207  -2.270   7.287  0.5410  1.2568 -0.1116
   22TAL   C110 3817   4.243  -2.268   7.133 -0.3510 -0.0877  1.1782
   23HTM   C111 3818   3.518  -2.443   7.592  0.5330 -0.5789 -0.1228
   23HTM   C112 3819   3.420  -2.537   7.601  0.3877 -0.4178  0.0025
   23HTM   C113 3820   3.443  -2.635   7.703 -0.0021 -0.0465  0.4556
   23HTM   C114 3821   3.558  -2.616   7.773 -0.1540  0.0757  0.6757
   23HTM    S12 3822   3.648  -2.471   7.714  0.1861 -0.2714  0.3252
   24TAL   C115 3823   3.349  -2.760   7.723 -0.9932 -0.9048  0.5178
   24TAL   C116 3824   3.247  -2.792   7.619  0.2923 -0.4252  0.0169
   24TAL   C117 3825   3.299  -2.859   7.501  0.5920  0.5739  0.6179
   24TAL   C118 3826   3.231  -3.004   7.477  0.3195 -0.0630 -0.3072
   24TAL   C119 3827   3.290  -3.069   7.347  0.1000 -0.5122  0.0829
   24TAL   C120 3828   3.229  -3.014   7.220  0.6707 -0.2906  0.3768
   25HTM   C121 3829   3.616  -2.696   7.873  0.3812 -0.2186 -0.1601
   25HTM   C122 3830   3.749  -2.716   7.896  0.3380 -0.1098  0.1940
   25HTM   C123 3831   3.776  -2.804   8.007  0.1188  0.0578  0.3822
   25HTM   C124 3832   3.664  -2.851   8.068 -0.0051  0.0768  0.1723
   25HTM    S13 3833   3.514  -2.787   7.990  0.1466 -0.1172 -0.2839
   26TAL   C125 3834   3.919  -2.821   8.046 -1.3741 -0.3520 -0.2384
   26TAL   C126 3835   4.001  -2.954   8.052 -0.1489  0.3533  0.2031
   26TAL   C127 3836   4.004  -3.040   7.922  0.3218 -0.7116  0.0027
   26TAL   C128 3837   4.067  -2.993   7.792  0.9084 -0.5997  0.6751
   26TAL   C129 3838   4.217  -2.989   7.784 -0.6433  0.8330  0.4501
   26TAL   C130 3839   4.285  -2.978   7.649  0.6545 -0.2209  0.8162
   27HTM   C131 3840   3.658  -2.936   8.180  0.8457 -0.5119 -0.2063
   27HTM   C132 3841   3.703  -2.907   8.305  1.4294 -0.8707 -0.3247
   27HTM   C133 3842   3.665  -3.005   8.404  1.1259 -0.7001 -0.2708
   27HTM   C134 3843   3.591  -3.108   8.354  0.3109 -0.2109 -0.1112
   27HTM    S14 3844   3.564  -3.089   8.177 -0.1401  0.0742 -0.0152
   28TAL   C135 3845   3.727  -2.996   8.547 -0.3327  0.1770  0.8425
   28TAL   C136 3846   3.729  -2.886   8.647  0.6846 -0.4126  0.1758
   28TAL   C137 3847   3.794  -2.750   8.626  0.5845 -0.5733 -0.1870
   28TAL   C138 3848   3.937  -2.736   8.574 -0.2730  0.2360 -0.3851
   28TAL   C139 3849   4.011  -2.622   8.630 -0.3937 -0.0239 -0.6005
   28TAL   C140 3850   4.000  -2.585   8.779  0.6152  0.3738  0.5814
   29HTM   C141 3851   3.541  -3.223   8.425  0.1750 -0.0012 -0.1171
   29HTM   C142 3852   3.444  -3.303   8.373  0.0768  0.0567 -0.0255
   29HTM   C143 3853   3.401  -3.407   8.462  0.0657  0.1122  0.0336
   29HTM   C144 3854   3.464  -3.406   8.583  0.1556  0.0963 -0.0134
   29HTM    S15 3855   3.585  -3.272   8.593  0.2618  0.0097 -0.1368
   30TAL   C145 3856   3.301  -3.516   8.406  0.5192  0.1453  0.7290
   30TAL   C146 3857   3.153  -3.479   8.388  0.8958  0.2435  0.5901
   30TAL   C147 3858   3.059  -3.582   8.316 -0.5126 -0.7849 -0.6818
   30TAL   C148 3859   2.923  -3.535   8.274 -0.2122 -0.7163  1.5589
   30TAL   C149 3860   2.810  -3.477   8.370  0.6840  0.5081  0.3077
   30TAL   C150 3861   2.747  -3.574   8.470 -0.1612  1.0117 -0.2116
   31HTM   C151 3862   3.439  -3.490   8.705 -0.3503 -0.1956  0.6059
   31HTM   C152 3863   3.436  -3.453   8.836  0.2384 -0.6678  0.7656
   31HTM   C153 3864   3.395  -3.559   8.925  0.7505 -1.0216  0.5860
   31HTM   C154 3865   3.368  -3.676   8.861  0.5522 -0.8191  0.2897
   31HTM    S16 3866   3.392  -3.663   8.683 -0.3033 -0.1608  0.2137
   32TAL   C155 3867   3.381  -3.525   9.075 -0.4225 -0.1503  0.2166
   32TAL   C156 3868   3.233  -3.526   9.119 -1.1576 -0.0750  0.0959
   32TAL   C157 3869   3.219  -3.565   9.262 -0.5367  0.0922 -0.2320
   32TAL   C158 3870   3.095  -3.495   9.318  0.9318  0.1408 -0.7829
   32TAL   C159 3871   3.045  -3.540   9.452 -0.1454  1.1814  0.3886
   32TAL   C160 3872   2.972  -3.434   9.517  0.3748 -0.2680  0.2674
   33HTM   C161 3873   3.333  -3.814   8.902 -0.0266 -0.1131  0.0289
   33HTM   C162 3874   3.259  -3.908   8.836  0.4716 -0.0851 -0.5879
   33HTM   C163 3875   3.259  -4.037   8.899  0.2525 -0.2016 -0.8233
   33HTM   C164 3876   3.333  -4.042   9.013 -0.4126 -0.3185 -0.3861
   33HTM    S17 3877   3.409  -3.883   9.050 -0.8171 -0.2903  0.3630
   34TAL   C165 3878   3.206  -4.170   8.843  0.6813 -0.3386  0.3581
   34TAL   C166 3879   3.206  -4.182   8.690 -0.3957 -0.0609  0.1214
   34TAL   C167 3880   3.351  -4.203   8.656  0.1793 -0.0137  0.5069
   34TAL   C168 3881   3.391  -4.189   8.503 -0.0018  0.0644 -0.0602
   34TAL   C169 3882   3.440  -4.058   8.433 -0.9901  0.4193  0.0701
   34TAL   C170 3883   3.357  -3.931   8.426 -0.1600  0.4795  0.2762
   35HTM   C171 3884   3.373  -4.145   9.111 -0.0474  0.0814 -0.6983
   35HTM   C172 3885   3.463  -4.135   9.213  0.7424 -0.0286 -1.3559
   35HTM   C173 3886   3.453  -4.243   9.309  1.0689  0.1761 -1.0886
   35HTM   C174 3887   3.357  -4.334   9.279  0.5283  0.4420 -0.2273
   35HTM    S18 3888   3.270  -4.291   9.127 -0.4429  0.4549  0.3170
   36TAL   C175 3889   3.523  -4.240   9.441 -0.7486 -0.1666 -1.0619
   36TAL   C176 3890   3.649  -4.158   9.480  0.8939 -0.4591  0.1742
   36TAL   C177 3891   3.643  -4.179   9.622 -0.9073  0.3879 -1.5959
   36TAL   C178 3892   3.728  -4.300   9.668 -0.1719 -0.4760 -0.0968
   36TAL   C179 3893   3.761  -4.299   9.812  0.3223 -0.3836 -0.7906
   36TAL   C180 3894   3.664  -4.377   9.895  0.8997  0.9158 -0.0602
   37HTM   C181 3895   3.297  -4.441   9.358  0.2890  0.1701  0.0203
   37HTM   C182 3896   3.362  -4.549   9.411  0.5358  0.4158  0.2220
   37HTM   C183 3897   3.274  -4.645   9.472  0.7393  0.2357  0.2313
   37HTM   C184 3898   3.143  -4.611   9.466  0.6476 -0.1476  0.0374
   37HTM    S19 3899   3.119  -4.454   9.381  0.2944 -0.3120 -0.1745
   38TAL   C185 3900   3.327  -4.784   9.515  0.5673 -0.0243 -0.7598
   38TAL   C186 3901   3.432  -4.756   9.617 -0.8583  0.1717 -0.3087
   38TAL   C187 3902   3.514  -4.875   9.662 -0.5397  0.9508  0.8834
   38TAL   C188 3903   3.645  -4.852   9.735  0.8401 -0.4561 -0.6626
   38TAL   C189 3904   3.644  -4.837   9.891 -1.2295 -0.5165 -0.3952
   38TAL   C190 3905   3.574  -4.949   9.969 -0.4430  0.1531  0.0525
   39HTM   C191 3906   3.031  -4.663   9.545 -0.6050 -0.0795  0.4479
   39HTM   C192 3907   2.967  -4.594   9.643 -0.5148 -0.5362  0.8395
   39HTM   C193 3908   2.879  -4.675   9.723 -0.0845 -1.0034  0.8459
   39HTM   C194 3909   2.877  -4.807   9.687  0.1533 -0.9029  0.4593
   39HTM    S20 3910   2.987  -4.838   9.547 -0.1501 -0.2050  0.0540
   40TAL   C195 3911   2.794  -4.613   9.839 -0.9927  0.6406  0.3840
   40TAL   C196 3912   2.718  -4.487   9.825 -0.0006 -0.1942  0.0711
   40TAL   C197 3913   2.639  -4.483   9.694  0.1936 -0.0547 -0.5279
   40TAL   C198 3914   2.534  -4.372   9.668 -0.7020 -0.6567  1.6568
   40TAL   C199 3915   2.407  -4.350   9.754 -0.5729 -0.4942 -0.6360
   40TAL   C200 3916   2.357  -4.199   9.725 -0.5987  0.2423 -0.2212
   41HTM   C201 3917   2.795  -4.909   9.736  0.1876  0.0264 -0.0709
   41HTM   C202 3918   2.675  -4.910   9.800 -0.0141 -0.2534 -0.4485
   41HTM   C203 3919   2.632  -5.041   9.842  0.1892 -0.3458 -0.5255
   41HTM   C204 3920   2.720  -5.140   9.810  0.5459 -0.1362 -0.2070
   41HTM    S21 3921   2.865  -5.075   9.725  0.6535  0.1963  0.2186
   42TAL   C205 3922   2.506  -5.069   9.922  0.2320  0.2954 -0.3919
   42TAL   C206 3923   2.366  -5.092   9.850 -0.5789 -0.2441 -0.1682
   42TAL   C207 3924   2.313  -5.015   9.721 -0.6446  0.4800  0.1357
   42TAL   C208 3925   2.177  -5.053   9.661 -0.1743 -0.2570  0.0290
   42TAL   C209 3926   2.150  -5.197   9.611 -0.9561  0.8910 -0.3843
   42TAL   C210 3927   2.006  -5.207   9.577  0.2378 -0.9429 -0.3237
   43HTM   C211 3928   2.706  -5.282   9.822  0.1190  0.3106 -0.0357
   43HTM   C212 3929   2.605  -5.370   9.797 -0.2321  0.6093  0.2934
   43HTM   C213 3930   2.635  -5.505   9.838 -0.6251  0.5760  0.4765
   43HTM   C214 3931   2.758  -5.519   9.895 -0.5736  0.2521  0.2871
   43HTM    S22 3932   2.847  -5.362   9.900 -0.0206 -0.0387 -0.1406
   44TAL   C215 3933   2.531  -5.607   9.811  0.7780  0.9940 -0.7177
   44TAL   C216 3934   2.392  -5.575   9.871 -0.8097 -0.3562  0.3295
   44TAL   C217 3935   2.282  -5.683   9.849 -0.6231  0.2391 -0.6735
   44TAL   C218 3936   2.242  -5.758   9.976  0.3258  0.0738  0.1160
   44TAL   C219 3937   2.164  -5.891   9.959  0.6040 -0.6813  0.2040
   44TAL   C220 3938   2.120  -5.928  10.095 -0.3317 -0.6169 -0.2253
   45HTM   C221 3939   2.830  -5.647   9.925  0.1300 -0.1867  0.2454
   45HTM   C222 3940   2.789  -5.760   9.990  0.0723  0.0612  0.6507
   45HTM   C223 3941   2.889  -5.862   9.997 -0.1557 -0.1738  0.5270
   45HTM   C224 3942   3.007  -5.828   9.938 -0.2718 -0.6007  0.0273
   45HTM    S23 3943   3.000  -5.661   9.868 -0.1010 -0.7403 -0.3286
   46TAL   C225 3944   2.868  -6.003  10.047  0.7754 -0.1729  0.9081
   46TAL   C226 3945   2.732  -6.072  10.016  1.1441  0.5213 -0.4654
   46TAL   C227 3946   2.702  -6.093   9.872  0.4017 -0.3957 -0.6323
   46TAL   C228 3947   2.592  -6.188   9.842 -0.0566  0.3971 -0.7484
   46TAL   C229 3948   2.540  -6.187   9.699  0.5599 -0.5368 -0.4788
   46TAL   C230 3949   2.462  -6.054   9.657  0.0501 -0.1116 -0.3167
   47HTM   C231 3950   3.133  -5.901   9.946  0.1015 -0.3577  1.1543
   47HTM   C232 3951   3.236  -5.872  10.030  0.2053 -0.9372  1.2338
   47HTM   C233 3952   3.348  -5.961  10.017  0.0835 -1.0175  0.6736
   47HTM   C234 3953   3.331  -6.058   9.923 -0.1130 -0.4991  0.1670
   47HTM    S24 3954   3.171  -6.044   9.842 -0.1600  0.1356  0.3596
   48TAL   C235 3955   3.473  -5.949  10.108  0.5807 -0.4199 -0.0104
   48TAL   C236 3956   3.596  -6.038  10.089  0.5010 -0.7638  0.8740
   48TAL   C237 3957   3.599  -6.128  10.216  1.2224  0.3448  1.1538
   48TAL   C238 3958   3.658  -6.269  10.191 -1.1563  0.6317 -1.4627
   48TAL   C239 3959   3.582  -6.368  10.290 -0.2621  0.1220 -0.2999
   48TAL   C240 3960   3.622  -6.359  10.443 -0.3286  0.6861  0.2064
    1HTM     C1 3961   8.801   1.273   0.345 -0.3478  0.0779  0.1706
    1HTM     C2 3962   8.721   1.319   0.446  0.1550  0.6663  0.3189
    1HTM     C3 3963   8.637   1.430   0.408  0.1044  0.5687  0.1412
    1HTM     C4 3964   8.654   1.469   0.279 -0.4370 -0.0940 -0.1426
    1HTM     S1 3965   8.777   1.368   0.194 -0.9289 -0.6507 -0.2079
    2TAL     C5 3966   8.533   1.476   0.505  0.1239  0.2153 -0.1323
    2TAL     C6 3967   8.457   1.364   0.578  0.9627 -0.0661 -0.8980
    2TAL     C7 3968   8.300   1.357   0.546 -0.2646 -0.2811  0.8850
    2TAL     C8 3969   8.219   1.488   0.521  0.2538 -0.5034  0.0248
    2TAL     C9 3970   8.184   1.549   0.649  0.7978 -1.4400 -0.0557
    2TAL    C10 3971   8.085   1.474   0.745 -0.8226 -0.7221  0.2689
    3HTM    C11 3972   8.592   1.575   0.202 -0.0286 -0.4418 -0.2493
    3HTM    C12 3973   8.462   1.616   0.208 -0.1903 -0.9238 -0.3707
    3HTM    C13 3974   8.426   1.711   0.106 -0.4425 -1.0391 -0.3900
    3HTM    C14 3975   8.528   1.742   0.022 -0.4730 -0.6450 -0.2834
    3HTM     S2 3976   8.679   1.654   0.065 -0.1834 -0.0935 -0.1493
    4TAL    C15 3977   8.275   1.762   0.091  0.0056 -0.0828  1.2904
    4TAL    C16 3978   8.196   1.828   0.197 -0.1650  0.0003 -0.4335
    4TAL    C17 3979   8.074   1.905   0.150  0.4405  0.6663 -0.3717
    4TAL    C18 3980   7.958   1.931   0.255 -0.2050 -0.3958  0.4514
    4TAL    C19 3981   7.964   2.076   0.311  0.5911  0.9355 -0.0062
    4TAL    C20 3982   7.873   2.102   0.426 -0.9241  0.0191  0.4253
    5HTM    C21 3983   8.535   1.844  -0.091 -0.2114  0.2204  0.1394
    5HTM    C22 3984   8.653   1.866  -0.155 -0.1452  0.0654  0.2072
    5HTM    C23 3985   8.647   1.971  -0.254 -0.0255 -0.1263 -0.0045
    5HTM    C24 3986   8.524   2.028  -0.266 -0.0009 -0.1174 -0.2333
    5HTM     S3 3987   8.406   1.954  -0.152 -0.1271  0.1358 -0.1994
    6TAL    C25 3988   8.769   2.013  -0.327 -0.8919 -1.1435  0.1153
    6TAL    C26 3989   8.836   1.902  -0.420 -0.6019 -0.5842  1.0478
    6TAL    C27 3990   8.728   1.836  -0.510 -0.2899  0.0414  0.6350
    6TAL    C28 3991   8.795   1.736  -0.611  0.2541  0.3476 -0.6839
    6TAL    C29 3992   8.700   1.678  -0.707  0.4178  0.0839  0.4205
    6TAL    C30 3993   8.575   1.609  -0.657 -0.0244  0.1042  0.0311
    7HTM    C31 3994   8.481   2.114  -0.365 -0.0303 -0.5717 -0.4465
    7HTM    C32 3995   8.360   2.112  -0.427  0.0031 -0.4342 -0.5181
    7HTM    C33 3996   8.345   2.213  -0.528  0.0737 -0.2345 -0.3314
    7HTM    C34 3997   8.455   2.292  -0.544  0.0938 -0.2196 -0.1174
    7HTM     S4 3998   8.587   2.245  -0.430  0.0245 -0.4588 -0.1354
    8TAL    C35 3999   8.204   2.211  -0.573  0.1382 -0.8241 -0.3454
    8TAL    C36 4000   8.128   2.343  -0.584  0.3271 -0.0653 -0.0476
    8TAL    C37 4001   8.112   2.408  -0.448  0.7900 -0.6736 -0.4338
    8TAL    C38 4002   8.018   2.532  -0.440  1.1376  0.8705  0.1669
    8TAL    C39 4003   7.876   2.512  -0.523 -0.1753  0.0408 -0.8748
    8TAL    C40 4004   7.780   2.618  -0.479 -0.3142  0.5377  0.0600
    9HTM    C41 4005   8.497   2.381  -0.635  0.5588 -0.4276  0.4321
    9HTM    C42 4006   8.440   2.504  -0.651  0.4456 -0.3963  1.0073
    9HTM    C43 4007   8.511   2.588  -0.745 -0.2182 -0.2803  0.5968
    9HTM    C44 4008   8.621   2.529  -0.799 -0.6114 -0.2229 -0.2907
    9HTM     S5 4009   8.644   2.362  -0.737 -0.1701 -0.3118 -0.6800
   10TAL    C45 4010   8.452   2.728  -0.764  0.2428  0.1407 -0.7263
   10TAL    C46 4011   8.526   2.832  -0.677  0.1886  0.5621  0.4863
   10TAL    C47 4012   8.473   2.970  -0.704  0.1898 -1.6647 -0.4945
   10TAL    C48 4013   8.529   3.084  -0.620  0.8663  0.5748  0.1347
   10TAL    C49 4014   8.503   3.218  -0.676 -0.1487 -0.1172  0.3032
   10TAL    C50 4015   8.568   3.321  -0.600  0.2792 -0.5522 -0.5863
   11HTM    C51 4016   8.725   2.574  -0.892 -0.7895  0.0243  0.0983
   11HTM    C52 4017   8.781   2.695  -0.921 -1.1730  0.1985  0.0706
   11HTM    C53 4018   8.890   2.687  -1.014 -0.8619  0.4740  0.4094
   11HTM    C54 4019   8.918   2.560  -1.055 -0.2409  0.5099  0.6947
   11HTM     S6 4020   8.807   2.440  -0.980  0.0011  0.1960  0.5572
   12TAL    C55 4021   8.941   2.801  -1.084 -0.5825 -0.3253  0.8485
   12TAL    C56 4022   9.008   2.923  -1.023 -0.7113  0.6673 -1.7712
   12TAL    C57 4023   9.157   2.941  -1.023 -0.6106  0.0007  0.7462
   12TAL    C58 4024   9.247   2.904  -1.139  0.1955  0.0313 -0.1881
   12TAL    C59 4025   9.221   2.946  -1.279  0.3294  0.7715  0.1805
   12TAL    C60 4026   9.342   2.894  -1.370 -0.4140 -0.3079  0.3517
   13HTM    C61 4027   8.995   2.509  -1.167  0.2123  0.8794 -0.3243
   13HTM    C62 4028   9.123   2.535  -1.206  0.2286  0.5658 -0.4885
   13HTM    C63 4029   9.164   2.462  -1.323  0.0675  0.0839 -0.2513
   13HTM    C64 4030   9.068   2.380  -1.374 -0.0711  0.0300  0.0944
   13HTM     S7 4031   8.916   2.389  -1.277 -0.0093  0.5882  0.1469
   14TAL    C65 4032   9.297   2.480  -1.395 -0.1876  0.0793  0.0273
   14TAL    C66 4033   9.404   2.399  -1.319 -0.6861 -0.5687  0.1752
   14TAL    C67 4034   9.473   2.287  -1.394  1.1110 -0.0556  0.6973
   14TAL    C68 4035   9.594   2.230  -1.337  1.7301  0.3887 -0.0049
   14TAL    C69 4036   9.625   2.080  -1.370 -0.0122 -0.5940 -0.1665
   14TAL    C70 4037   9.766   2.056  -1.328  0.4358 -0.3199 -0.0046
   15HTM    C71 4038   9.075   2.295  -1.498  0.2179 -0.3223 -0.1061
   15HTM    C72 4039   9.159   2.189  -1.512  0.0443 -0.4516 -0.1712
   15HTM    C73 4040   9.163   2.136  -1.646 -0.0858 -0.4123 -0.1905
   15HTM    C74 4041   9.082   2.202  -1.734 -0.0113 -0.2533 -0.1404
   15HTM     S8 4042   8.993   2.337  -1.653  0.2303 -0.1396 -0.0641
   16TAL    C75 4043   9.257   2.021  -1.673  0.7947 -0.8477  0.9550
   16TAL    C76 4044   9.380   1.994  -1.598 -0.4173  0.0225  0.0843
   16TAL    C77 4045   9.454   1.866  -1.648 -0.1059 -0.4611 -0.3791
   16TAL    C78 4046   9.554   1.802  -1.547  0.9429  0.5742 -0.8690
   16TAL    C79 4047   9.629   1.681  -1.614 -0.1378  0.0772  0.9705
   16TAL    C80 4048   9.707   1.606  -1.510  0.2734 -0.6435  0.3080
   17HTM    C81 4049   9.052   2.182  -1.872 -0.5081 -0.7378  0.0362
   17HTM    C82 4050   9.145   2.161  -1.970 -0.4251 -0.7741  0.1224
   17HTM    C83 4051   9.092   2.172  -2.103 -0.2046 -0.3141  0.0682
   17HTM    C84 4052   8.959   2.201  -2.107 -0.1193  0.0729 -0.0594
   17HTM     S9 4053   8.890   2.216  -1.941 -0.3126 -0.1151 -0.1213
   18TAL    C85 4054   9.177   2.156  -2.229  0.0161  0.9518  0.1380
   18TAL    C86 4055   9.223   2.009  -2.218  1.4599  0.4272  0.0503
   18TAL    C87 4056   9.247   1.933  -2.351  0.4968 -0.3788  0.0255
   18TAL    C88 4057   9.113   1.873  -2.391  0.6888  0.4838  0.0699
   18TAL    C89 4058   9.104   1.823  -2.541 -0.3277  0.4254 -0.5672
   18TAL    C90 4059   9.084   1.928  -2.649  1.0879  0.7683 -0.1894
   19HTM    C91 4060   8.866   2.228  -2.212  0.0425 -0.3763  0.2003
   19HTM    C92 4061   8.807   2.347  -2.246  0.5152 -0.1443  0.1796
   19HTM    C93 4062   8.743   2.345  -2.374  0.6275  0.1364  0.1183
   19HTM    C94 4063   8.752   2.225  -2.439  0.2404  0.1184  0.0920
   19HTM    S10 4064   8.844   2.104  -2.341 -0.3000 -0.2576  0.1431
   20TAL    C95 4065   8.653   2.465  -2.419  0.3280 -0.5804  0.2503
   20TAL    C96 4066   8.710   2.590  -2.487 -0.3170  0.0049  0.4836
   20TAL    C97 4067   8.615   2.709  -2.508  0.1877 -0.2137  1.1122
   20TAL    C98 4068   8.661   2.805  -2.606 -0.3722  1.5562  0.6377
   20TAL    C99 4069   8.559   2.893  -2.682  0.4579 -0.1813  0.7749
   20TAL   C100 4070   8.563   2.875  -2.834  0.2028  0.2031  0.4302
   21HTM   C101 4071   8.714   2.189  -2.578  0.0463  0.4209  0.7040
   21HTM   C102 4072   8.789   2.194  -2.692  0.6328  0.1691  1.0729
   21HTM   C103 4073   8.713   2.174  -2.813  1.2236  0.0598  0.7125
   21HTM   C104 4074   8.580   2.154  -2.791  1.0876  0.2283  0.0688
   21HTM    S11 4075   8.540   2.159  -2.616  0.1959  0.5403 -0.1338
   22TAL   C105 4076   8.766   2.186  -2.953  0.3838 -1.2023 -0.0539
   22TAL   C106 4077   8.875   2.088  -2.999 -0.7410 -0.2243  0.7662
   22TAL   C107 4078   8.881   1.940  -2.958 -0.8781  0.0697  0.5536
   22TAL   C108 4079   8.765   1.850  -2.985 -0.4921  0.8793 -0.9942
   22TAL   C109 4080   8.770   1.701  -2.921 -0.1351 -0.1310  0.3735
   22TAL   C110 4081   8.804   1.678  -2.770  0.9984  0.3045 -0.3555
   23HTM   C111 4082   8.475   2.134  -2.889  0.0559 -0.2849  0.0413
   23HTM   C112 4083   8.430   2.236  -2.968  0.3521 -0.4825 -0.3911
   23HTM   C113 4084   8.303   2.209  -3.030  0.5114 -0.5754 -0.6803
   23HTM   C114 4085   8.251   2.086  -2.998  0.3363 -0.4485 -0.4683
   23HTM    S12 4086   8.360   1.995  -2.887 -0.0459 -0.2000  0.1174
   24TAL   C115 4087   8.238   2.326  -3.105  0.0577  0.2514 -0.1223
   24TAL   C116 4088   8.336   2.366  -3.220  0.9840  0.4878  0.5004
   24TAL   C117 4089   8.305   2.475  -3.314  1.2288 -0.7628  0.2422
   24TAL   C118 4090   8.172   2.476  -3.381  0.0519  0.3675  0.0347
   24TAL   C119 4091   8.136   2.379  -3.491 -0.5478  0.1681  0.1566
   24TAL   C120 4092   7.987   2.382  -3.538  0.2963 -0.3108  0.4016
   25HTM   C121 4093   8.127   2.021  -3.026  0.0646 -0.0697  0.6951
   25HTM   C122 4094   8.065   1.925  -2.952 -0.8156  0.4221  0.6284
   25HTM   C123 4095   7.927   1.905  -2.986 -0.7163  0.9449 -0.1326
   25HTM   C124 4096   7.883   1.985  -3.087  0.2396  0.8518 -0.6460
   25HTM    S13 4097   8.014   2.094  -3.147  1.0955  0.0908 -0.2047
   26TAL   C125 4098   7.870   1.788  -2.901 -0.1371 -0.1983 -0.2053
   26TAL   C126 4099   7.917   1.648  -2.937 -0.1361 -0.4974 -0.2462
   26TAL   C127 4100   7.897   1.537  -2.830 -0.1087  0.0134 -0.0461
   26TAL   C128 4101   7.918   1.394  -2.888  0.3818  0.5110  0.5703
   26TAL   C129 4102   7.877   1.295  -2.786 -0.1126  0.6474 -0.8363
   26TAL   C130 4103   7.867   1.158  -2.833 -0.2473  0.7786  0.7336
   27HTM   C131 4104   7.758   1.964  -3.158 -0.4212 -1.2737 -0.4776
   27HTM   C132 4105   7.641   1.914  -3.109 -0.4967 -1.8117 -1.1894
   27HTM   C133 4106   7.533   1.916  -3.204 -0.2846 -1.0413 -1.4274
   27HTM   C134 4107   7.567   1.968  -3.325 -0.0473  0.0841 -0.8973
   27HTM    S14 4108   7.740   2.020  -3.329 -0.0738  0.2596 -0.0497
   28TAL   C135 4109   7.394   1.848  -3.160 -0.7379 -0.3407 -0.0462
   28TAL   C136 4110   7.380   1.822  -3.017  0.0686 -0.2414 -0.4328
   28TAL   C137 4111   7.268   1.746  -2.958  0.6428 -0.3950 -0.2865
   28TAL   C138 4112   7.184   1.636  -3.032 -0.2153  0.6012 -1.0024
   28TAL   C139 4113   7.056   1.570  -2.966 -0.5442  0.4617 -0.4511
   28TAL   C140 4114   7.048   1.527  -2.825 -0.4101  0.7463  0.1418
   29HTM   C141 4115   7.487   2.003  -3.436 -0.0543 -0.1328  0.1075
   29HTM   C142 4116   7.497   2.114  -3.514 -0.1942  0.1841  0.5288
   29HTM   C143 4117   7.415   2.110  -3.632 -0.1729  0.5232  0.4988
   29HTM   C144 4118   7.342   1.995  -3.644 -0.0166  0.4650  0.0544
   29HTM    S15 4119   7.372   1.884  -3.506  0.1166 -0.0264 -0.3637
   30TAL   C145 4120   7.425   2.230  -3.728  0.0021 -0.3519 -0.1309
   30TAL   C146 4121   7.354   2.360  -3.688 -0.1738 -0.0231 -1.4203
   30TAL   C147 4122   7.370   2.487  -3.770 -0.6416 -0.3047  0.2211
   30TAL   C148 4123   7.362   2.466  -3.921 -0.2044  0.2360  0.6869
   30TAL   C149 4124   7.422   2.577  -4.012  1.1627  0.9440 -0.2943
   30TAL   C150 4125   7.420   2.521  -4.152 -0.5482 -0.3560 -0.0409
   31HTM   C151 4126   7.251   1.938  -3.736 -0.2185 -0.5556 -0.4645
   31HTM   C152 4127   7.214   1.807  -3.737 -0.3883 -0.5093 -1.0026
   31HTM   C153 4128   7.131   1.771  -3.850 -0.3453  0.0297 -1.2150
   31HTM   C154 4129   7.105   1.874  -3.934 -0.1428  0.3944 -0.8389
   31HTM    S16 4130   7.183   2.027  -3.878  0.0107  0.0830 -0.1821
   32TAL   C155 4131   7.077   1.632  -3.861 -0.4815  0.5058 -0.8031
   32TAL   C156 4132   7.101   1.567  -4.000 -0.2411 -0.7889  0.5843
   32TAL   C157 4133   7.022   1.445  -4.024 -0.9503 -0.0668  0.6658
   32TAL   C158 4134   7.073   1.308  -4.016  0.2490 -0.3001  0.1529
   32TAL   C159 4135   6.977   1.197  -4.043  0.2928 -0.4939 -0.3789
   32TAL   C160 4136   7.028   1.063  -4.005 -0.3325  0.7842 -0.3713
   33HTM   C161 4137   7.028   1.898  -4.047  0.1005  0.2682 -0.1175
   33HTM   C162 4138   7.056   1.858  -4.175  0.1072  0.0482 -0.0485
   33HTM   C163 4139   6.959   1.900  -4.272  0.1886  0.0090 -0.1473
   33HTM   C164 4140   6.855   1.971  -4.219  0.2440  0.1990 -0.2920
   33HTM    S17 4141   6.873   1.991  -4.040  0.1974  0.4442 -0.3147
   34TAL   C165 4142   6.976   1.839  -4.410  0.4787 -0.0109  0.2972
   34TAL   C166 4143   6.909   1.699  -4.451 -0.5549  0.3443 -0.6333
   34TAL   C167 4144   6.937   1.581  -4.359  0.0477 -0.3240 -1.2871
   34TAL   C168 4145   7.015   1.466  -4.407 -0.1414  0.3706 -0.1139
   34TAL   C169 4146   7.139   1.498  -4.488 -0.7083 -1.1214 -0.7641
   34TAL   C170 4147   7.220   1.378  -4.499  0.2604  0.5279  0.2326
   35HTM   C171 4148   6.732   1.993  -4.290  0.1686 -0.5401  0.3902
   35HTM   C172 4149   6.711   2.053  -4.411  0.4996 -0.6654  0.2679
   35HTM   C173 4150   6.572   2.073  -4.443  0.5929 -0.3972  0.0173
   35HTM   C174 4151   6.487   2.026  -4.348  0.3329 -0.0673 -0.0515
   35HTM    S18 4152   6.576   1.954  -4.208 -0.0529 -0.0699  0.1970
   36TAL   C175 4153   6.536   2.136  -4.571 -0.5753 -0.5688  0.7603
   36TAL   C176 4154   6.456   2.063  -4.674 -0.2319 -0.8511 -0.2202
   36TAL   C177 4155   6.378   2.130  -4.786 -0.1480 -0.5825  0.1974
   36TAL   C178 4156   6.271   2.046  -4.854 -0.5980  0.5409  0.6652
   36TAL   C179 4157   6.160   2.123  -4.916  0.0420  0.1351 -0.0932
   36TAL   C180 4158   6.058   2.022  -4.970 -0.4418  0.2156  0.4294
   37HTM   C181 4159   6.344   2.048  -4.323 -0.1789  0.2816 -0.1516
   37HTM   C182 4160   6.287   2.118  -4.221 -0.0495 -0.0572  0.1554
   37HTM   C183 4161   6.145   2.095  -4.208 -0.0345 -0.0936  0.2533
   37HTM   C184 4162   6.095   2.008  -4.300 -0.1525  0.2175  0.0207
   37HTM    S19 4163   6.223   1.948  -4.412 -0.2928  0.5833 -0.3428
   38TAL   C185 4164   6.054   2.167  -4.112  1.3886 -0.2106 -1.1504
   38TAL   C186 4165   6.101   2.300  -4.055 -0.1219  0.0353 -0.5513
   38TAL   C187 4166   5.997   2.417  -4.049 -0.3787 -0.2412  0.3412
   38TAL   C188 4167   5.982   2.501  -4.177 -0.1589 -0.8336 -1.6613
   38TAL   C189 4168   6.098   2.596  -4.222  0.6701  0.4830  0.5071
   38TAL   C190 4169   6.126   2.610  -4.375  0.0245 -0.2227  0.8295
   39HTM   C191 4170   5.969   1.943  -4.320  0.1792  0.4016  0.0039
   39HTM   C192 4171   5.885   1.884  -4.230  0.2328  0.3412  0.0153
   39HTM   C193 4172   5.759   1.844  -4.286  0.4213 -0.1499 -0.0706
   39HTM   C194 4173   5.747   1.873  -4.419  0.5114 -0.4641 -0.1471
   39HTM    S20 4174   5.895   1.952  -4.484  0.3640 -0.1617 -0.1166
   40TAL   C195 4175   5.655   1.776  -4.195  0.3331  0.4001  0.2637
   40TAL   C196 4176   5.554   1.882  -4.132  0.3235 -1.0852 -0.8702
   40TAL   C197 4177   5.436   1.812  -4.058  0.1049  0.0332  0.1332
   40TAL   C198 4178   5.320   1.762  -4.149 -0.2489 -0.4841 -0.3186
   40TAL   C199 4179   5.188   1.809  -4.107  0.3247 -0.8732 -0.2920
   40TAL   C200 4180   5.091   1.772  -4.214 -0.4142 -0.0936  0.2431
   41HTM   C201 4181   5.638   1.841  -4.510  0.1238  0.5144 -0.3849
   41HTM   C202 4182   5.651   1.801  -4.640 -0.1110  0.2785 -0.3366
   41HTM   C203 4183   5.526   1.772  -4.704 -0.1982 -0.2762  0.0781
   41HTM   C204 4184   5.417   1.789  -4.623 -0.0297 -0.4633  0.3465
   41HTM    S21 4185   5.466   1.844  -4.458  0.2540  0.0506  0.0936
   42TAL   C205 4186   5.504   1.735  -4.851 -0.0659 -0.6664 -0.8138
   42TAL   C206 4187   5.508   1.589  -4.882  0.5561  0.0110  1.3100
   42TAL   C207 4188   5.501   1.554  -5.033 -0.4632  0.3150 -0.7741
   42TAL   C208 4189   5.396   1.456  -5.104 -0.2029 -0.7218  0.2039
   42TAL   C209 4190   5.254   1.500  -5.109  0.2217 -0.1100 -0.3474
   42TAL   C210 4191   5.153   1.400  -5.030 -0.1660  0.0960 -0.0661
   43HTM   C211 4192   5.281   1.771  -4.648 -0.2092 -0.2086 -0.5842
   43HTM   C212 4193   5.198   1.854  -4.719 -0.1082 -0.2428 -0.7436
   43HTM   C213 4194   5.076   1.790  -4.762 -0.2499 -0.1416 -0.5007
   43HTM   C214 4195   5.066   1.659  -4.725 -0.4588 -0.0301 -0.1560
   43HTM    S22 4196   5.211   1.606  -4.631 -0.4930 -0.0444 -0.1113
   44TAL   C215 4197   4.963   1.868  -4.831 -0.3286  0.1883 -0.1874
   44TAL   C216 4198   4.868   1.965  -4.748  0.3571  0.3630 -0.7532
   44TAL   C217 4199   4.839   1.926  -4.597 -0.6491 -0.3907  0.4757
   44TAL   C218 4200   4.941   2.000  -4.498  0.0558 -0.0775 -0.4570
   44TAL   C219 4201   4.941   2.147  -4.469 -0.3587 -0.2945 -0.2070
   44TAL   C220 4202   4.818   2.194  -4.402  0.8193  1.1278  0.2349
   45HTM   C221 4203   4.949   1.575  -4.731 -0.5323  0.4778 -0.3893
   45HTM   C222 4204   4.899   1.500  -4.629 -0.8620  1.3338  0.1031
   45HTM   C223 4205   4.780   1.427  -4.664 -0.9440  1.3016  0.4433
   45HTM   C224 4206   4.740   1.446  -4.793 -0.6771  0.4211  0.2105
   45HTM    S23 4207   4.849   1.559  -4.880 -0.2980 -0.4424 -0.4619
   46TAL   C225 4208   4.709   1.337  -4.557 -0.1212  0.0738  0.4208
   46TAL   C226 4209   4.756   1.300  -4.414  0.6690 -0.1798  0.6893
   46TAL   C227 4210   4.899   1.256  -4.413  0.6469 -0.5981 -0.8578
   46TAL   C228 4211   4.933   1.115  -4.453 -0.4468  0.4003  0.8834
   46TAL   C229 4212   4.961   1.018  -4.338  0.1036  0.3988  0.5923
   46TAL   C230 4213   5.010   0.889  -4.401  1.0295  0.6548 -0.6801
   47HTM   C231 4214   4.643   1.369  -4.866 -0.2446 -0.4845  0.1909
   47HTM   C232 4215   4.663   1.340  -4.997  0.0743 -0.1042  0.1520
   47HTM   C233 4216   4.574   1.239  -5.049 -0.0613  0.3133 -0.4551
   47HTM   C234 4217   4.486   1.191  -4.956 -0.4837  0.2513 -0.8793
   47HTM    S24 4218   4.509   1.270  -4.796 -0.7449 -0.3439 -0.5422
   48TAL   C235 4219   4.580   1.179  -5.185 -0.4864 -0.0540  0.2085
   48TAL   C236 4220   4.570   1.229  -5.333  0.4795 -0.7134 -0.1605
   48TAL   C237 4221   4.635   1.370  -5.362  0.6752 -0.0558  0.4412
   48TAL   C238 4222   4.615   1.432  -5.495 -1.2124 -0.4315 -0.4361
   48TAL   C239 4223   4.635   1.583  -5.506 -0.0123  0.3558  0.6590
   48TAL   C240 4224   4.616   1.603  -5.652  0.6517  0.2357  1.0752
    1HTM     C1 4225   9.734   2.901   2.608  0.1772 -0.0260  0.3413
    1HTM     C2 4226   9.760   2.808   2.512 -0.6034 -0.0727  0.1584
    1HTM     C3 4227   9.802   2.681   2.566 -1.0488 -0.3340 -0.1041
    1HTM     C4 4228   9.807   2.678   2.702 -0.6083 -0.4867 -0.1214
    1HTM     S1 4229   9.760   2.836   2.774  0.4119 -0.3108  0.1950
    2TAL     C5 4230   9.832   2.556   2.486  0.1438 -0.3853  0.3095
    2TAL     C6 4231   9.727   2.525   2.371  1.2191 -0.4173 -0.2980
    2TAL     C7 4232   9.716   2.396   2.298 -0.1931 -0.5927  0.0600
    2TAL     C8 4233   9.753   2.262   2.366  0.1070  0.3492 -0.5829
    2TAL     C9 4234   9.682   2.226   2.497 -0.3288  0.1767 -0.2258
    2TAL    C10 4235   9.758   2.111   2.558 -0.2487  1.0908 -0.8720
    3HTM    C11 4236   9.853   2.583   2.805  0.2786  0.3920 -0.5751
    3HTM    C12 4237   9.911   2.460   2.798  0.3584  0.4343 -0.6540
    3HTM    C13 4238   9.956   2.410   2.925  0.1612  0.2713 -0.6484
    3HTM    C14 4239   9.932   2.494   3.029 -0.0689  0.1047 -0.5651
    3HTM     S2 4240   9.850   2.645   2.974 -0.0543  0.1410 -0.4868
    4TAL    C15 4241  10.015   2.268   2.929  0.3039  0.2813  0.4498
    4TAL    C16 4242  10.161   2.261   2.888  0.0143 -0.2363  0.1937
    4TAL    C17 4243  10.261   2.336   2.969  0.1477  0.0743 -0.3628
    4TAL    C18 4244  10.394   2.346   2.897  0.9301  0.5027  1.3499
    4TAL    C19 4245  10.497   2.416   2.954  0.1727 -0.4604 -1.0179
    4TAL    C20 4246  10.589   2.481   2.850  0.5267  0.4342  0.5117
    5HTM    C21 4247   9.972   2.487   3.163 -0.3639 -0.1610 -0.3852
    5HTM    C22 4248  10.041   2.587   3.226 -0.6020 -0.0185 -0.3505
    5HTM    C23 4249  10.060   2.564   3.367 -0.6364  0.0285 -0.3379
    5HTM    C24 4250  10.007   2.446   3.411 -0.4246 -0.0783 -0.3630
    5HTM     S3 4251   9.927   2.355   3.277 -0.1631 -0.2477 -0.4047
    6TAL    C25 4252  10.146   2.659   3.457  0.3650 -0.7344 -0.1727
    6TAL    C26 4253  10.243   2.759   3.398  0.2584  0.2862  0.6983
    6TAL    C27 4254  10.196   2.910   3.399 -0.1282  0.5653 -0.2316
    6TAL    C28 4255  10.306   2.982   3.332 -0.1780 -1.0207  0.8886
    6TAL    C29 4256  10.327   3.129   3.364 -0.0726  0.2529  1.0487
    6TAL    C30 4257  10.205   3.215   3.330  0.2863 -0.7066  0.2835
    7HTM    C31 4258  10.014   2.391   3.548  0.2922 -0.0467 -0.0517
    7HTM    C32 4259  10.061   2.454   3.658 -0.1477 -0.0036  0.1159
    7HTM    C33 4260  10.056   2.374   3.778 -0.9283  0.1574  0.1995
    7HTM    C34 4261  10.004   2.250   3.758 -1.0836  0.2371  0.0954
    7HTM     S4 4262   9.958   2.223   3.586 -0.2495  0.1142 -0.1177
    8TAL    C35 4263  10.101   2.435   3.911 -0.2401 -0.4203  1.0582
    8TAL    C36 4264   9.997   2.517   3.995  0.0934 -0.7774 -0.2304
    8TAL    C37 4265   9.930   2.647   3.924 -0.2897 -0.2438 -1.0758
    8TAL    C38 4266   9.799   2.660   3.851 -0.2780 -0.3953 -0.6186
    8TAL    C39 4267   9.687   2.565   3.894  0.1757 -0.3767 -0.3708
    8TAL    C40 4268   9.626   2.582   4.039 -0.3091 -0.4614  0.0008
    9HTM    C41 4269   9.985   2.143   3.853  0.1732  0.0281 -0.2844
    9HTM    C42 4270  10.071   2.037   3.862  0.4598  0.2828  0.0439
    9HTM    C43 4271  10.045   1.950   3.973  0.5213  0.4036  0.1535
    9HTM    C44 4272   9.939   1.989   4.050  0.2816  0.2410 -0.0913
    9HTM     S5 4273   9.863   2.140   3.987 -0.0429 -0.0798 -0.4825
   10TAL    C45 4274  10.123   1.812   3.993  1.1698  0.1360 -0.4616
   10TAL    C46 4275  10.268   1.780   4.024 -0.0104  0.2999  0.7483
   10TAL    C47 4276  10.321   1.840   4.151 -0.9215  0.3462  0.6216
   10TAL    C48 4277  10.444   1.777   4.220 -0.1652 -0.1782 -0.3665
   10TAL    C49 4278  10.436   1.794   4.374  0.1533 -0.4783 -0.3853
   10TAL    C50 4279  10.315   1.730   4.449  0.2613  0.3625  1.1748
   11HTM    C51 4280   9.871   1.925   4.162 -0.3330  0.0068 -0.0845
   11HTM    C52 4281   9.754   1.972   4.215 -0.2875 -0.3656  0.3575
   11HTM    C53 4282   9.701   1.889   4.320  0.2520 -0.6610  0.4055
   11HTM    C54 4283   9.777   1.779   4.347  0.6179 -0.5139  0.0003
   11HTM     S6 4284   9.923   1.772   4.241  0.3070  0.0132 -0.4772
   12TAL    C55 4285   9.583   1.939   4.412  0.1722  0.6887  0.3814
   12TAL    C56 4286   9.497   2.057   4.363 -1.4848 -0.1139  0.4866
   12TAL    C57 4287   9.441   2.131   4.482  0.1887 -0.8303  0.2898
   12TAL    C58 4288   9.309   2.080   4.557  0.6732  0.4071 -0.0806
   12TAL    C59 4289   9.330   1.937   4.603  0.7687 -0.7419 -0.7596
   12TAL    C60 4290   9.195   1.855   4.626 -0.6829  0.0571 -0.5165
   13HTM    C61 4291   9.766   1.683   4.452  0.1626  0.3099  0.9474
   13HTM    C62 4292   9.855   1.634   4.542 -0.2105  0.4964  1.4244
   13HTM    C63 4293   9.802   1.530   4.625 -0.4066  0.3138  1.0738
   13HTM    C64 4294   9.672   1.498   4.598 -0.1832 -0.0118  0.3295
   13HTM     S7 4295   9.606   1.600   4.464  0.2963 -0.1140  0.0112
   14TAL    C65 4296   9.903   1.448   4.716 -0.5992 -0.0271 -0.6995
   14TAL    C66 4297   9.972   1.515   4.833  0.2522  0.0224  0.2728
   14TAL    C67 4298  10.097   1.598   4.811  0.4954  0.3369  0.3153
   14TAL    C68 4299  10.129   1.674   4.939 -0.1492 -0.0753 -0.4728
   14TAL    C69 4300  10.269   1.656   4.998  0.2266 -0.0709  0.0677
   14TAL    C70 4301  10.392   1.657   4.904 -0.7517  0.3847 -0.3090
   15HTM    C71 4302   9.589   1.402   4.654 -0.1122  0.1558 -0.5110
   15HTM    C72 4303   9.481   1.429   4.734 -0.0939  0.2919 -0.5319
   15HTM    C73 4304   9.427   1.312   4.799  0.0925  0.4441 -0.0994
   15HTM    C74 4305   9.494   1.197   4.770  0.2163  0.4241  0.2512
   15HTM     S8 4306   9.631   1.226   4.656  0.1064  0.2097  0.0611
   16TAL    C75 4307   9.287   1.314   4.867  0.2433 -0.2050 -0.2480
   16TAL    C76 4308   9.276   1.435   4.968  0.5653  0.0244  0.2317
   16TAL    C77 4309   9.167   1.422   5.068  0.1851 -0.6085  0.6039
   16TAL    C78 4310   9.184   1.521   5.175  0.4098  0.0490 -0.2430
   16TAL    C79 4311   9.083   1.636   5.175  0.4707 -0.0801  1.1162
   16TAL    C80 4312   9.094   1.734   5.057  0.1124 -0.6017  0.2931
   17HTM    C81 4313   9.461   1.055   4.795 -0.3223  0.7198  0.3631
   17HTM    C82 4314   9.506   0.988   4.904 -0.6070  1.0052  0.6638
   17HTM    C83 4315   9.436   0.864   4.930 -0.4609  0.9108  0.6109
   17HTM    C84 4316   9.337   0.838   4.840 -0.0650  0.5533  0.2699
   17HTM     S9 4317   9.325   0.968   4.715  0.1564  0.3063 -0.0130
   18TAL    C85 4318   9.477   0.761   5.033  0.8704  0.6167 -0.5304
   18TAL    C86 4319   9.357   0.750   5.142 -1.1637 -0.1672 -0.1262
   18TAL    C87 4320   9.402   0.680   5.267  0.7490 -0.9807 -0.1254
   18TAL    C88 4321   9.466   0.540   5.257  0.5261 -0.1332 -1.1257
   18TAL    C89 4322   9.384   0.420   5.230 -0.5360 -0.1831  0.5242
   18TAL    C90 4323   9.465   0.283   5.211  0.4965 -1.2878 -0.5715
   19HTM    C91 4324   9.252   0.718   4.814  0.4844  0.1034 -0.9356
   19HTM    C92 4325   9.286   0.587   4.795  0.4139  0.1601 -1.4886
   19HTM    C93 4326   9.178   0.505   4.747  0.1168  0.2387 -0.9631
   19HTM    C94 4327   9.061   0.573   4.730 -0.0390  0.2418 -0.0096
   19HTM    S10 4328   9.079   0.748   4.772  0.1789  0.1450  0.3013
   20TAL    C95 4329   9.203   0.354   4.711 -0.4393 -0.2880 -0.2542
   20TAL    C96 4330   9.249   0.288   4.847 -0.1318 -0.3635  0.8951
   20TAL    C97 4331   9.295   0.144   4.808  0.7742  0.1507 -0.0187
   20TAL    C98 4332   9.310   0.039   4.919 -0.3522 -0.7729  1.3269
   20TAL    C99 4333   9.183   0.008   4.998 -0.7187 -0.2738 -0.1201
   20TAL   C100 4334   9.233  -0.027   5.136  0.0019  0.2126 -0.1263
   21HTM   C101 4335   8.927   0.530   4.698  0.3103  0.0504  0.7988
   21HTM   C102 4336   8.898   0.414   4.632  0.9780  0.1647  0.2836
   21HTM   C103 4337   8.757   0.395   4.608  1.1499 -0.1337 -0.5739
   21HTM   C104 4338   8.679   0.495   4.657  0.6128 -0.4755 -0.7125
   21HTM    S11 4339   8.777   0.624   4.736 -0.1569 -0.4468  0.2364
   22TAL   C105 4340   8.696   0.269   4.550 -0.0340 -1.0740 -0.0584
   22TAL   C106 4341   8.752   0.129   4.581 -0.6243 -0.7527 -0.0932
   22TAL   C107 4342   8.883   0.069   4.521 -0.1017 -0.2545 -0.2300
   22TAL   C108 4343   8.904  -0.069   4.581  0.4745 -0.1085 -0.0222
   22TAL   C109 4344   9.045  -0.120   4.542 -0.5729  0.1018 -0.8601
   22TAL   C110 4345   9.089  -0.217   4.653 -1.2402 -0.4864  0.3157
   23HTM   C111 4346   8.541   0.523   4.673 -0.6004 -0.0484  0.2654
   23HTM   C112 4347   8.476   0.575   4.781 -0.9961 -0.2678  0.1380
   23HTM   C113 4348   8.335   0.593   4.761 -0.9327 -0.2634 -0.3257
   23HTM   C114 4349   8.292   0.556   4.637 -0.4887 -0.0406 -0.5521
   23HTM    S12 4350   8.427   0.494   4.536 -0.1131  0.1826 -0.1941
   24TAL   C115 4351   8.238   0.621   4.879 -0.3694  0.3377 -0.4940
   24TAL   C116 4352   8.281   0.664   5.028 -0.5956  0.6074  0.5247
   24TAL   C117 4353   8.161   0.757   5.070 -0.3605  0.7428  0.1804
   24TAL   C118 4354   8.141   0.898   5.017  0.4141 -0.5622  0.0940
   24TAL   C119 4355   8.077   0.975   5.128  0.7743 -0.5075  0.4576
   24TAL   C120 4356   8.107   1.131   5.132  0.8455  0.2005 -0.3007
   25HTM   C121 4357   8.162   0.554   4.581  0.1767 -0.1944 -0.3865
   25HTM   C122 4358   8.098   0.460   4.507  0.1981 -0.2215 -0.3703
   25HTM   C123 4359   7.973   0.505   4.451 -0.0226 -0.3952 -0.0244
   25HTM   C124 4360   7.942   0.634   4.483 -0.2125 -0.5005  0.2231
   25HTM    S13 4361   8.069   0.709   4.587 -0.1261 -0.3876  0.0373
   26TAL   C125 4362   7.894   0.413   4.357  0.0069 -0.0860 -0.3544
   26TAL   C126 4363   7.756   0.353   4.412 -0.1564  0.1313  0.4957
   26TAL   C127 4364   7.721   0.213   4.349  0.1860  0.9012 -0.0469
   26TAL   C128 4365   7.739   0.199   4.198 -0.5353  0.0707  0.2222
   26TAL   C129 4366   7.692   0.071   4.138 -0.0164 -1.0902  0.2010
   26TAL   C130 4367   7.700   0.085   3.991  0.1482  0.1589  0.5439
   27HTM   C131 4368   7.839   0.727   4.447  0.5002 -0.1694 -0.1132
   27HTM   C132 4369   7.761   0.724   4.335  0.9822 -0.2657 -0.4507
   27HTM   C133 4370   7.676   0.840   4.321  0.9151 -0.3581 -0.8310
   27HTM   C134 4371   7.688   0.929   4.423  0.3817 -0.3323 -0.7836
   27HTM    S14 4372   7.810   0.875   4.545 -0.0806 -0.1881 -0.2508
   28TAL   C135 4373   7.594   0.832   4.195 -0.6893 -0.1541 -0.9632
   28TAL   C136 4374   7.456   0.881   4.213  0.1264 -0.2689 -0.0696
   28TAL   C137 4375   7.339   0.809   4.145 -0.4498  0.3694 -0.1583
   28TAL   C138 4376   7.207   0.861   4.189 -0.0354 -0.5874  0.0626
   28TAL   C139 4377   7.082   0.834   4.106 -0.3388  0.3198 -0.7931
   28TAL   C140 4378   7.028   0.695   4.088 -0.0078  0.2165 -0.0491
   29HTM   C141 4379   7.630   1.059   4.449  0.1249 -0.1542  0.1725
   29HTM   C142 4380   7.540   1.090   4.546 -0.1174 -0.4511  0.0498
   29HTM   C143 4381   7.493   1.226   4.540 -0.6673 -0.6412 -0.0951
   29HTM   C144 4382   7.547   1.298   4.438 -0.8442 -0.4891 -0.0829
   29HTM    S15 4383   7.662   1.199   4.340 -0.3261 -0.0910  0.1141
   30TAL   C145 4384   7.388   1.292   4.640 -0.7622  0.9967 -0.1346
   30TAL   C146 4385   7.381   1.241   4.789 -0.0415  0.4076  0.0300
   30TAL   C147 4386   7.247   1.285   4.868 -0.4015  1.4623 -0.2617
   30TAL   C148 4387   7.120   1.227   4.805  0.1510  0.3220  0.4379
   30TAL   C149 4388   6.983   1.275   4.855  1.0265 -0.0165 -0.6113
   30TAL   C150 4389   6.944   1.425   4.832 -0.3590 -0.3621 -1.1590
   31HTM   C151 4390   7.511   1.432   4.393 -0.2909  0.0755 -0.1626
   31HTM   C152 4391   7.507   1.467   4.261 -0.3558  0.0595 -0.1650
   31HTM   C153 4392   7.464   1.603   4.239 -0.1262  0.1359 -0.1462
   31HTM   C154 4393   7.436   1.671   4.353  0.1138  0.2102 -0.1295
   31HTM    S16 4394   7.461   1.569   4.499  0.0682  0.1892 -0.1362
   32TAL   C155 4395   7.467   1.664   4.103 -0.5709  0.2708 -1.0797
   32TAL   C156 4396   7.395   1.605   3.980  0.8589  0.2721  0.4607
   32TAL   C157 4397   7.248   1.587   4.003 -0.0027  0.2246  0.8374
   32TAL   C158 4398   7.170   1.584   3.869 -1.3105  0.3261 -0.5175
   32TAL   C159 4399   7.021   1.598   3.880  0.0967  0.1690 -1.1112
   32TAL   C160 4400   6.948   1.549   3.765  0.6978 -0.2624 -0.3135
   33HTM   C161 4401   7.395   1.805   4.371  0.7097 -0.1738 -0.1995
   33HTM   C162 4402   7.460   1.895   4.451  0.8725 -0.3993 -0.0750
   33HTM   C163 4403   7.421   2.032   4.428  0.6167 -0.3556  0.5877
   33HTM   C164 4404   7.326   2.046   4.331  0.2587 -0.0967  0.9680
   33HTM    S17 4405   7.279   1.887   4.261  0.2169  0.1135  0.5155
   34TAL   C165 4406   7.453   2.146   4.521 -0.4647 -0.7002  0.4501
   34TAL   C166 4407   7.602   2.137   4.557  0.0094 -0.7677  0.1750
   34TAL   C167 4408   7.712   2.174   4.458 -0.5363 -0.0520 -0.6182
   34TAL   C168 4409   7.702   2.321   4.403 -0.3553 -1.1459 -0.4006
   34TAL   C169 4410   7.786   2.410   4.496  0.2362 -0.9055 -0.4476
   34TAL   C170 4411   7.739   2.496   4.616  0.6382 -0.7222  0.2158
   35HTM   C171 4412   7.243   2.153   4.279  0.0907  0.3884  0.0635
   35HTM   C172 4413   7.115   2.183   4.313  0.1500  0.4037  0.2759
   35HTM   C173 4414   7.055   2.285   4.231 -0.0774  0.1879  0.1723
   35HTM   C174 4415   7.138   2.333   4.134 -0.3098  0.0080 -0.1189
   35HTM    S18 4416   7.299   2.253   4.139 -0.2596  0.0980 -0.2861
   36TAL   C175 4417   6.915   2.338   4.266 -0.4941 -1.0726  0.0668
   36TAL   C176 4418   6.897   2.387   4.403  2.0392 -0.1792 -0.5048
   36TAL   C177 4419   6.740   2.401   4.431 -0.4274 -0.4158  1.2076
   36TAL   C178 4420   6.689   2.332   4.552  0.2654 -0.9485  0.0697
   36TAL   C179 4421   6.720   2.183   4.562  0.1156 -0.3215 -0.1799
   36TAL   C180 4422   6.650   2.120   4.689 -0.1838  0.3717  0.0816
   37HTM   C181 4423   7.124   2.431   4.029 -0.3283  0.1957 -0.3241
   37HTM   C182 4424   7.228   2.497   3.972 -0.4946  0.9320  0.1926
   37HTM   C183 4425   7.189   2.606   3.886 -0.7919  1.2036  0.6635
   37HTM   C184 4426   7.054   2.622   3.878 -0.8520  0.6744  0.5059
   37HTM    S19 4427   6.965   2.501   3.979 -0.5354 -0.2149 -0.2554
   38TAL   C185 4428   7.298   2.698   3.822  0.2076  0.9550 -0.0952
   38TAL   C186 4429   7.444   2.638   3.807 -0.0809 -0.6234  0.7591
   38TAL   C187 4430   7.556   2.735   3.762  0.3162 -0.1649  0.5020
   38TAL   C188 4431   7.587   2.856   3.843  0.1466  0.8598  0.2274
   38TAL   C189 4432   7.709   2.934   3.805  0.5953  0.6269 -0.7857
   38TAL   C190 4433   7.840   2.858   3.782 -0.6021 -0.0415 -0.7427
   39HTM   C191 4434   6.993   2.729   3.806 -0.1425 -0.6167  0.5109
   39HTM   C192 4435   7.010   2.863   3.828  0.2847 -0.6824  0.5993
   39HTM   C193 4436   6.935   2.946   3.738  0.7854 -0.3750  0.4566
   39HTM   C194 4437   6.860   2.876   3.647  0.7399 -0.0751  0.2595
   39HTM    S20 4438   6.880   2.698   3.669  0.0559 -0.1582  0.2386
   40TAL   C195 4439   6.939   3.097   3.752  0.7680 -0.3801 -0.5451
   40TAL   C196 4440   7.060   3.186   3.721  0.1694 -0.0351 -0.3874
   40TAL   C197 4441   7.042   3.329   3.779 -0.3555 -0.0809  0.4849
   40TAL   C198 4442   7.135   3.354   3.911 -0.7895  0.9968 -0.4842
   40TAL   C199 4443   7.293   3.362   3.910  1.0480 -1.8454 -0.1756
   40TAL   C200 4444   7.338   3.512   3.894 -0.0804  0.3287  0.1468
   41HTM   C201 4445   6.759   2.942   3.561  0.0096  0.1801 -0.2791
   41HTM   C202 4446   6.623   2.935   3.571  0.0470  0.0077  0.1172
   41HTM   C203 4447   6.553   2.992   3.460 -0.3551  0.0117  0.3675
   41HTM   C204 4448   6.635   3.044   3.364 -0.6991  0.1873  0.1620
   41HTM    S21 4449   6.809   3.023   3.408 -0.5408  0.3623 -0.3676
   42TAL   C205 4450   6.404   2.993   3.459  0.4437 -0.6562  0.6403
   42TAL   C206 4451   6.334   2.879   3.507  0.0921  0.8976 -0.4191
   42TAL   C207 4452   6.206   2.928   3.571  0.4871  0.9905 -1.1629
   42TAL   C208 4453   6.131   2.808   3.651  0.0449 -0.5810 -0.7202
   42TAL   C209 4454   6.030   2.857   3.755  0.4256 -0.1287 -0.1139
   42TAL   C210 4455   5.976   2.733   3.823 -1.1839 -0.0884 -0.1230
   43HTM   C211 4456   6.612   3.111   3.233  0.2216 -0.3384  0.2220
   43HTM   C212 4457   6.549   3.057   3.125  0.0763 -0.3612  0.3174
   43HTM   C213 4458   6.529   3.150   3.016 -0.2471 -0.3320  0.4009
   43HTM   C214 4459   6.576   3.275   3.042 -0.3486 -0.2870  0.3693
   43HTM    S22 4460   6.651   3.286   3.206 -0.0410 -0.2780  0.2305
   44TAL   C215 4461   6.467   3.118   2.884  0.4545  0.2795  0.1039
   44TAL   C216 4462   6.337   3.028   2.895 -0.9722 -0.3751 -0.0443
   44TAL   C217 4463   6.274   2.979   2.764 -1.0013 -0.2962 -0.5645
   44TAL   C218 4464   6.144   2.908   2.781 -0.2975  0.1458 -0.2197
   44TAL   C219 4465   6.123   2.784   2.866 -0.3500  0.0221 -0.5729
   44TAL   C220 4466   5.972   2.759   2.878  0.2885 -0.1410  0.7324
   45HTM   C221 4467   6.598   3.391   2.946  0.1732 -0.0884 -0.4186
   45HTM   C222 4468   6.560   3.403   2.816  0.6315  0.1087 -0.5385
   45HTM   C223 4469   6.578   3.536   2.763  0.6533  0.2346 -0.2211
   45HTM   C224 4470   6.629   3.624   2.853  0.2117  0.1335  0.1408
   45HTM    S23 4471   6.660   3.547   3.013 -0.2700 -0.1306  0.1084
   46TAL   C225 4472   6.529   3.571   2.618  0.3232  0.6467 -0.3131
   46TAL   C226 4473   6.533   3.467   2.506  0.6003  0.2201  0.3710
   46TAL   C227 4474   6.507   3.504   2.353  0.8680  0.6623 -0.5172
   46TAL   C228 4475   6.392   3.592   2.292 -0.0734 -0.3242 -0.7348
   46TAL   C229 4476   6.367   3.728   2.353 -0.0851 -0.1006 -1.3206
   46TAL   C230 4477   6.456   3.843   2.323 -0.3280 -0.8586 -0.3801
   47HTM   C231 4478   6.640   3.768   2.833 -0.2753  0.1969 -0.1565
   47HTM   C232 4479   6.595   3.862   2.921  0.0577  0.2314 -0.0213
   47HTM   C233 4480   6.609   3.997   2.872  0.6286  0.2662  0.2139
   47HTM   C234 4481   6.663   4.005   2.748  0.7308  0.2583  0.2578
   47HTM    S24 4482   6.702   3.842   2.682  0.1091  0.2057  0.0038
   48TAL   C235 4483   6.558   4.117   2.958 -0.0130  0.4038 -0.0577
   48TAL   C236 4484   6.431   4.096   3.052  0.2819 -0.1030 -0.5987
   48TAL   C237 4485   6.391   4.246   3.102 -0.1130 -0.4600  0.4370
   48TAL   C238 4486   6.243   4.281   3.153  1.1287  0.7093 -0.8058
   48TAL   C239 4487   6.130   4.198   3.100  0.9641 -0.1991 -0.6976
   48TAL   C240 4488   6.005   4.265   3.162 -0.0942 -0.6283 -0.9845
    1HTM     C1 4489   9.549   3.232   8.671 -0.1474  0.2583 -0.0757
    1HTM     C2 4490   9.440   3.301   8.629  0.0427  0.3892 -0.3591
    1HTM     C3 4491   9.423   3.300   8.486  0.3121  0.2593 -0.3920
    1HTM     C4 4492   9.519   3.231   8.419  0.3273  0.0293 -0.1337
    1HTM     S1 4493   9.640   3.160   8.533  0.0003 -0.0415  0.1736
    2TAL     C5 4494   9.316   3.386   8.418  0.7812  0.4507  0.0809
    2TAL     C6 4495   9.165   3.347   8.423 -0.8738 -0.7362 -0.3576
    2TAL     C7 4496   9.106   3.413   8.531  0.6618 -1.1980 -1.4660
    2TAL     C8 4497   8.952   3.385   8.529  0.1291 -0.4231 -0.8227
    2TAL     C9 4498   8.873   3.458   8.644  0.9554  0.2188 -0.3830
    2TAL    C10 4499   8.922   3.445   8.783  0.3095 -0.0181 -0.6955
    3HTM    C11 4500   9.537   3.200   8.282  0.4747  0.5681  0.4937
    3HTM    C12 4501   9.626   3.106   8.237  0.5600  0.4902  0.8111
    3HTM    C13 4502   9.613   3.079   8.096  0.5400 -0.0506  0.9141
    3HTM    C14 4503   9.516   3.151   8.034  0.4401 -0.3852  0.6744
    3HTM     S2 4504   9.431   3.261   8.150  0.3623 -0.0404  0.2974
    4TAL    C15 4505   9.703   2.969   8.029  0.2385 -0.3140  0.1965
    4TAL    C16 4506   9.689   2.821   8.053  0.2343 -0.2081  0.0244
    4TAL    C17 4507   9.545   2.758   8.046 -0.3465  0.1727 -0.9780
    4TAL    C18 4508   9.514   2.606   8.071 -0.6820 -0.1768 -0.1492
    4TAL    C19 4509   9.607   2.525   7.990 -0.6327 -0.5471 -1.6095
    4TAL    C20 4510   9.576   2.374   8.002 -0.1517 -0.3962  0.5432
    5HTM    C21 4511   9.453   3.154   7.891  0.1795  0.2698  0.0087
    5HTM    C22 4512   9.365   3.252   7.855  0.2527  0.2906 -0.1121
    5HTM    C23 4513   9.339   3.256   7.713  0.2780  0.1526 -0.1214
    5HTM    C24 4514   9.408   3.162   7.642  0.2243  0.0266 -0.0077
    5HTM     S3 4515   9.511   3.060   7.749  0.1371  0.0727  0.1208
    6TAL    C25 4516   9.269   3.370   7.668  0.0417 -0.9290  0.5514
    6TAL    C26 4517   9.116   3.351   7.667  0.0777 -0.9199 -0.9235
    6TAL    C27 4518   9.030   3.479   7.646 -0.0751 -0.2781 -0.5290
    6TAL    C28 4519   9.051   3.554   7.507  1.0625  0.5446 -0.4467
    6TAL    C29 4520   8.933   3.641   7.478  0.8283 -0.5149 -0.5044
    6TAL    C30 4521   8.785   3.598   7.443  0.2145 -1.3274 -0.3125
    7HTM    C31 4522   9.387   3.115   7.501 -0.7535 -0.0903  0.6768
    7HTM    C32 4523   9.436   2.997   7.453 -0.4833 -0.1000  0.9700
    7HTM    C33 4524   9.392   2.966   7.320  0.3889 -0.0537  0.6586
    7HTM    C34 4525   9.310   3.060   7.265  0.7835 -0.0088  0.1279
    7HTM     S4 4526   9.282   3.197   7.379  0.0789 -0.0214 -0.0208
    8TAL    C35 4527   9.448   2.851   7.233  0.7648  0.4773 -0.1239
    8TAL    C36 4528   9.589   2.797   7.264  0.0217 -0.9145 -0.0065
    8TAL    C37 4529   9.661   2.699   7.174 -0.1664  0.3647  0.1546
    8TAL    C38 4530   9.587   2.568   7.151  0.8228  0.3545 -0.5737
    8TAL    C39 4531   9.620   2.480   7.029 -1.3120  1.0876 -0.7206
    8TAL    C40 4532   9.590   2.518   6.893  0.2540 -0.6323  0.3566
    9HTM    C41 4533   9.240   3.046   7.141  0.0460  0.5446 -0.2105
    9HTM    C42 4534   9.110   3.087   7.134  0.1094  0.6617 -0.7548
    9HTM    C43 4535   9.047   3.058   7.008  0.5276  0.4728 -0.9247
    9HTM    C44 4536   9.129   2.995   6.919  0.7834  0.2116 -0.5099
    9HTM     S5 4537   9.293   2.966   6.988  0.5138  0.1838  0.1325
   10TAL    C45 4538   8.904   3.087   6.984  0.0846 -1.4217 -0.5246
   10TAL    C46 4539   8.851   3.224   7.023 -0.8574  0.1382 -0.1805
   10TAL    C47 4540   8.721   3.247   6.951 -0.7109 -0.7013  0.3147
   10TAL    C48 4541   8.611   3.338   7.022  0.3302 -0.5185  0.4936
   10TAL    C49 4542   8.586   3.320   7.180 -0.3729  0.6017  0.2715
   10TAL    C50 4543   8.552   3.186   7.241 -0.5609 -0.2658  0.6061
   11HTM    C51 4544   9.097   2.989   6.777 -0.4126  0.5610 -0.3113
   11HTM    C52 4545   9.166   3.056   6.681 -0.7837  0.7488 -0.4511
   11HTM    C53 4546   9.108   3.044   6.549 -1.0674  0.6717 -0.3204
   11HTM    C54 4547   8.995   2.968   6.546 -0.9123  0.4251 -0.0809
   11HTM     S6 4548   8.952   2.905   6.710 -0.3922  0.2699 -0.0017
   12TAL    C55 4549   9.203   3.081   6.438 -0.5480  0.1709  0.6430
   12TAL    C56 4550   9.350   3.042   6.435 -0.7241  0.0943 -0.1861
   12TAL    C57 4551   9.375   2.888   6.453 -0.3703 -0.1877  0.7958
   12TAL    C58 4552   9.523   2.852   6.450  0.4404 -0.2232 -0.7100
   12TAL    C59 4553   9.551   2.706   6.494 -0.4764 -0.2134 -0.3967
   12TAL    C60 4554   9.702   2.699   6.514  0.0845  0.2219 -0.2803
   13HTM    C61 4555   8.909   2.940   6.434  0.6052  0.8688 -0.0153
   13HTM    C62 4556   8.775   2.962   6.426  0.6707  1.4670  0.3284
   13HTM    C63 4557   8.718   2.924   6.299  0.1135  1.3368  0.6118
   13HTM    C64 4558   8.809   2.874   6.211 -0.3772  0.6392  0.4839
   13HTM     S7 4559   8.975   2.871   6.281 -0.1719  0.0884 -0.0078
   14TAL    C65 4560   8.563   2.928   6.273  0.2485  0.0840  0.0030
   14TAL    C66 4561   8.486   3.019   6.370 -0.1020  0.8386 -0.0192
   14TAL    C67 4562   8.338   3.017   6.322 -0.8935 -0.3361  0.6635
   14TAL    C68 4563   8.279   2.878   6.357  0.4875  0.1466 -0.3193
   14TAL    C69 4564   8.133   2.873   6.365 -0.1327 -0.0621  0.7077
   14TAL    C70 4565   8.088   2.893   6.500  0.5591 -0.2505 -0.8968
   15HTM    C71 4566   8.809   2.835   6.069 -0.5487 -0.0858  0.5167
   15HTM    C72 4567   8.894   2.743   6.013 -0.7420 -0.5611  0.9874
   15HTM    C73 4568   8.894   2.745   5.869 -0.1192 -0.7366  0.9822
   15HTM    C74 4569   8.811   2.839   5.815  0.5489 -0.3951  0.5075
   15HTM     S8 4570   8.724   2.932   5.943  0.4431  0.1792  0.0266
   16TAL    C75 4571   8.993   2.652   5.785  1.0400  0.0261 -0.0227
   16TAL    C76 4572   9.131   2.694   5.738  0.0452 -0.0600  0.1731
   16TAL    C77 4573   9.253   2.650   5.813  0.0751  0.2431 -1.3171
   16TAL    C78 4574   9.244   2.655   5.969 -0.9005  0.4062 -0.0215
   16TAL    C79 4575   9.366   2.593   6.040 -0.2410 -0.1285  1.1208
   16TAL    C80 4576   9.367   2.615   6.190 -0.3122  0.3688  0.5928
   17HTM    C81 4577   8.780   2.885   5.683  0.6717 -0.4946 -0.3489
   17HTM    C82 4578   8.863   2.896   5.575  0.5760  0.0716 -0.3734
   17HTM    C83 4579   8.799   2.946   5.457  0.4194  0.4969 -0.1098
   17HTM    C84 4580   8.666   2.975   5.474  0.3958  0.2549  0.1157
   17HTM     S9 4581   8.613   2.939   5.643  0.5708 -0.5349  0.0121
   18TAL    C85 4582   8.899   2.942   5.350  0.1764 -0.6168  0.8580
   18TAL    C86 4583   8.867   2.985   5.196 -0.6245  0.2861 -1.0288
   18TAL    C87 4584   8.963   2.953   5.081 -0.5938 -0.5916  0.9187
   18TAL    C88 4585   9.103   2.909   5.110 -0.3997 -1.0024 -0.1056
   18TAL    C89 4586   9.208   2.859   5.004  0.0536 -0.8057 -1.0280
   18TAL    C90 4587   9.338   2.812   5.059  0.4767  0.3723 -0.9099
   19HTM    C91 4588   8.575   3.043   5.380 -0.1640 -0.1332  0.2586
   19HTM    C92 4589   8.538   3.016   5.252  0.0796 -0.2793  0.2184
   19HTM    C93 4590   8.450   3.114   5.195  0.3288 -0.2531 -0.1225
   19HTM    C94 4591   8.421   3.217   5.279  0.2755 -0.0870 -0.3424
   19HTM    S10 4592   8.502   3.197   5.439 -0.0969  0.0501 -0.1341
   20TAL    C95 4593   8.404   3.091   5.048  0.1808  1.0986 -0.3191
   20TAL    C96 4594   8.517   3.090   4.947 -0.6719 -0.0569 -0.7984
   20TAL    C97 4595   8.562   3.215   4.892 -1.1991  0.4170 -0.2812
   20TAL    C98 4596   8.467   3.303   4.813 -0.2648  0.0714 -0.9485
   20TAL    C99 4597   8.547   3.404   4.746 -1.3473  0.3200  0.2847
   20TAL   C100 4598   8.557   3.380   4.596  1.4151  0.4237  0.6517
   21HTM   C101 4599   8.361   3.344   5.248  0.2196 -0.0623 -0.2983
   21HTM   C102 4600   8.393   3.432   5.150  0.5057  0.3731  0.1737
   21HTM   C103 4601   8.336   3.563   5.169  0.4954  0.3091  0.6076
   21HTM   C104 4602   8.261   3.574   5.282  0.2020 -0.1749  0.4666
   21HTM    S11 4603   8.256   3.419   5.374 -0.0869 -0.5908 -0.2308
   22TAL   C105 4604   8.371   3.670   5.064 -0.3643 -0.3225 -0.5975
   22TAL   C106 4605   8.520   3.680   5.041 -0.6092 -0.3435 -0.1027
   22TAL   C107 4606   8.570   3.818   4.992  0.0683 -0.8750 -0.0845
   22TAL   C108 4607   8.531   3.870   4.851  0.0325 -1.0281 -0.5859
   22TAL   C109 4608   8.638   3.854   4.740 -0.1041 -1.0023 -1.2681
   22TAL   C110 4609   8.589   3.914   4.615 -0.0774 -1.0634  0.5323
   23HTM   C111 4610   8.213   3.691   5.354 -0.0220  0.0077  0.8278
   23HTM   C112 4611   8.117   3.697   5.450 -0.0398  0.6329  0.7794
   23HTM   C113 4612   8.117   3.820   5.524  0.0947  1.0276  0.1376
   23HTM   C114 4613   8.213   3.908   5.484  0.2151  0.7033 -0.3032
   23HTM    S12 4614   8.312   3.842   5.349  0.1673 -0.1321  0.0607
   24TAL   C115 4615   8.022   3.847   5.641 -0.6063  0.4632  0.2066
   24TAL   C116 4616   7.882   3.777   5.665  0.0207  0.0509  0.3208
   24TAL   C117 4617   7.799   3.756   5.542  0.0845  0.1446  0.8179
   24TAL   C118 4618   7.666   3.688   5.526 -0.6549  0.5519 -0.8951
   24TAL   C119 4619   7.664   3.533   5.534  0.7349 -0.4197 -0.2004
   24TAL   C120 4620   7.520   3.498   5.488 -0.0560  0.2981 -0.6323
   25HTM   C121 4621   8.223   4.046   5.513 -0.0634 -0.2834 -0.3444
   25HTM   C122 4622   8.124   4.137   5.535 -0.1130 -0.3275 -0.3875
   25HTM   C123 4623   8.171   4.272   5.549 -0.2050 -0.2661 -0.6524
   25HTM   C124 4624   8.307   4.285   5.539 -0.2255 -0.1753 -0.8111
   25HTM    S13 4625   8.386   4.125   5.509 -0.1293 -0.1602 -0.6370
   26TAL   C125 4626   8.069   4.389   5.593 -0.6994 -0.4607  0.2121
   26TAL   C126 4627   8.113   4.493   5.702  0.2449  0.2182 -0.4258
   26TAL   C127 4628   8.011   4.596   5.708  0.5846 -1.3995 -0.0745
   26TAL   C128 4629   7.979   4.677   5.577 -0.3950 -0.0990 -0.2759
   26TAL   C129 4630   7.906   4.806   5.594  0.9676 -0.0447 -0.9602
   26TAL   C130 4631   7.793   4.823   5.496  0.3907  0.9776  0.4938
   27HTM   C131 4632   8.396   4.399   5.567 -0.3083 -0.2159  0.0154
   27HTM   C132 4633   8.505   4.406   5.648 -0.1862 -0.7087 -0.1016
   27HTM   C133 4634   8.574   4.532   5.642  0.4773 -1.0667 -0.2981
   27HTM   C134 4635   8.516   4.622   5.557  0.8613 -0.8467 -0.3308
   27HTM    S14 4636   8.370   4.553   5.477  0.4113 -0.1651 -0.1148
   28TAL   C135 4637   8.695   4.563   5.725 -0.1864  0.7302  0.8665
   28TAL   C136 4638   8.803   4.452   5.722 -0.2966  0.3961  1.4636
   28TAL   C137 4639   8.873   4.423   5.581 -0.9167 -0.4932  0.1103
   28TAL   C138 4640   8.956   4.299   5.564  0.4104  0.7011  0.7487
   28TAL   C139 4641   8.866   4.176   5.574 -0.1029  0.4040 -1.1610
   28TAL   C140 4642   8.942   4.061   5.520  0.1628  0.0269 -0.4783
   29HTM   C141 4643   8.541   4.765   5.533  0.0847  0.3442  0.5974
   29HTM   C142 4644   8.662   4.826   5.516  0.0083  0.4741  0.5170
   29HTM   C143 4645   8.653   4.961   5.468 -0.1521  0.2869  0.0014
   29HTM   C144 4646   8.524   5.004   5.449 -0.1985  0.0143 -0.3113
   29HTM    S15 4647   8.405   4.875   5.490 -0.0414 -0.0276  0.0238
   30TAL   C145 4648   8.770   5.039   5.423 -0.7115 -1.2194  1.4888
   30TAL   C146 4649   8.883   4.973   5.340 -0.4552  0.4985  0.3058
   30TAL   C147 4650   8.951   5.075   5.251 -0.0852  0.2394  0.2904
   30TAL   C148 4651   9.052   5.176   5.298  0.0529  0.4013 -1.5110
   30TAL   C149 4652   9.181   5.111   5.342 -0.2205 -0.1136  0.7980
   30TAL   C150 4653   9.287   5.200   5.407  0.1427 -0.3198 -0.7201
   31HTM   C151 4654   8.472   5.146   5.432 -0.6252  0.3998 -0.0536
   31HTM   C152 4655   8.338   5.169   5.424 -0.5405  0.7079 -0.6791
   31HTM   C153 4656   8.305   5.305   5.389 -0.0694  0.8585 -0.5509
   31HTM   C154 4657   8.413   5.385   5.371  0.2046  0.6652  0.1725
   31HTM    S16 4658   8.567   5.295   5.396 -0.1129  0.2750  0.7522
   32TAL   C155 4659   8.171   5.356   5.414 -0.9717  0.1223  0.2988
   32TAL   C156 4660   8.057   5.303   5.334 -0.0811 -0.9148 -0.0530
   32TAL   C157 4661   7.924   5.354   5.381 -0.0666  0.5379  0.1110
   32TAL   C158 4662   7.806   5.303   5.300 -0.2192 -0.0877 -0.1477
   32TAL   C159 4663   7.791   5.362   5.162 -0.5497 -0.6170 -0.2397
   32TAL   C160 4664   7.668   5.300   5.092 -0.7231  0.7283  0.8755
   33HTM   C161 4665   8.433   5.525   5.353  0.0580  0.2271 -0.1268
   33HTM   C162 4666   8.554   5.587   5.361  0.1063  0.1520 -0.2687
   33HTM   C163 4667   8.547   5.730   5.352  0.1774  0.1609 -0.1885
   33HTM   C164 4668   8.420   5.778   5.337  0.1834  0.2427  0.0143
   33HTM    S17 4669   8.299   5.644   5.333  0.0991  0.3154  0.1210
   34TAL   C165 4670   8.669   5.814   5.372 -0.7155 -0.2032  0.0033
   34TAL   C166 4671   8.720   5.860   5.507  1.8179 -0.6761 -0.0879
   34TAL   C167 4672   8.784   5.743   5.560 -0.7760  0.9548 -0.1535
   34TAL   C168 4673   8.828   5.745   5.699  0.4584  0.6542  0.1006
   34TAL   C169 4674   8.955   5.811   5.730 -0.5305 -0.3346 -0.1238
   34TAL   C170 4675   9.013   5.801   5.865 -0.4593 -0.2005 -0.8062
   35HTM   C171 4676   8.384   5.911   5.325  0.0466  0.0293  0.2229
   35HTM   C172 4677   8.372   5.984   5.211  0.0470 -0.1160  0.1310
   35HTM   C173 4678   8.333   6.121   5.232  0.3614 -0.0015 -0.0212
   35HTM   C174 4679   8.316   6.153   5.364  0.6008  0.2310 -0.0452
   35HTM    S18 4680   8.348   6.011   5.471  0.4463  0.3241  0.1238
   36TAL   C175 4681   8.320   6.206   5.106 -1.4738  0.0033  0.1392
   36TAL   C176 4682   8.458   6.250   5.047  0.3629 -0.3735  0.4250
   36TAL   C177 4683   8.578   6.310   5.135  0.7347  0.0806 -0.1073
   36TAL   C178 4684   8.712   6.237   5.120 -0.4734 -1.3052 -0.1578
   36TAL   C179 4685   8.742   6.129   5.221 -1.0125 -0.5339 -0.2292
   36TAL   C180 4686   8.855   6.036   5.188 -0.7423 -0.0420  0.3187
   37HTM   C181 4687   8.305   6.274   5.438  0.1390 -0.0754  0.2076
   37HTM   C182 4688   8.200   6.361   5.434  0.6545  0.5444 -0.2887
   37HTM   C183 4689   8.210   6.468   5.529  1.2097  0.9465 -0.7838
   37HTM   C184 4690   8.322   6.464   5.606  1.1174  0.6331 -0.6649
   37HTM    S19 4691   8.425   6.322   5.564  0.3158 -0.2003  0.0873
   38TAL   C185 4692   8.087   6.573   5.534 -1.1814  0.3305  0.3031
   38TAL   C186 4693   8.145   6.706   5.482 -0.3692  0.1885  0.5001
   38TAL   C187 4694   8.062   6.828   5.489 -0.3311 -1.0649  0.2808
   38TAL   C188 4695   7.945   6.847   5.393  0.0804 -1.2693  1.3931
   38TAL   C189 4696   7.878   6.986   5.416  0.3973  0.2830  0.1027
   38TAL   C190 4697   7.730   6.971   5.396  0.4226 -0.1516 -0.1417
   39HTM   C191 4698   8.360   6.546   5.723 -0.1508  0.4928  0.2770
   39HTM   C192 4699   8.323   6.672   5.760  0.1042  0.4357  0.7420
   39HTM   C193 4700   8.379   6.714   5.886  0.3214 -0.0793  0.8230
   39HTM   C194 4701   8.458   6.620   5.945  0.2312 -0.4149  0.4200
   39HTM    S20 4702   8.468   6.470   5.846 -0.1373 -0.1041 -0.0975
   40TAL   C195 4703   8.370   6.863   5.918  0.9827 -0.4312  0.0394
   40TAL   C196 4704   8.382   6.937   6.055 -0.3242 -0.1656  0.0868
   40TAL   C197 4705   8.328   7.083   6.048 -0.3427  0.1359  0.4325
   40TAL   C198 4706   8.423   7.200   6.066  0.4785  0.4692  0.6692
   40TAL   C199 4707   8.551   7.205   5.984 -0.6180 -0.0180 -0.4913
   40TAL   C200 4708   8.556   7.341   5.915  0.4173  0.2842  0.4823
   41HTM   C201 4709   8.527   6.613   6.079 -0.3326 -0.7012 -0.2786
   41HTM   C202 4710   8.643   6.676   6.113 -0.0293 -0.7269 -1.2075
   41HTM   C203 4711   8.691   6.642   6.245  0.7327 -0.3206 -1.3670
   41HTM   C204 4712   8.611   6.554   6.311  1.0103  0.0153 -0.5598
   41HTM    S21 4713   8.468   6.506   6.212  0.3252 -0.1573  0.4726
   42TAL   C205 4714   8.810   6.709   6.311 -0.1615 -0.5296 -0.3439
   42TAL   C206 4715   8.858   6.859   6.280  0.3392  0.7934  0.4281
   42TAL   C207 4716   8.764   6.976   6.243 -0.3177  1.3265  1.2714
   42TAL   C208 4717   8.825   7.114   6.225 -0.8140 -1.1633 -0.5216
   42TAL   C209 4718   8.954   7.134   6.139  0.3516  0.7268 -0.1606
   42TAL   C210 4719   9.027   7.259   6.183 -0.9066 -0.7368 -0.0746
   43HTM   C211 4720   8.610   6.484   6.443  0.3363  0.0116 -0.1087
   43HTM   C212 4721   8.541   6.371   6.476  0.9956 -0.4334 -0.2348
   43HTM   C213 4722   8.553   6.334   6.614  1.1246 -0.4635 -0.2528
   43HTM   C214 4723   8.630   6.419   6.688  0.5629 -0.0415 -0.1407
   43HTM    S22 4724   8.694   6.554   6.586 -0.1775  0.4305 -0.0024
   44TAL   C215 4725   8.470   6.208   6.667 -0.6212 -0.4058 -0.1656
   44TAL   C216 4726   8.518   6.071   6.632 -0.1695 -0.2431  0.0513
   44TAL   C217 4727   8.565   6.008   6.757  0.2842 -0.7366  0.6507
   44TAL   C218 4728   8.475   5.951   6.868  0.1758 -1.0764 -0.5055
   44TAL   C219 4729   8.541   5.899   7.000 -0.1362  1.4377 -0.0066
   44TAL   C220 4730   8.440   5.813   7.083  0.2395 -1.1320 -0.0875
   45HTM   C221 4731   8.656   6.426   6.832  0.8951  0.0973 -0.1988
   45HTM   C222 4732   8.657   6.535   6.914  1.0993  0.0856 -0.1856
   45HTM   C223 4733   8.696   6.505   7.049  0.8426 -0.0402 -0.1389
   45HTM   C224 4734   8.724   6.374   7.071  0.4428 -0.1247 -0.1166
   45HTM    S23 4735   8.704   6.276   6.920  0.3585 -0.0511 -0.1530
   46TAL   C225 4736   8.695   6.624   7.144 -0.6614  1.5448  0.5959
   46TAL   C226 4737   8.649   6.620   7.288  0.2014  0.2375 -0.0805
   46TAL   C227 4738   8.698   6.750   7.359  0.3815  0.5320  0.2036
   46TAL   C228 4739   8.582   6.790   7.450 -0.9351 -0.9476 -1.2016
   46TAL   C229 4740   8.586   6.943   7.507 -0.8388  0.1146  1.1274
   46TAL   C230 4741   8.447   6.980   7.568  0.5146  1.4224 -0.9361
   47HTM   C231 4742   8.761   6.295   7.193  0.7772  0.0374 -0.0998
   47HTM   C232 4743   8.704   6.175   7.222  0.8652 -0.0024 -0.0912
   47HTM   C233 4744   8.757   6.113   7.340  0.8876  0.0601 -0.0684
   47HTM   C234 4745   8.854   6.186   7.402  0.8165  0.1477 -0.0594
   47HTM    S24 4746   8.887   6.340   7.314  0.7150  0.1579 -0.0792
   48TAL   C235 4747   8.688   5.993   7.392 -0.2642 -0.0537  0.4037
   48TAL   C236 4748   8.698   5.937   7.537  0.8392 -1.4032 -1.0889
   48TAL   C237 4749   8.621   5.804   7.554 -0.4883  0.2650 -0.8064
   48TAL   C238 4750   8.529   5.797   7.684 -0.3469 -0.1308  0.6159
   48TAL   C239 4751   8.420   5.903   7.702  0.2142 -0.3021 -1.4507
   48TAL   C240 4752   8.303   5.864   7.799 -0.2324  0.2507  0.3941
    1HTM     C1 4753   2.265   2.918   4.151  0.2106 -0.7618 -0.2936
    1HTM     C2 4754   2.175   2.878   4.058 -0.0528 -1.0467  0.0751
    1HTM     C3 4755   2.071   2.793   4.109 -0.3049 -0.3455  0.7699
    1HTM     C4 4756   2.083   2.767   4.243 -0.2339  0.4739  0.9310
    1HTM     S1 4757   2.227   2.850   4.314  0.1600  0.4231  0.2120
    2TAL     C5 4758   1.974   2.731   4.004 -1.0547 -0.8452  0.4807
    2TAL     C6 4759   1.886   2.840   3.943 -1.1298  0.0437 -0.1840
    2TAL     C7 4760   1.803   2.922   4.029 -0.3258 -0.3554  0.8060
    2TAL     C8 4761   1.668   2.863   4.047 -0.3497 -0.8432  1.1012
    2TAL     C9 4762   1.606   2.909   4.173 -0.2841 -0.0812  0.8366
    2TAL    C10 4763   1.466   2.855   4.189 -0.4200  0.8405  0.4807
    3HTM    C11 4764   2.002   2.676   4.330  0.0504 -0.7494  0.2199
    3HTM    C12 4765   2.034   2.637   4.457 -0.1932 -1.4470  0.0780
    3HTM    C13 4766   1.931   2.562   4.522 -0.5865 -1.2457 -0.3002
    3HTM    C14 4767   1.820   2.543   4.446 -0.6426 -0.3944 -0.4468
    3HTM     S2 4768   1.837   2.619   4.284 -0.1998  0.2237 -0.1158
    4TAL    C15 4769   1.947   2.521   4.668 -0.5772  0.0266 -0.0918
    4TAL    C16 4770   2.065   2.416   4.694  0.0776  0.3168  0.0726
    4TAL    C17 4771   2.076   2.382   4.844 -0.3488 -0.3525 -0.1239
    4TAL    C18 4772   2.219   2.360   4.900  0.1921 -1.2309 -0.1697
    4TAL    C19 4773   2.331   2.463   4.862 -0.8113  0.2443  0.0559
    4TAL    C20 4774   2.432   2.473   4.970 -0.1551 -0.2290 -0.4175
    5HTM    C21 4775   1.703   2.462   4.473  0.2192 -0.4616  0.3323
    5HTM    C22 4776   1.611   2.492   4.570  0.5578 -0.7481  0.7541
    5HTM    C23 4777   1.486   2.424   4.553  0.4734 -0.6415  0.9522
    5HTM    C24 4778   1.481   2.342   4.445  0.0705 -0.2736  0.6815
    5HTM     S3 4779   1.637   2.344   4.354 -0.2359 -0.0316  0.1512
    6TAL    C25 4780   1.375   2.463   4.651 -0.9324  0.6598  0.0994
    6TAL    C26 4781   1.409   2.476   4.807 -0.6335  0.0952 -0.8114
    6TAL    C27 4782   1.357   2.608   4.868  0.8039  0.2527 -0.2228
    6TAL    C28 4783   1.412   2.657   5.004 -1.0324  0.9298 -0.2762
    6TAL    C29 4784   1.567   2.663   5.021 -0.1846  0.4395  0.1038
    6TAL    C30 4785   1.595   2.693   5.162 -0.0498 -0.2849 -0.9710
    7HTM    C31 4786   1.380   2.278   4.367 -0.1455  0.0719 -0.1382
    7HTM    C32 4787   1.381   2.179   4.273 -0.3346  0.1045 -0.1751
    7HTM    C33 4788   1.252   2.155   4.213 -0.4860  0.0350  0.1705
    7HTM    C34 4789   1.153   2.236   4.261 -0.4124 -0.0504  0.4707
    7HTM     S4 4790   1.216   2.349   4.386 -0.1440 -0.0498  0.3394
    8TAL    C35 4791   1.229   2.047   4.112  0.3720 -0.4546  0.4253
    8TAL    C36 4792   1.256   1.900   4.162 -0.2748 -0.8749  0.8708
    8TAL    C37 4793   1.137   1.860   4.244 -0.0445  0.3994  0.7191
    8TAL    C38 4794   1.159   1.715   4.278 -0.3366 -0.5875  0.4932
    8TAL    C39 4795   1.044   1.625   4.246  0.4338  0.1342  0.0256
    8TAL    C40 4796   1.024   1.590   4.098 -0.2428 -0.3583  0.6685
    9HTM    C41 4797   1.013   2.239   4.221 -0.2151  0.1915 -0.7373
    9HTM    C42 4798   0.951   2.187   4.111 -0.6769  0.3859 -0.5751
    9HTM    C43 4799   0.808   2.204   4.111 -0.7240  0.0563  0.2341
    9HTM    C44 4800   0.761   2.268   4.221 -0.2982 -0.3893  0.6886
    9HTM     S5 4801   0.894   2.313   4.334  0.1992 -0.4277  0.1258
   10TAL    C45 4802   0.722   2.169   3.984 -0.1190 -0.0553  0.3257
   10TAL    C46 4803   0.746   2.278   3.866  0.1234  0.0267 -1.2931
   10TAL    C47 4804   0.669   2.245   3.747  0.9791  0.6621  0.1978
   10TAL    C48 4805   0.695   2.341   3.627 -0.5309  0.6484 -0.6725
   10TAL    C49 4806   0.621   2.290   3.503 -0.0591 -0.8502 -0.0857
   10TAL    C50 4807   0.640   2.379   3.380 -0.0009  0.3192  0.2526
   11HTM    C51 4808   0.629   2.317   4.255 -0.9695 -0.3445  0.6275
   11HTM    C52 4809   0.510   2.253   4.269 -1.4343  0.3563  0.0410
   11HTM    C53 4810   0.401   2.339   4.307 -1.0902  0.9768 -0.3498
   11HTM    C54 4811   0.438   2.470   4.322 -0.3630  0.7492 -0.0610
   11HTM     S6 4812   0.614   2.494   4.289 -0.0539 -0.2745  0.7328
   12TAL    C55 4813   0.258   2.285   4.319 -0.0303  0.1908 -0.0803
   12TAL    C56 4814   0.212   2.180   4.434 -1.0895 -0.1690 -0.7170
   12TAL    C57 4815   0.227   2.252   4.572  0.0216 -0.7369 -0.6121
   12TAL    C58 4816   0.167   2.202   4.698  0.3729  1.0376 -0.6010
   12TAL    C59 4817   0.248   2.092   4.776 -0.9308 -0.4193 -0.0644
   12TAL    C60 4818   0.193   1.960   4.774 -0.0828 -0.0385 -0.5090
   13HTM    C61 4819   0.359   2.592   4.340  0.1923  0.3254  0.2526
   13HTM    C62 4820   0.388   2.724   4.330  0.3304  0.3709  1.1036
   13HTM    C63 4821   0.285   2.810   4.381  0.1856  0.1568  1.1734
   13HTM    C64 4822   0.177   2.743   4.430 -0.0629 -0.0518  0.3756
   13HTM     S7 4823   0.197   2.565   4.416 -0.1338  0.0062 -0.5327
   14TAL    C65 4824   0.293   2.968   4.398  0.4873 -0.0158  0.1010
   14TAL    C66 4825   0.388   3.059   4.299  1.1296  1.0700 -1.1727
   14TAL    C67 4826   0.356   3.205   4.321  0.5032 -0.4577 -0.2990
   14TAL    C68 4827   0.414   3.303   4.218 -0.3780 -0.3533  0.3134
   14TAL    C69 4828   0.566   3.304   4.195  0.5088 -0.5532 -0.2160
   14TAL    C70 4829   0.604   3.327   4.042 -0.0134 -0.3063 -0.4721
   15HTM    C71 4830   0.059   2.784   4.506 -0.0626  0.2537  0.1032
   15HTM    C72 4831   0.021   2.732   4.627 -0.2663  0.3306  0.0720
   15HTM    C73 4832  -0.106   2.782   4.673 -0.2937  0.4442 -0.1215
   15HTM    C74 4833  -0.164   2.872   4.589 -0.1111  0.4538 -0.2380
   15HTM     S8 4834  -0.063   2.900   4.442  0.1115  0.3192 -0.1113
   16TAL    C75 4835  -0.181   2.722   4.790  0.0569  0.0554 -0.7072
   16TAL    C76 4836  -0.116   2.603   4.847 -0.1054  0.7128  0.0519
   16TAL    C77 4837  -0.203   2.492   4.902 -0.2220  0.7801  0.9688
   16TAL    C78 4838  -0.156   2.365   4.847  0.2285  0.1897  0.1224
   16TAL    C79 4839  -0.238   2.238   4.883 -0.8579  0.5081  0.1032
   16TAL    C80 4840  -0.180   2.108   4.810 -0.9287 -0.1429 -1.2184
   17HTM    C81 4841  -0.291   2.925   4.596 -0.2575  0.1042  0.7740
   17HTM    C82 4842  -0.324   3.057   4.584 -0.6423  0.0470  1.1487
   17HTM    C83 4843  -0.465   3.080   4.568 -0.6630 -0.3638  0.6717
   17HTM    C84 4844  -0.540   2.966   4.568 -0.2938 -0.6199 -0.0665
   17HTM     S9 4845  -0.437   2.820   4.588  0.1110 -0.3600 -0.2180
   18TAL    C85 4846  -0.521   3.229   4.560 -0.6263  1.1227  0.5189
   18TAL    C86 4847  -0.435   3.316   4.453 -0.2682  0.1805  0.1281
   18TAL    C87 4848  -0.478   3.466   4.443  0.4523  0.1761  0.9814
   18TAL    C88 4849  -0.446   3.550   4.568  0.3266  0.7915 -0.8568
   18TAL    C89 4850  -0.530   3.534   4.689 -1.1325 -0.4515 -0.8958
   18TAL    C90 4851  -0.474   3.615   4.809  0.1597  0.2829 -0.0141
   19HTM    C91 4852  -0.677   2.949   4.579  0.4961 -0.4605 -0.3404
   19HTM    C92 4853  -0.737   2.849   4.650  0.3405 -0.2347 -0.1485
   19HTM    C93 4854  -0.880   2.850   4.642  0.3290  0.1388  0.0782
   19HTM    C94 4855  -0.931   2.951   4.565  0.4751  0.1977  0.0592
   19HTM    S10 4856  -0.799   3.053   4.496  0.6405 -0.2173 -0.2490
   20TAL    C95 4857  -0.968   2.762   4.730  0.8285 -0.6518  0.5369
   20TAL    C96 4858  -0.913   2.685   4.857  0.1532 -0.5206  0.3269
   20TAL    C97 4859  -1.016   2.591   4.923  0.3342  0.1011  0.0504
   20TAL    C98 4860  -1.032   2.601   5.075  0.4218 -0.8026 -0.1639
   20TAL    C99 4861  -0.903   2.608   5.152 -0.4685  1.0496 -0.3729
   20TAL   C100 4862  -0.899   2.471   5.238 -0.2730  0.0415  0.5378
   21HTM   C101 4863  -1.073   2.998   4.532  0.1103  0.4354 -0.0550
   21HTM   C102 4864  -1.190   2.953   4.585  0.0117  1.0893  0.2992
   21HTM   C103 4865  -1.307   3.001   4.516  0.0846  1.4347  0.4150
   21HTM   C104 4866  -1.279   3.083   4.411  0.2392  1.0441  0.1490
   21HTM    S11 4867  -1.101   3.105   4.390  0.3047  0.2033 -0.2717
   22TAL   C105 4868  -1.443   2.943   4.573  0.7497 -0.7014 -0.0177
   22TAL   C106 4869  -1.521   3.034   4.680  0.0498  2.3902  0.8398
   22TAL   C107 4870  -1.652   2.960   4.735 -0.0206 -0.3266 -0.3769
   22TAL   C108 4871  -1.708   2.827   4.680  0.1951  0.0825  0.2247
   22TAL   C109 4872  -1.834   2.777   4.744  0.0929 -0.0465  0.3348
   22TAL   C110 4873  -1.949   2.874   4.745 -0.4392  0.8687  0.5346
   23HTM   C111 4874  -1.368   3.162   4.337  0.6426 -0.3941 -0.0665
   23HTM   C112 4875  -1.500   3.181   4.364  0.5133 -1.1118 -0.1618
   23HTM   C113 4876  -1.569   3.258   4.264  0.2775 -1.0748  0.0288
   23HTM   C114 4877  -1.490   3.298   4.161  0.2268 -0.3288  0.2694
   23HTM    S12 4878  -1.320   3.241   4.182  0.4750  0.3904  0.2740
   24TAL   C115 4879  -1.719   3.297   4.276  0.3236  0.3211  0.3978
   24TAL   C116 4880  -1.818   3.185   4.324 -0.0505  0.1110  1.7576
   24TAL   C117 4881  -1.972   3.194   4.292 -0.2317  0.0751 -0.1817
   24TAL   C118 4882  -2.012   3.141   4.147 -0.2782 -1.1586 -0.7076
   24TAL   C119 4883  -2.134   3.210   4.086  1.0995  0.3330  0.0330
   24TAL   C120 4884  -2.271   3.148   4.135 -0.4820 -0.4665 -0.2404
   25HTM   C121 4885  -1.497   3.389   4.040  0.2501 -0.0000 -0.3607
   25HTM   C122 4886  -1.408   3.405   3.938 -0.1090 -0.1929 -0.7087
   25HTM   C123 4887  -1.437   3.517   3.853 -0.0901 -0.0142 -0.4807
   25HTM   C124 4888  -1.548   3.587   3.891  0.2834  0.3150  0.0411
   25HTM    S13 4889  -1.625   3.516   4.037  0.6431  0.4257  0.2869
   26TAL   C125 4890  -1.338   3.576   3.746  0.0091  0.1345  0.4133
   26TAL   C126 4891  -1.248   3.474   3.662  0.9348 -0.5128 -0.4302
   26TAL   C127 4892  -1.164   3.377   3.749  0.0250 -0.0349 -0.1208
   26TAL   C128 4893  -1.024   3.372   3.697 -0.6960 -0.3994 -0.2817
   26TAL   C129 4894  -0.970   3.230   3.661 -0.1689  0.0510 -0.1015
   26TAL   C130 4895  -1.057   3.160   3.574 -0.1525  0.4823  0.0698
   27HTM   C131 4896  -1.614   3.714   3.843  0.4793 -0.0420  0.6624
   27HTM   C132 4897  -1.743   3.731   3.801  0.4444 -0.2200  0.6953
   27HTM   C133 4898  -1.777   3.868   3.772  0.4567 -0.3480  0.0374
   27HTM   C134 4899  -1.674   3.956   3.792  0.5010 -0.2678 -0.4973
   27HTM    S14 4900  -1.525   3.871   3.850  0.5306 -0.0222 -0.2090
   28TAL   C135 4901  -1.924   3.898   3.731 -1.1949 -1.6572  0.1414
   28TAL   C136 4902  -2.026   3.839   3.829 -1.0511 -0.5795  0.2578
   28TAL   C137 4903  -2.172   3.867   3.813 -0.3744 -0.6926  0.6206
   28TAL   C138 4904  -2.238   3.875   3.672  1.4873  0.2990  1.0881
   28TAL   C139 4905  -2.216   3.744   3.591  0.8015 -0.2721  0.9406
   28TAL   C140 4906  -2.315   3.740   3.474 -0.3953 -0.3863  1.1021
   29HTM   C141 4907  -1.667   4.104   3.795  0.2978  0.0416  0.4794
   29HTM   C142 4908  -1.569   4.181   3.851  0.4632  0.1351  0.0696
   29HTM   C143 4909  -1.604   4.321   3.861  0.6146  0.2029 -0.3345
   29HTM   C144 4910  -1.728   4.350   3.812  0.5642  0.1612 -0.2326
   29HTM    S15 4911  -1.811   4.202   3.750  0.3205  0.0319  0.3862
   30TAL   C145 4912  -1.504   4.438   3.893  0.4538  0.0406  0.1424
   30TAL   C146 4913  -1.367   4.401   3.937  0.7701 -0.1264 -0.5264
   30TAL   C147 4914  -1.290   4.513   3.992  0.2627 -0.8806 -0.6677
   30TAL   C148 4915  -1.157   4.470   4.031 -0.2161  1.1415  0.2366
   30TAL   C149 4916  -1.082   4.587   4.100  0.0798  0.7196  0.9657
   30TAL   C150 4917  -1.115   4.623   4.247 -0.3548 -0.0661 -0.3152
   31HTM   C151 4918  -1.792   4.477   3.794  0.6150  0.2584 -0.1524
   31HTM   C152 4919  -1.851   4.562   3.883  0.3964  0.0762 -0.1203
   31HTM   C153 4920  -1.924   4.670   3.821 -0.2489 -0.3308 -0.0834
   31HTM   C154 4921  -1.921   4.667   3.685 -0.5220 -0.4590 -0.0873
   31HTM    S16 4922  -1.825   4.527   3.624  0.0185 -0.0725 -0.1384
   32TAL   C155 4923  -2.018   4.778   3.883 -1.0469  0.3732  0.0882
   32TAL   C156 4924  -2.071   4.757   4.028 -0.2394  1.0289 -0.6621
   32TAL   C157 4925  -2.193   4.820   4.083  0.3967 -0.7005  0.1039
   32TAL   C158 4926  -2.309   4.857   3.987 -0.9073 -0.8296  0.6691
   32TAL   C159 4927  -2.304   5.007   3.944 -0.1978 -1.1454 -0.7183
   32TAL   C160 4928  -2.403   5.045   3.829  0.0259  0.0328 -0.0400
   33HTM   C161 4929  -1.972   4.753   3.583  0.5485 -0.4506 -0.3931
   33HTM   C162 4930  -1.900   4.822   3.490  0.0937 -1.0564 -1.2192
   33HTM   C163 4931  -1.976   4.924   3.423 -0.0821 -1.0844 -1.0655
   33HTM   C164 4932  -2.106   4.933   3.464  0.2387 -0.4999 -0.1220
   33HTM    S17 4933  -2.142   4.812   3.593  0.7921  0.1360  0.6515
   34TAL   C165 4934  -1.901   5.023   3.329  0.4054 -0.8233 -0.2055
   34TAL   C166 4935  -1.909   4.995   3.174  0.3973  0.3729 -0.1801
   34TAL   C167 4936  -1.854   5.105   3.090 -1.0274  0.9127  0.2856
   34TAL   C168 4937  -1.933   5.229   3.093  0.4454 -0.7026 -0.6467
   34TAL   C169 4938  -1.932   5.317   2.978 -0.5952  0.1079  0.3696
   34TAL   C170 4939  -1.973   5.258   2.844 -0.0814 -1.4301  0.0467
   35HTM   C171 4940  -2.225   5.016   3.431 -0.1719 -0.3248 -0.2436
   35HTM   C172 4941  -2.351   4.981   3.468 -0.1056 -0.5552 -0.2329
   35HTM   C173 4942  -2.455   5.055   3.400 -0.2501 -0.8171 -0.3023
   35HTM   C174 4943  -2.407   5.147   3.311 -0.4269 -0.7863 -0.3659
   35HTM    S18 4944  -2.227   5.146   3.306 -0.4243 -0.4215 -0.3429
   36TAL   C175 4945  -2.599   5.015   3.416 -0.1521 -0.2796 -0.1102
   36TAL   C176 4946  -2.643   4.939   3.545 -1.7350  0.6545  0.3079
   36TAL   C177 4947  -2.687   4.793   3.528  0.3416 -0.2469 -0.1997
   36TAL   C178 4948  -2.737   4.753   3.667 -0.3335  0.4651 -0.0550
   36TAL   C179 4949  -2.635   4.672   3.729  0.3369  0.8983 -0.7917
   36TAL   C180 4950  -2.711   4.592   3.835  0.7270  0.2933  0.2866
   37HTM   C181 4951  -2.471   5.215   3.192  0.1315  0.4288 -0.8463
   37HTM   C182 4952  -2.441   5.225   3.060 -0.4277  1.2541 -0.9322
   37HTM   C183 4953  -2.546   5.282   2.980 -1.0127  1.1938 -0.2241
   37HTM   C184 4954  -2.657   5.316   3.052 -0.8991  0.3223  0.4017
   37HTM    S19 4955  -2.636   5.279   3.227 -0.0383 -0.4960  0.1434
   38TAL   C185 4956  -2.521   5.312   2.826 -0.6142  0.9568 -0.1156
   38TAL   C186 4957  -2.384   5.346   2.775 -0.6947 -0.5203  0.5232
   38TAL   C187 4958  -2.400   5.399   2.629  0.1471 -0.3528 -1.2277
   38TAL   C188 4959  -2.272   5.466   2.559  0.7143  0.1331 -0.6164
   38TAL   C189 4960  -2.166   5.368   2.538  0.7111  0.0456 -0.1941
   38TAL   C190 4961  -2.039   5.440   2.491 -0.2372  0.3476  0.1579
   39HTM   C191 4962  -2.774   5.364   2.981  0.2667 -0.3739 -0.6460
   39HTM   C192 4963  -2.822   5.491   2.996  0.4116 -0.2881 -0.9095
   39HTM   C193 4964  -2.962   5.504   2.965  0.3734 -0.2385 -0.7167
   39HTM   C194 4965  -3.021   5.387   2.928  0.1995 -0.2865 -0.3061
   39HTM    S20 4966  -2.903   5.250   2.928  0.0694 -0.3991 -0.1298
   40TAL   C195 4967  -3.027   5.638   2.980  0.1714 -0.2254  0.1400
   40TAL   C196 4968  -3.019   5.746   2.870  0.9680 -0.0377 -0.1890
   40TAL   C197 4969  -3.126   5.864   2.907 -0.0281  0.2259  0.2829
   40TAL   C198 4970  -3.128   6.009   2.826  0.7691  0.4808 -1.7288
   40TAL   C199 4971  -2.994   6.080   2.822  0.4599 -0.2981 -0.0419
   40TAL   C200 4972  -2.982   6.227   2.770  0.6186  0.4371 -0.6214
   41HTM   C201 4973  -3.150   5.356   2.870 -0.2847 -0.1955  0.6864
   41HTM   C202 4974  -3.221   5.240   2.877 -0.4122 -0.1184  0.6722
   41HTM   C203 4975  -3.361   5.255   2.844 -0.3704  0.0150  0.5561
   41HTM   C204 4976  -3.396   5.382   2.810 -0.2107  0.0396  0.4816
   41HTM    S21 4977  -3.254   5.494   2.819 -0.1002 -0.1047  0.5530
   42TAL   C205 4978  -3.460   5.146   2.878  1.0628 -0.1188  0.0660
   42TAL   C206 4979  -3.507   5.116   3.019  0.4953  0.0981  0.0384
   42TAL   C207 4980  -3.547   5.232   3.107  0.7270 -0.4451 -1.0460
   42TAL   C208 4981  -3.580   5.183   3.249  0.7128 -0.1971  0.0928
   42TAL   C209 4982  -3.709   5.093   3.272  0.0165  0.3129 -0.2958
   42TAL   C210 4983  -3.668   4.944   3.287  0.7448 -0.3059  0.5605
   43HTM   C211 4984  -3.522   5.445   2.782 -0.2480  0.2160 -0.1354
   43HTM   C212 4985  -3.597   5.537   2.848  0.1411  0.5888 -0.2080
   43HTM   C213 4986  -3.721   5.569   2.783  0.0746  0.7381 -0.0100
   43HTM   C214 4987  -3.742   5.500   2.667 -0.3652  0.4792  0.2136
   43HTM    S22 4988  -3.604   5.390   2.631 -0.7326  0.0230  0.1913
   44TAL   C215 4989  -3.832   5.667   2.856 -0.8307  1.2336  0.2538
   44TAL   C216 4990  -3.808   5.710   2.999 -0.1219  0.0898 -0.0734
   44TAL   C217 4991  -3.700   5.818   3.008 -0.0236  0.1064 -0.4883
   44TAL   C218 4992  -3.683   5.894   3.135  0.2009 -1.1206 -0.7184
   44TAL   C219 4993  -3.575   6.006   3.120 -0.1885 -0.0055  0.5605
   44TAL   C220 4994  -3.563   6.109   3.220  0.2885 -0.4571 -1.0482
   45HTM   C221 4995  -3.850   5.497   2.571  0.2384 -0.1556 -0.0562
   45HTM   C222 4996  -3.950   5.406   2.550  0.6959 -0.6264 -0.2579
   45HTM   C223 4997  -4.042   5.445   2.446  0.5691 -0.9221 -0.2568
   45HTM   C224 4998  -4.012   5.564   2.388  0.0148 -0.6767 -0.0542
   45HTM    S23 4999  -3.864   5.638   2.460 -0.3930 -0.0482  0.1524
   46TAL   C225 5000  -4.152   5.341   2.399  0.3478  0.3662 -0.7967
   46TAL   C226 5001  -4.259   5.352   2.505 -0.3923  0.4695 -0.8748
   46TAL   C227 5002  -4.337   5.486   2.537  1.0492 -0.2925  0.4105
   46TAL   C228 5003  -4.411   5.526   2.418 -0.5611  0.7177 -0.0213
   46TAL   C229 5004  -4.521   5.629   2.416  0.5539  0.5310 -0.8804
   46TAL   C230 5005  -4.580   5.643   2.285 -0.5330  0.8261  0.8429
   47HTM   C231 5006  -4.081   5.643   2.288 -0.1396 -0.1475  0.3453
   47HTM   C232 5007  -4.118   5.774   2.290  0.5215  0.0526  0.0282
   47HTM   C233 5008  -4.185   5.817   2.170  0.8470  0.1360 -0.1254
   47HTM   C234 5009  -4.199   5.719   2.077  0.4342 -0.0002  0.0747
   47HTM    S24 5010  -4.128   5.563   2.134 -0.4043 -0.2469  0.4758
   48TAL   C235 5011  -4.238   5.956   2.151  1.1054  0.1136 -0.1713
   48TAL   C236 5012  -4.142   6.064   2.100  0.4409 -0.4173 -0.0453
   48TAL   C237 5013  -4.086   6.070   1.956 -0.7781 -0.5903  0.7874
   48TAL   C238 5014  -4.195   6.097   1.858 -0.0829  0.4029  0.0761
   48TAL   C239 5015  -4.154   6.191   1.743 -0.5921 -1.0326  0.0221
   48TAL   C240 5016  -4.101   6.105   1.647 -1.4033  1.4408  1.2699
    1HTM     C1 5017   5.559   6.031   0.930  0.0712  0.2255  0.4060
    1HTM     C2 5018   5.590   5.910   0.985 -0.2384  0.0259  0.1462
    1HTM     C3 5019   5.727   5.871   0.964 -0.3885 -0.3756 -0.1095
    1HTM     C4 5020   5.800   5.962   0.894 -0.1934 -0.4821 -0.0446
    1HTM     S1 5021   5.701   6.105   0.848  0.1980 -0.0802  0.3475
    2TAL     C5 5022   5.763   5.731   1.006 -0.6663  0.9872 -0.1130
    2TAL     C6 5023   5.870   5.652   0.909  0.7476 -0.7413 -0.8643
    2TAL     C7 5024   5.791   5.570   0.818  0.5754 -0.1781 -0.0649
    2TAL     C8 5025   5.857   5.500   0.704  1.0985 -0.6712 -0.4532
    2TAL     C9 5026   5.956   5.397   0.715 -0.8601  0.1297  0.0240
    2TAL    C10 5027   5.983   5.314   0.583  0.3830  0.3053 -0.1108
    3HTM    C11 5028   5.948   5.970   0.860 -0.1046  0.6381 -0.4138
    3HTM    C12 5029   6.056   5.981   0.943 -0.2939  0.9886 -0.2091
    3HTM    C13 5030   6.182   5.984   0.873 -0.1351  0.7490  0.0654
    3HTM    C14 5031   6.170   5.974   0.738  0.1751  0.2156  0.0701
    3HTM     S2 5032   5.997   5.961   0.687  0.2919 -0.0273 -0.2746
    4TAL    C15 5033   6.308   5.987   0.966 -0.1169  0.6729 -0.0343
    4TAL    C16 5034   6.294   5.939   1.112 -0.6023 -0.3596  1.1675
    4TAL    C17 5035   6.402   5.966   1.212  0.3795  0.2235  0.4696
    4TAL    C18 5036   6.365   5.915   1.345  0.9771 -0.2837 -1.6956
    4TAL    C19 5037   6.391   5.770   1.366 -0.9294 -0.0643 -0.3377
    4TAL    C20 5038   6.325   5.723   1.494  1.2426 -0.0789  0.0902
    5HTM    C21 5039   6.281   5.972   0.636  1.0980  0.3067  0.3847
    5HTM    C22 5040   6.414   5.992   0.658  1.2649 -0.0434 -0.2352
    5HTM    C23 5041   6.496   5.972   0.542  0.6342  0.0454 -0.7071
    5HTM    C24 5042   6.426   5.935   0.431 -0.0133  0.4630 -0.4470
    5HTM     S3 5043   6.249   5.924   0.465  0.1242  0.7789  0.4208
    6TAL    C25 5044   6.650   5.959   0.550  1.5310  0.4643 -0.3827
    6TAL    C26 5045   6.698   5.817   0.566 -0.4620 -0.3935 -0.3802
    6TAL    C27 5046   6.853   5.810   0.583 -0.0614 -1.2162  1.7410
    6TAL    C28 5047   6.905   5.842   0.720  0.3799  0.0197 -1.1390
    6TAL    C29 5048   7.047   5.786   0.762 -0.0300 -0.2593 -0.6707
    6TAL    C30 5049   7.059   5.861   0.900 -0.4668  0.1418  0.3739
    7HTM    C31 5050   6.465   5.931   0.292 -0.0241  0.3532  0.4726
    7HTM    C32 5051   6.577   5.892   0.224  0.3041  0.6939  0.8153
    7HTM    C33 5052   6.565   5.902   0.081  0.7536  0.7565  0.7783
    7HTM    C34 5053   6.444   5.947   0.039  0.7684  0.4635  0.4074
    7HTM     S4 5054   6.334   5.982   0.178  0.2111  0.0830  0.0735
    8TAL    C35 5055   6.664   5.841  -0.021  0.2765  0.4426 -0.0979
    8TAL    C36 5056   6.809   5.818   0.023  0.4607  1.2101  0.3945
    8TAL    C37 5057   6.839   5.683   0.078 -0.6381  0.3250 -0.8724
    8TAL    C38 5058   6.866   5.584  -0.030 -0.7725 -1.0837  0.6361
    8TAL    C39 5059   6.869   5.427  -0.013 -0.6028 -0.6350 -0.4475
    8TAL    C40 5060   6.731   5.391   0.033 -0.1139 -0.2333 -0.4581
    9HTM    C41 5061   6.385   5.966  -0.092  0.1960 -0.1656  0.0594
    9HTM    C42 5062   6.356   5.876  -0.191  0.1527 -0.0982  0.0100
    9HTM    C43 5063   6.312   5.937  -0.314 -0.1905 -0.0284  0.1667
    9HTM    C44 5064   6.306   6.073  -0.308 -0.4090 -0.0427  0.3355
    9HTM     S5 5065   6.357   6.136  -0.147 -0.1964 -0.1464  0.3092
   10TAL    C45 5066   6.264   5.854  -0.424 -0.1815  0.3706  1.0685
   10TAL    C46 5067   6.362   5.789  -0.520  0.0083 -0.1853  0.1843
   10TAL    C47 5068   6.464   5.683  -0.459  0.6759 -0.9507  0.4497
   10TAL    C48 5069   6.584   5.664  -0.557  0.5509  0.4797 -0.2272
   10TAL    C49 5070   6.662   5.783  -0.585 -0.5694  0.3580 -0.6395
   10TAL    C50 5071   6.732   5.843  -0.477 -0.0630 -0.5768 -0.6357
   11HTM    C51 5072   6.267   6.180  -0.405  1.4499  0.3814  0.6378
   11HTM    C52 5073   6.158   6.261  -0.397  2.3046  1.4880  2.2840
   11HTM    C53 5074   6.146   6.353  -0.507  1.5881  1.6052  2.4509
   11HTM    C54 5075   6.246   6.342  -0.599  0.1871  0.5876  0.9327
   11HTM     S6 5076   6.364   6.214  -0.553 -0.3400 -0.6065 -0.8397
   12TAL    C55 5077   6.018   6.441  -0.530  0.8708 -0.4981  0.1367
   12TAL    C56 5078   5.892   6.422  -0.448 -0.0820  0.1007  0.1416
   12TAL    C57 5079   5.906   6.479  -0.313  0.0634 -0.5845 -0.2743
   12TAL    C58 5080   5.993   6.595  -0.254  0.1271 -0.5799 -0.2280
   12TAL    C59 5081   6.139   6.605  -0.251 -0.5578  0.0756  0.3310
   12TAL    C60 5082   6.200   6.729  -0.190 -0.2660 -0.2577  1.2902
   13HTM    C61 5083   6.268   6.414  -0.730 -0.8497 -0.0623 -0.0239
   13HTM    C62 5084   6.312   6.368  -0.850 -1.3347 -0.4777 -0.0508
   13HTM    C63 5085   6.317   6.469  -0.953 -0.9732 -0.6361 -0.1953
   13HTM    C64 5086   6.275   6.592  -0.911 -0.2129 -0.3415 -0.2784
   13HTM     S7 5087   6.227   6.590  -0.737  0.1083  0.1629 -0.1800
   14TAL    C65 5088   6.371   6.444  -1.093 -1.0944  0.2732  0.9617
   14TAL    C66 5089   6.261   6.374  -1.172 -0.2798  0.1247  0.4025
   14TAL    C67 5090   6.312   6.315  -1.298  0.2408  2.0764  0.7104
   14TAL    C68 5091   6.229   6.215  -1.384 -0.9604 -0.3056  0.8949
   14TAL    C69 5092   6.247   6.065  -1.381  0.2253  0.7818 -0.2385
   14TAL    C70 5093   6.138   5.981  -1.458 -0.8023 -0.1486 -0.2076
   15HTM    C71 5094   6.272   6.722  -0.979 -0.9050  0.0154 -0.5861
   15HTM    C72 5095   6.183   6.818  -0.942 -1.1188 -0.0490 -0.9210
   15HTM    C73 5096   6.179   6.931  -1.031 -0.5533  0.1400 -0.7195
   15HTM    C74 5097   6.264   6.920  -1.137  0.0919  0.3485 -0.2302
   15HTM     S8 5098   6.358   6.766  -1.131  0.0347  0.3221  0.0155
   16TAL    C75 5099   6.095   7.053  -1.025  1.0879  0.2633  0.1007
   16TAL    C76 5100   5.946   7.012  -1.019  0.0339 -0.0054 -0.2787
   16TAL    C77 5101   5.833   7.106  -0.986  0.7474  0.2912 -0.2857
   16TAL    C78 5102   5.764   7.182  -1.099 -0.0547 -0.3632 -0.1597
   16TAL    C79 5103   5.689   7.309  -1.049 -0.6775 -0.2714 -0.0584
   16TAL    C80 5104   5.575   7.380  -1.128 -1.3516 -0.5814  0.7477
   17HTM    C81 5105   6.305   7.008  -1.244 -0.0626 -0.0863 -0.4563
   17HTM    C82 5106   6.334   6.957  -1.366 -0.2390  0.1835 -0.6149
   17HTM    C83 5107   6.359   7.057  -1.467 -0.5978  0.4070 -0.4845
   17HTM    C84 5108   6.348   7.185  -1.421 -0.6949  0.3074 -0.2262
   17HTM     S9 5109   6.305   7.189  -1.246 -0.3379 -0.0791 -0.1271
   18TAL    C85 5110   6.386   7.016  -1.606  0.7780 -0.2017  0.8408
   18TAL    C86 5111   6.289   6.923  -1.685 -0.5954  0.5589  0.5302
   18TAL    C87 5112   6.315   6.895  -1.832 -0.2861 -0.9019  0.2666
   18TAL    C88 5113   6.340   7.030  -1.904  0.3504 -0.2904 -0.2413
   18TAL    C89 5114   6.400   7.020  -2.041  0.3051  0.7428 -0.8422
   18TAL    C90 5115   6.369   7.157  -2.110 -0.3866 -0.1474 -0.3689
   19HTM    C91 5116   6.390   7.310  -1.488 -0.5427  0.4511 -0.2541
   19HTM    C92 5117   6.391   7.437  -1.438 -1.3615  0.6518 -0.6995
   19HTM    C93 5118   6.443   7.535  -1.530 -1.1702  0.5163 -0.7377
   19HTM    C94 5119   6.481   7.483  -1.650 -0.2056  0.2121 -0.3215
   19HTM    S10 5120   6.454   7.304  -1.656  0.5418  0.0723  0.1548
   20TAL    C95 5121   6.447   7.680  -1.477 -0.4649  1.6623 -0.0834
   20TAL    C96 5122   6.580   7.730  -1.453 -0.3775 -0.4432 -0.7037
   20TAL    C97 5123   6.584   7.862  -1.380  0.0624  0.7968  0.7053
   20TAL    C98 5124   6.714   7.936  -1.346  0.3989 -0.2887  0.0836
   20TAL    C99 5125   6.829   7.864  -1.272 -0.2964  0.8439 -0.2634
   20TAL   C100 5126   6.805   7.822  -1.127  1.0961  0.6823  0.4482
   21HTM   C101 5127   6.545   7.540  -1.769  0.1017 -0.0663 -0.3945
   21HTM   C102 5128   6.533   7.494  -1.897  0.5941  0.0122 -0.4712
   21HTM   C103 5129   6.606   7.572  -1.994  0.6462  0.3073 -0.1975
   21HTM   C104 5130   6.673   7.678  -1.940  0.1935  0.4539  0.0881
   21HTM    S11 5131   6.649   7.687  -1.761 -0.3379  0.2288  0.0329
   22TAL   C105 5132   6.587   7.502  -2.125 -0.2897  0.5629  0.2870
   22TAL   C106 5133   6.564   7.598  -2.241 -0.8261  0.3685  0.4467
   22TAL   C107 5134   6.561   7.530  -2.387  0.2592 -0.1962  0.0692
   22TAL   C108 5135   6.537   7.620  -2.505  1.3246 -1.0747  0.0560
   22TAL   C109 5136   6.531   7.536  -2.633  0.0948  0.4296  0.5762
   22TAL   C110 5137   6.672   7.492  -2.685  1.5284 -0.0312  1.5731
   23HTM   C111 5138   6.754   7.781  -1.999 -0.5080  0.2452 -0.8124
   23HTM   C112 5139   6.874   7.781  -2.064 -0.6982 -0.0157 -1.1696
   23HTM   C113 5140   6.923   7.912  -2.097 -0.2373 -0.0879 -0.7968
   23HTM   C114 5141   6.840   8.013  -2.057  0.3042  0.1182 -0.1554
   23HTM    S12 5142   6.693   7.949  -1.974  0.2741  0.4213  0.0289
   24TAL   C115 5143   7.061   7.924  -2.151 -0.5981  0.4640 -0.0799
   24TAL   C116 5144   7.168   7.837  -2.081  0.7092 -0.1378  0.4848
   24TAL   C117 5145   7.278   7.793  -2.169 -0.4647  0.5051  0.7798
   24TAL   C118 5146   7.364   7.672  -2.136  0.4762 -0.2421  1.0725
   24TAL   C119 5147   7.458   7.631  -2.260 -0.1177 -0.8154  0.3370
   24TAL   C120 5148   7.606   7.643  -2.207  0.2083  0.1068  0.6112
   25HTM   C121 5149   6.841   8.155  -2.089  0.1971 -0.0124  0.3101
   25HTM   C122 5150   6.749   8.247  -2.051  0.3061 -0.0947  0.7868
   25HTM   C123 5151   6.779   8.381  -2.097  0.0774 -0.0262  0.8340
   25HTM   C124 5152   6.894   8.390  -2.169 -0.2060  0.1085  0.3933
   25HTM    S13 5153   6.974   8.229  -2.186 -0.2061  0.1592 -0.1195
   26TAL   C125 5154   6.672   8.487  -2.114  0.1951  1.4126  0.5889
   26TAL   C126 5155   6.654   8.587  -1.999 -0.0824 -0.1669 -1.2227
   26TAL   C127 5156   6.561   8.703  -2.027  0.1796 -0.5181 -0.5694
   26TAL   C128 5157   6.407   8.663  -2.045 -0.2676  0.5296 -0.5400
   26TAL   C129 5158   6.326   8.789  -2.095 -0.4522  0.8026 -0.0199
   26TAL   C130 5159   6.355   8.922  -2.034  0.1459  0.7850 -0.6444
   27HTM   C131 5160   6.964   8.502  -2.225  0.4964 -0.0102 -0.1913
   27HTM   C132 5161   7.021   8.513  -2.348  2.1163  0.0732  0.5130
   27HTM   C133 5162   7.069   8.646  -2.379  2.3822  0.1321  1.1500
   27HTM   C134 5163   7.048   8.736  -2.279  0.9649  0.0935  0.9316
   27HTM    S14 5164   6.966   8.660  -2.137 -0.8293 -0.0206 -0.1037
   28TAL   C135 5165   7.123   8.677  -2.517  0.4158 -0.2945 -0.4744
   28TAL   C136 5166   7.271   8.643  -2.552 -0.3268  0.3875  0.0942
   28TAL   C137 5167   7.319   8.499  -2.543 -0.3621 -0.0596  0.7949
   28TAL   C138 5168   7.471   8.497  -2.587 -0.0133 -0.5254  0.1173
   28TAL   C139 5169   7.522   8.365  -2.581  0.4960  0.1145  0.2356
   28TAL   C140 5170   7.661   8.340  -2.608  0.0869  0.0973 -0.0851
   29HTM   C141 5171   7.085   8.882  -2.273  0.2824  0.6046  0.3220
   29HTM   C142 5172   7.189   8.932  -2.201  0.2165  0.9418  0.1839
   29HTM   C143 5173   7.220   9.070  -2.231  0.0337  0.9007 -0.1930
   29HTM   C144 5174   7.139   9.124  -2.328 -0.0397  0.5316 -0.3420
   29HTM    S15 5175   7.018   9.004  -2.387  0.1175  0.2049 -0.0155
   30TAL   C145 5176   7.324   9.143  -2.153 -0.5030  0.1997  1.1738
   30TAL   C146 5177   7.345   9.132  -2.002  0.0214 -0.7289 -0.2548
   30TAL   C147 5178   7.216   9.159  -1.914  0.7134 -0.7444  0.0319
   30TAL   C148 5179   7.177   9.311  -1.906  0.6580 -0.3628 -0.3459
   30TAL   C149 5180   7.023   9.331  -1.890  0.2986  0.4825  0.1729
   30TAL   C150 5181   6.978   9.477  -1.901  0.3805 -0.8411  0.4709
   31HTM   C151 5182   7.132   9.247  -2.395  0.4290 -0.5834 -0.6053
   31HTM   C152 5183   7.038   9.284  -2.486  0.6886 -0.7992 -0.9667
   31HTM   C153 5184   7.050   9.420  -2.530  0.1079 -0.5410 -0.3577
   31HTM   C154 5185   7.154   9.487  -2.472 -0.5946 -0.1284  0.4682
   31HTM    S16 5186   7.245   9.383  -2.357 -0.5770 -0.0330  0.5414
   32TAL   C155 5187   6.948   9.484  -2.624  1.0814 -0.2688  0.0228
   32TAL   C156 5188   6.804   9.473  -2.578  0.6190 -0.0210 -0.5623
   32TAL   C157 5189   6.706   9.557  -2.669  0.2848 -1.3605 -0.6586
   32TAL   C158 5190   6.700   9.710  -2.641  0.6600 -0.7617  0.6587
   32TAL   C159 5191   6.709   9.781  -2.511  0.4759 -0.3777  0.2619
   32TAL   C160 5192   6.842   9.823  -2.450 -0.2340  0.2605  1.0234
   33HTM   C161 5193   7.210   9.611  -2.481  0.3372 -0.1338 -0.4458
   33HTM   C162 5194   7.219   9.688  -2.593  0.8645 -0.2644 -0.4985
   33HTM   C163 5195   7.305   9.802  -2.578  0.7035 -0.1814 -0.1849
   33HTM   C164 5196   7.362   9.812  -2.454  0.0533  0.0129  0.1071
   33HTM    S17 5197   7.310   9.677  -2.346 -0.4092  0.1065  0.0077
   34TAL   C165 5198   7.308   9.893  -2.700  0.5549 -0.5502 -0.4614
   34TAL   C166 5199   7.175   9.989  -2.711 -0.6040  0.0396 -0.1824
   34TAL   C167 5200   7.127  10.068  -2.585  0.3965 -1.2708  0.6229
   34TAL   C168 5201   7.048  10.198  -2.617 -0.1468  0.4503 -0.5171
   34TAL   C169 5202   7.129  10.295  -2.700  0.1925  0.0541 -0.5177
   34TAL   C170 5203   7.226  10.389  -2.621  0.0253  0.9334 -0.3098
   35HTM   C171 5204   7.452   9.910  -2.395 -0.5671  0.4724 -0.1825
   35HTM   C172 5205   7.452   9.945  -2.264 -0.8905  0.4898 -0.1860
   35HTM   C173 5206   7.524  10.066  -2.236 -0.5109  0.2154  0.0449
   35HTM   C174 5207   7.579  10.124  -2.346  0.1018 -0.0112  0.2243
   35HTM    S18 5208   7.544  10.029  -2.495  0.2483  0.1053  0.1149
   36TAL   C175 5209   7.544  10.119  -2.100 -0.2855  0.2674 -0.7647
   36TAL   C176 5210   7.424  10.142  -2.001 -0.3523 -0.4683 -0.5321
   36TAL   C177 5211   7.336  10.030  -1.967 -0.5870 -0.1590  0.1186
   36TAL   C178 5212   7.218  10.068  -1.879  0.0154 -0.4220  0.3191
   36TAL   C179 5213   7.100   9.973  -1.878 -1.2021  0.1480  0.6406
   36TAL   C180 5214   7.133   9.821  -1.864 -0.7890 -0.1607  0.1971
   37HTM   C181 5215   7.642  10.258  -2.351 -0.5055  1.0042 -0.0119
   37HTM   C182 5216   7.592  10.369  -2.413 -0.2457  1.2692  0.2450
   37HTM   C183 5217   7.686  10.479  -2.421  0.1321  0.9476  0.1925
   37HTM   C184 5218   7.807  10.451  -2.365  0.1603  0.4375 -0.1045
   37HTM    S19 5219   7.813  10.284  -2.298 -0.2916  0.3227 -0.3428
   38TAL   C185 5220   7.656  10.599  -2.501  0.7113 -0.1973  0.9363
   38TAL   C186 5221   7.599  10.709  -2.402 -0.2728  0.6918 -0.3595
   38TAL   C187 5222   7.550  10.835  -2.479  0.6594  0.5079  0.3260
   38TAL   C188 5223   7.422  10.841  -2.569 -0.3296  1.1082 -0.2830
   38TAL   C189 5224   7.295  10.858  -2.497  0.2822  0.8701 -0.3135
   38TAL   C190 5225   7.176  10.843  -2.601 -0.8689 -0.0276 -1.4239
   39HTM   C191 5226   7.926  10.542  -2.337 -0.3278 -0.1346 -0.0768
   39HTM   C192 5227   7.969  10.653  -2.405 -0.5229 -0.0854 -0.1189
   39HTM   C193 5228   8.090  10.710  -2.352 -0.6156  0.1400 -0.1489
   39HTM   C194 5229   8.140  10.643  -2.244 -0.4916  0.2625 -0.1299
   39HTM    S20 5230   8.037  10.501  -2.201 -0.2460  0.1016 -0.0719
   40TAL   C195 5231   8.162  10.820  -2.432  0.7964 -0.4573 -0.7768
   40TAL   C196 5232   8.167  10.804  -2.588 -1.1146  0.4187 -0.2532
   40TAL   C197 5233   8.223  10.934  -2.655 -0.7891 -0.1628  0.9885
   40TAL   C198 5234   8.355  10.996  -2.600  0.3154  1.2385  0.0274
   40TAL   C199 5235   8.474  10.907  -2.580  0.1590 -0.0071 -0.1555
   40TAL   C200 5236   8.588  10.959  -2.483  0.2330  0.1459  0.5609
   41HTM   C201 5237   8.264  10.669  -2.169  0.4746  0.1744 -0.2831
   41HTM   C202 5238   8.357  10.578  -2.131  1.0133  0.5120 -0.7629
   41HTM   C203 5239   8.466  10.634  -2.056  0.8101  0.7987 -0.6796
   41HTM   C204 5240   8.456  10.769  -2.037  0.1161  0.6797 -0.1362
   41HTM    S21 5241   8.306  10.835  -2.112 -0.3377  0.1924  0.3158
   42TAL   C205 5242   8.574  10.555  -1.987  0.5973 -0.3172 -0.2613
   42TAL   C206 5243   8.535  10.437  -1.901 -0.0395  0.9385 -0.4277
   42TAL   C207 5244   8.483  10.488  -1.776  0.1639  0.2328  0.8924
   42TAL   C208 5245   8.476  10.392  -1.662 -0.5867 -1.1099 -0.4782
   42TAL   C209 5246   8.580  10.391  -1.544 -0.1440  1.2137  0.9762
   42TAL   C210 5247   8.712  10.352  -1.579 -0.9314 -0.0255  0.0471
   43HTM   C211 5248   8.525  10.866  -1.953  0.2440  0.4957  0.0810
   43HTM   C212 5249   8.641  10.931  -1.982  0.1602  0.7045  0.2022
   43HTM   C213 5250   8.697  11.003  -1.871  0.0012  0.6699  0.3058
   43HTM   C214 5251   8.624  10.994  -1.757 -0.0365  0.4347  0.2635
   43HTM    S22 5252   8.476  10.892  -1.781  0.1272  0.2372  0.0881
   44TAL   C215 5253   8.833  11.079  -1.865 -0.5680 -0.1023 -0.4641
   44TAL   C216 5254   8.885  11.139  -2.005  0.4728  0.1066 -0.4019
   44TAL   C217 5255   9.007  11.220  -2.010 -1.1159 -0.3013 -0.4583
   44TAL   C218 5256   9.063  11.246  -2.147  0.3143 -1.0643 -0.2726
   44TAL   C219 5257   9.211  11.279  -2.130 -0.4385  0.3188  0.2914
   44TAL   C220 5258   9.263  11.331  -2.263  0.1612 -0.8656  0.3234
   45HTM   C221 5259   8.644  11.045  -1.620 -0.6862 -0.4272  0.2829
   45HTM   C222 5260   8.764  11.040  -1.555 -0.7803 -0.7637  0.4311
   45HTM   C223 5261   8.768  11.118  -1.434 -0.6437 -0.6070  0.3257
   45HTM   C224 5262   8.651  11.183  -1.408 -0.4456 -0.1510  0.0973
   45HTM    S23 5263   8.526  11.151  -1.534 -0.4158  0.1178 -0.0029
   46TAL   C225 5264   8.913  11.129  -1.375  0.1129 -0.4651  0.6648
   46TAL   C226 5265   8.971  11.011  -1.293  0.0766  0.4277 -0.2756
   46TAL   C227 5266   8.893  10.936  -1.181 -0.1979 -0.7026  0.5709
   46TAL   C228 5267   8.913  10.789  -1.169 -0.0680 -0.9022  0.2469
   46TAL   C229 5268   8.906  10.697  -1.287 -0.3310 -0.6821  0.5464
   46TAL   C230 5269   8.927  10.536  -1.276  0.8503 -0.1563 -0.6962
   47HTM   C231 5270   8.620  11.267  -1.291 -0.1404  0.5668  0.1571
   47HTM   C232 5271   8.519  11.359  -1.290 -0.3235  0.3660  0.5531
   47HTM   C233 5272   8.495  11.417  -1.161 -0.2651 -0.0442  0.7534
   47HTM   C234 5273   8.577  11.371  -1.063 -0.0368 -0.1563  0.5099
   47HTM    S24 5274   8.693  11.248  -1.127  0.1225  0.2509  0.0054
   48TAL   C235 5275   8.387  11.522  -1.132 -0.9771 -0.5573 -1.0836
   48TAL   C236 5276   8.343  11.499  -0.981  0.3470  0.4792  0.0829
   48TAL   C237 5277   8.224  11.579  -0.926 -0.7933 -0.6750  0.0744
   48TAL   C238 5278   8.168  11.532  -0.784  0.3518 -0.8608  0.6033
   48TAL   C239 5279   8.021  11.562  -0.772 -0.6911  0.1060  0.4883
   48TAL   C240 5280   7.977  11.716  -0.775 -0.3632 -0.4134  0.3588
    1HTM     C1 5281   6.574   7.360   5.039  0.0390 -0.1014 -0.0584
    1HTM     C2 5282   6.451   7.407   5.003 -0.1924 -0.3374  0.4109
    1HTM     C3 5283   6.385   7.324   4.906 -0.3123 -0.3461  0.4996
    1HTM     C4 5284   6.457   7.215   4.868 -0.1723 -0.1165  0.0978
    1HTM     S1 5285   6.616   7.208   4.952  0.1241  0.1301 -0.4280
    2TAL     C5 5286   6.247   7.376   4.862  0.3173 -0.5449 -0.3829
    2TAL     C6 5287   6.212   7.522   4.831 -0.0429  0.9549  0.2626
    2TAL     C7 5288   6.296   7.577   4.721 -0.6117 -0.9975 -0.6802
    2TAL     C8 5289   6.323   7.726   4.727 -0.3734 -0.0332  0.1048
    2TAL     C9 5290   6.384   7.765   4.867  1.2596  0.3208 -0.7595
    2TAL    C10 5291   6.425   7.912   4.874 -0.4128 -0.7769  0.0074
    3HTM    C11 5292   6.410   7.096   4.800  0.1866  0.2586 -0.8078
    3HTM    C12 5293   6.314   7.089   4.703  0.6654  0.3376 -1.2943
    3HTM    C13 5294   6.310   6.962   4.635  0.7219  0.2429 -1.1225
    3HTM    C14 5295   6.403   6.873   4.680  0.2861  0.0918 -0.5049
    3HTM     S2 5296   6.503   6.942   4.813 -0.2334  0.0570 -0.0893
    4TAL    C15 5297   6.206   6.927   4.520 -0.5208  0.1708  0.8661
    4TAL    C16 5298   6.083   7.022   4.482  0.2760  0.6067  0.0264
    4TAL    C17 5299   5.955   6.948   4.435 -0.6108  0.2628 -0.0954
    4TAL    C18 5300   5.912   6.828   4.525  0.5224  0.5838 -0.0145
    4TAL    C19 5301   5.819   6.716   4.459 -0.1945 -1.0588  0.7477
    4TAL    C20 5302   5.706   6.756   4.361  0.1298 -0.1947 -0.9513
    5HTM    C21 5303   6.437   6.739   4.640 -0.2332  0.0860  0.0272
    5HTM    C22 5304   6.548   6.666   4.673 -0.5178 -0.1292  0.5186
    5HTM    C23 5305   6.563   6.546   4.596 -0.4053 -0.1568  0.5834
    5HTM    C24 5306   6.465   6.527   4.504 -0.0348  0.0374  0.1417
    5HTM     S3 5307   6.344   6.661   4.507  0.2024  0.2718 -0.3949
    6TAL    C25 5308   6.690   6.458   4.606 -0.3575  1.1487 -0.0386
    6TAL    C26 5309   6.691   6.350   4.717 -0.5907  0.5215 -0.6549
    6TAL    C27 5310   6.804   6.245   4.723 -0.4913  0.1171 -0.9152
    6TAL    C28 5311   6.800   6.179   4.858 -0.5734  1.0428 -1.1908
    6TAL    C29 5312   6.685   6.093   4.902  0.3302 -0.4957 -0.2623
    6TAL    C30 5313   6.739   5.970   4.985 -0.2907 -1.3305  0.2593
    7HTM    C31 5314   6.454   6.421   4.398 -0.5432 -0.3033 -0.3663
    7HTM    C32 5315   6.460   6.424   4.262 -1.1086 -0.7098 -0.4014
    7HTM    C33 5316   6.455   6.293   4.202 -0.9557 -0.9174  0.0283
    7HTM    C34 5317   6.446   6.191   4.292 -0.2737 -0.6692  0.3909
    7HTM     S4 5318   6.443   6.253   4.462  0.2321 -0.1501  0.2167
    8TAL    C35 5319   6.458   6.282   4.053 -0.0895 -0.1102  0.7940
    8TAL    C36 5320   6.322   6.320   3.995  0.2691 -0.7207  0.4355
    8TAL    C37 5321   6.305   6.295   3.843 -0.2052 -0.4753  1.2398
    8TAL    C38 5322   6.171   6.348   3.781  0.3365  0.1106 -1.0346
    8TAL    C39 5323   6.059   6.256   3.822 -0.5577 -0.9385  0.1389
    8TAL    C40 5324   5.918   6.279   3.759 -0.4463 -0.3225 -0.3077
    9HTM    C41 5325   6.466   6.050   4.274 -0.4191  0.4223 -0.2931
    9HTM    C42 5326   6.528   5.973   4.367 -0.3321  0.7564 -0.0744
    9HTM    C43 5327   6.557   5.839   4.323 -0.0385  0.7094  0.2484
    9HTM    C44 5328   6.517   5.814   4.195  0.0982  0.3397  0.2759
    9HTM     S5 5329   6.438   5.958   4.121 -0.1349  0.0196 -0.1067
   10TAL    C45 5330   6.591   5.736   4.431 -0.4234  0.4107  0.1901
   10TAL    C46 5331   6.711   5.648   4.405 -0.0407  0.0630  0.3339
   10TAL    C47 5332   6.750   5.545   4.507  0.5202 -0.2193 -0.7044
   10TAL    C48 5333   6.801   5.592   4.645 -0.7651  1.0915 -0.1485
   10TAL    C49 5334   6.922   5.504   4.697  0.1491  0.0569 -0.6661
   10TAL    C50 5335   7.023   5.596   4.756 -0.8841 -0.0946  0.1533
   11HTM    C51 5336   6.559   5.704   4.099 -0.0129 -0.0819 -0.1231
   11HTM    C52 5337   6.492   5.585   4.091 -0.2937  0.0914 -0.3717
   11HTM    C53 5338   6.553   5.491   4.000 -0.5362  0.1472 -0.5959
   11HTM    C54 5339   6.666   5.538   3.940 -0.4401  0.0164 -0.5183
   11HTM     S6 5340   6.705   5.706   3.994 -0.0330 -0.1889 -0.1531
   12TAL    C55 5341   6.479   5.363   3.994  0.7936 -0.2965 -0.0530
   12TAL    C56 5342   6.536   5.224   3.947  0.5411 -0.2181  0.0196
   12TAL    C57 5343   6.415   5.133   3.945  0.8322  0.9244 -0.2888
   12TAL    C58 5344   6.374   5.060   3.821  0.1205 -0.3812  0.6736
   12TAL    C59 5345   6.466   4.945   3.774  0.0838  0.9052  0.2220
   12TAL    C60 5346   6.591   4.980   3.690  0.0549  0.2142 -0.6560
   13HTM    C61 5347   6.752   5.479   3.836 -0.4599  0.0249 -0.2587
   13HTM    C62 5348   6.716   5.442   3.710 -0.2873  0.2739 -0.3830
   13HTM    C63 5349   6.827   5.430   3.619 -0.1495  0.3333 -0.2236
   13HTM    C64 5350   6.948   5.457   3.676 -0.2173  0.1296  0.0221
   13HTM     S7 5351   6.931   5.501   3.850 -0.4621 -0.1553  0.0717
   14TAL    C65 5352   6.804   5.379   3.483  0.4246  0.1858  0.0298
   14TAL    C66 5353   6.665   5.353   3.423 -0.5028  0.8792  0.0511
   14TAL    C67 5354   6.607   5.477   3.356 -0.6930 -0.0550  0.7895
   14TAL    C68 5355   6.466   5.475   3.333  0.6351 -0.9042 -0.0043
   14TAL    C69 5356   6.410   5.610   3.296 -0.1321 -0.1781 -0.0626
   14TAL    C70 5357   6.267   5.628   3.358 -0.0083 -0.2941 -0.4115
   15HTM    C71 5358   7.090   5.446   3.636 -0.0931 -0.3262 -0.2762
   15HTM    C72 5359   7.163   5.516   3.545 -0.1274 -0.2689 -0.2601
   15HTM    C73 5360   7.305   5.497   3.558 -0.1036  0.0302 -0.0757
   15HTM    C74 5361   7.341   5.413   3.659 -0.0509  0.2007  0.0488
   15HTM     S8 5362   7.196   5.350   3.746 -0.0274 -0.0044 -0.0582
   16TAL    C75 5363   7.394   5.590   3.470  0.3616  0.6886  0.6908
   16TAL    C76 5364   7.543   5.551   3.432  0.1291  0.5432  1.5508
   16TAL    C77 5365   7.643   5.658   3.388 -0.3227 -0.8453 -0.4087
   16TAL    C78 5366   7.786   5.604   3.404  0.1412  0.2247 -1.0064
   16TAL    C79 5367   7.883   5.711   3.376 -0.5562 -0.0023 -0.3377
   16TAL    C80 5368   7.905   5.738   3.228  1.5296  0.3570 -0.8533
   17HTM    C81 5369   7.467   5.370   3.716  0.0106 -0.0490  0.2994
   17HTM    C82 5370   7.513   5.386   3.843  0.0296 -1.1791  0.4559
   17HTM    C83 5371   7.652   5.353   3.859 -0.1330 -1.9668  0.3039
   17HTM    C84 5372   7.712   5.311   3.744 -0.2759 -1.4375  0.0314
   17HTM     S9 5373   7.597   5.311   3.605 -0.2156  0.1089 -0.0550
   18TAL    C85 5374   7.719   5.374   3.987  0.8207  0.7180  0.1680
   18TAL    C86 5375   7.663   5.283   4.101 -0.1019  0.4829  0.0237
   18TAL    C87 5376   7.728   5.308   4.246  0.3187  0.3268  0.3888
   18TAL    C88 5377   7.877   5.258   4.260  1.4720 -0.0399  0.1441
   18TAL    C89 5378   7.915   5.251   4.400 -0.2454  0.0799  0.0013
   18TAL    C90 5379   8.056   5.200   4.408 -0.1646  0.1617  0.1021
   19HTM    C91 5380   7.848   5.267   3.715 -0.7233  0.6859 -0.1110
   19HTM    C92 5381   7.910   5.155   3.760 -1.3982  0.1281 -0.5177
   19HTM    C93 5382   8.039   5.132   3.700 -1.5595 -0.4773 -0.6475
   19HTM    C94 5383   8.075   5.227   3.609 -1.0072 -0.3811 -0.3399
   19HTM    S10 5384   7.948   5.354   3.592 -0.2347  0.4882  0.1415
   20TAL    C95 5385   8.132   5.020   3.739 -1.7668 -0.0270 -0.4089
   20TAL    C96 5386   8.141   5.005   3.897 -0.4087  1.2474  0.7762
   20TAL    C97 5387   8.229   4.894   3.956  0.0927  0.4958  0.0675
   20TAL    C98 5388   8.380   4.910   3.961 -0.1046  0.0110 -0.5073
   20TAL    C99 5389   8.422   5.045   4.007  0.2723 -0.6671 -0.4479
   20TAL   C100 5390   8.573   5.065   3.977 -0.1307 -0.3571  1.8572
   21HTM   C101 5391   8.191   5.254   3.530 -0.5958  0.7006  0.1600
   21HTM   C102 5392   8.318   5.274   3.574 -0.7358  0.7740  0.5361
   21HTM   C103 5393   8.415   5.281   3.469 -0.3531  0.3020  0.8472
   21HTM   C104 5394   8.363   5.267   3.344  0.0785 -0.1314  0.7083
   21HTM    S11 5395   8.184   5.242   3.350  0.0351  0.0243  0.1697
   22TAL   C105 5396   8.565   5.307   3.501 -1.1983 -1.0263 -0.5301
   22TAL   C106 5397   8.619   5.195   3.581 -1.1292 -0.2416  0.3792
   22TAL   C107 5398   8.761   5.194   3.612 -0.1819  0.2280 -0.3904
   22TAL   C108 5399   8.791   5.048   3.637  0.3983  0.1184  0.0205
   22TAL   C109 5400   8.916   4.986   3.695 -0.3380 -1.1279 -0.0648
   22TAL   C110 5401   8.944   5.021   3.838  0.6031  0.1220 -0.1175
   23HTM   C111 5402   8.423   5.265   3.207  0.0830  0.2672 -0.5454
   23HTM   C112 5403   8.554   5.271   3.168  0.0956 -0.0242 -0.5510
   23HTM   C113 5404   8.574   5.242   3.028  0.0947 -0.6605 -0.4238
   23HTM   C114 5405   8.458   5.214   2.961  0.0815 -0.8543 -0.3214
   23HTM    S12 5406   8.315   5.222   3.070  0.0692 -0.2433 -0.3779
   24TAL   C115 5407   8.698   5.235   2.955  0.8654 -0.6011 -0.1427
   24TAL   C116 5408   8.808   5.127   2.994  0.0877 -0.5347  1.1041
   24TAL   C117 5409   8.893   5.157   3.131 -0.4240  0.3389  0.3550
   24TAL   C118 5410   8.998   5.263   3.149 -0.5954  0.9686 -0.7103
   24TAL   C119 5411   9.139   5.244   3.080 -0.4480  0.9368  0.2555
   24TAL   C120 5412   9.264   5.256   3.170 -1.0108  0.1939 -1.1498
   25HTM   C121 5413   8.437   5.178   2.826  0.7305 -0.4985  0.3771
   25HTM   C122 5414   8.401   5.264   2.727  1.9772  0.4886  0.7277
   25HTM   C123 5415   8.392   5.203   2.597  2.0716  1.4058  0.2728
   25HTM   C124 5416   8.421   5.070   2.597  0.8972  1.1182 -0.4248
   25HTM    S13 5417   8.463   5.011   2.762 -0.4295 -0.3449 -0.5622
   26TAL   C125 5418   8.345   5.287   2.486  0.0219 -0.6743 -0.0100
   26TAL   C126 5419   8.248   5.227   2.386 -0.0183 -0.7934 -0.5691
   26TAL   C127 5420   8.117   5.217   2.451  1.8433 -0.4780  0.4163
   26TAL   C128 5421   8.005   5.148   2.356  0.4488  0.5014 -1.0030
   26TAL   C129 5422   8.018   4.995   2.341 -0.0521  2.1488  0.4156
   26TAL   C130 5423   7.888   4.914   2.296 -0.1375  0.0567 -0.4196
   27HTM   C131 5424   8.408   4.963   2.498 -0.1364  0.0020 -0.6452
   27HTM   C132 5425   8.477   4.959   2.380 -0.6204 -0.3430 -0.9235
   27HTM   C133 5426   8.459   4.836   2.307 -0.9739 -0.5370 -0.5209
   27HTM   C134 5427   8.376   4.747   2.369 -0.7598 -0.3402  0.0645
   27HTM    S14 5428   8.314   4.811   2.526 -0.0900  0.1093  0.1532
   28TAL   C135 5429   8.516   4.816   2.161 -0.7923  0.5622 -0.7776
   28TAL   C136 5430   8.640   4.718   2.150 -0.1105  0.1550  0.3076
   28TAL   C137 5431   8.759   4.730   2.245 -0.2708  0.3785  0.7389
   28TAL   C138 5432   8.845   4.601   2.234 -0.8427 -0.9487  0.3105
   28TAL   C139 5433   8.804   4.468   2.301  0.4737 -0.6579  1.0377
   28TAL   C140 5434   8.916   4.377   2.288  0.3101  1.2497 -0.2441
   29HTM   C141 5435   8.321   4.618   2.330 -0.1663  0.0106  0.2494
   29HTM   C142 5436   8.387   4.500   2.310 -0.3951 -0.3167  1.3019
   29HTM   C143 5437   8.303   4.395   2.258 -0.3815 -0.3101  1.2663
   29HTM   C144 5438   8.173   4.433   2.238 -0.1426  0.0224  0.1867
   29HTM    S15 5439   8.147   4.605   2.284  0.0859  0.3554 -0.8771
   30TAL   C145 5440   8.371   4.260   2.222  0.3507 -0.2373  0.8600
   30TAL   C146 5441   8.330   4.149   2.306 -0.6055  0.8223  0.7137
   30TAL   C147 5442   8.369   4.153   2.452 -0.2178 -0.3915 -0.1827
   30TAL   C148 5443   8.275   4.086   2.557  0.1542 -0.1505  0.0321
   30TAL   C149 5444   8.124   4.101   2.560  0.7397  0.0985  0.4337
   30TAL   C150 5445   8.057   4.245   2.566  0.7587 -0.3270  0.5118
   31HTM   C151 5446   8.052   4.362   2.190  0.1128  0.4269 -0.2757
   31HTM   C152 5447   7.934   4.345   2.255  0.1553  0.3910 -0.2077
   31HTM   C153 5448   7.839   4.264   2.183  0.2036  0.2120 -0.0731
   31HTM   C154 5449   7.885   4.220   2.062  0.1980  0.1113 -0.0383
   31HTM    S16 5450   8.053   4.276   2.030  0.1308  0.2358 -0.1740
   32TAL   C155 5451   7.709   4.204   2.246 -0.3726  0.4083  0.3240
   32TAL   C156 5452   7.743   4.107   2.357  1.8681  0.1687  0.9235
   32TAL   C157 5453   7.645   4.002   2.406  0.3123  0.3826 -0.5586
   32TAL   C158 5454   7.582   3.908   2.292 -0.5770  0.0200  0.7428
   32TAL   C159 5455   7.485   3.804   2.344 -0.9669  0.5778  0.6012
   32TAL   C160 5456   7.428   3.709   2.247 -0.3072 -0.3273  0.0123
   33HTM   C161 5457   7.825   4.142   1.960 -0.1620  0.3614 -0.7002
   33HTM   C162 5458   7.768   4.173   1.840 -0.1047  0.2757 -0.7497
   33HTM   C163 5459   7.726   4.058   1.765 -0.3710  0.2326 -0.5395
   33HTM   C164 5460   7.751   3.939   1.827 -0.6316  0.2855 -0.3297
   33HTM    S17 5461   7.831   3.964   1.988 -0.5601  0.3948 -0.3818
   34TAL   C165 5462   7.700   4.072   1.618 -0.0056 -1.0549  0.2038
   34TAL   C166 5463   7.807   4.138   1.526  0.0586 -1.1516 -0.8174
   34TAL   C167 5464   7.813   4.077   1.394 -0.5202  0.0423  0.1470
   34TAL   C168 5465   7.931   4.151   1.310  0.9395  0.9920 -0.6209
   34TAL   C169 5466   7.940   4.107   1.164  0.1754 -0.4782  0.3174
   34TAL   C170 5467   7.977   3.959   1.146  0.3268 -0.9767 -0.9933
   35HTM   C171 5468   7.735   3.797   1.789  0.1162 -0.1308  0.0083
   35HTM   C172 5469   7.774   3.686   1.858  0.1122 -0.2256 -0.1422
   35HTM   C173 5470   7.731   3.562   1.798 -0.0974 -0.1349 -0.1786
   35HTM   C174 5471   7.658   3.579   1.684 -0.2533  0.0292 -0.0558
   35HTM    S18 5472   7.638   3.754   1.643 -0.1466  0.0822  0.1167
   36TAL   C175 5473   7.742   3.422   1.868 -0.3404  0.0408 -0.1448
   36TAL   C176 5474   7.808   3.404   2.011 -0.4687 -1.0576  0.3582
   36TAL   C177 5475   7.776   3.270   2.061  0.5172  0.0564 -0.2160
   36TAL   C178 5476   7.868   3.228   2.172  0.1706 -0.1536  0.3430
   36TAL   C179 5477   7.853   3.292   2.313  0.7757 -0.5740  0.3634
   36TAL   C180 5478   7.710   3.291   2.373 -0.0576 -0.1585  0.2722
   37HTM   C181 5479   7.587   3.483   1.604 -0.2344  0.0151 -0.0115
   37HTM   C182 5480   7.473   3.507   1.533 -0.2291 -0.1597 -0.0798
   37HTM   C183 5481   7.444   3.406   1.435 -0.2104 -0.3934  0.1512
   37HTM   C184 5482   7.536   3.305   1.431 -0.2016 -0.3967  0.3958
   37HTM    S19 5483   7.667   3.330   1.552 -0.2162 -0.1027  0.3528
   38TAL   C185 5484   7.324   3.427   1.341  0.5282  0.2766 -1.1375
   38TAL   C186 5485   7.215   3.537   1.356  0.4266  0.3694  0.5796
   38TAL   C187 5486   7.105   3.544   1.248 -0.0772  0.3337  0.4946
   38TAL   C188 5487   6.991   3.438   1.289 -0.5223 -0.6882 -0.9427
   38TAL   C189 5488   6.909   3.490   1.415  0.3476  0.4800 -0.3034
   38TAL   C190 5489   6.764   3.445   1.415  0.0931 -0.3267  1.0572
   39HTM   C191 5490   7.514   3.171   1.375  0.3451  0.1182  0.0457
   39HTM   C192 5491   7.611   3.076   1.378  0.1129 -0.1113  0.3623
   39HTM   C193 5492   7.572   2.951   1.318 -0.0485 -0.0779  0.3984
   39HTM   C194 5493   7.445   2.951   1.269  0.0606  0.1767  0.1093
   39HTM    S20 5494   7.364   3.111   1.295  0.3784  0.3961 -0.2336
   40TAL   C195 5495   7.686   2.853   1.289 -0.8776  0.1881  0.3544
   40TAL   C196 5496   7.694   2.726   1.379 -0.8807  0.2163  0.2920
   40TAL   C197 5497   7.833   2.657   1.386 -0.8904 -0.8373 -0.1617
   40TAL   C198 5498   7.853   2.521   1.471 -0.4870 -0.0401 -0.5114
   40TAL   C199 5499   7.992   2.482   1.507  0.6261 -0.9708 -0.0639
   40TAL   C200 5500   8.097   2.481   1.401  0.7867 -0.3914  0.4901
   41HTM   C201 5501   7.372   2.848   1.201  0.0746  0.1949  0.3679
   41HTM   C202 5502   7.256   2.881   1.136  0.0063  0.4047  0.5911
   41HTM   C203 5503   7.189   2.768   1.077 -0.2817  0.5342  0.6674
   41HTM   C204 5504   7.253   2.649   1.097 -0.4330  0.4233  0.5024
   41HTM    S21 5505   7.405   2.671   1.193 -0.2218  0.1445  0.2357
   42TAL   C205 5506   7.067   2.790   0.994 -0.8522 -0.2411  0.7203
   42TAL   C206 5507   6.942   2.725   1.031  0.1753  0.1989  0.4096
   42TAL   C207 5508   6.876   2.787   1.151  0.2553 -0.2636 -0.9266
   42TAL   C208 5509   6.915   2.729   1.292  0.0288 -0.8273 -0.0932
   42TAL   C209 5510   6.918   2.827   1.410 -0.7969 -0.0597  0.0676
   42TAL   C210 5511   6.893   2.755   1.547 -0.2544  0.0818 -0.4210
   43HTM   C211 5512   7.227   2.511   1.059  0.3088  0.1363  0.3966
   43HTM   C212 5513   7.225   2.393   1.126  0.1857  0.2044  0.5158
   43HTM   C213 5514   7.201   2.279   1.041  0.1183  0.1397  0.6220
   43HTM   C214 5515   7.184   2.310   0.909  0.1903  0.0221  0.5839
   43HTM    S22 5516   7.197   2.488   0.882  0.3499 -0.0161  0.4095
   44TAL   C215 5517   7.200   2.134   1.095 -1.1227 -0.7090  0.2073
   44TAL   C216 5518   7.070   2.086   1.153  0.9380  1.1071  1.1535
   44TAL   C217 5519   7.078   1.966   1.255  0.6985 -0.5432  0.6617
   44TAL   C218 5520   7.150   1.830   1.211 -1.6113  0.5896  0.0843
   44TAL   C219 5521   7.148   1.787   1.069  0.2131 -0.2713  0.4269
   44TAL   C220 5522   7.217   1.660   1.028  0.1677  0.7886  0.6735
   45HTM   C221 5523   7.154   2.226   0.795  0.5662 -0.0572  0.2320
   45HTM   C222 5524   7.228   2.233   0.681  0.5934 -0.2066  0.2393
   45HTM   C223 5525   7.215   2.118   0.596 -0.1109  0.0745 -0.0508
   45HTM   C224 5526   7.131   2.022   0.645 -0.6751  0.4383 -0.2794
   45HTM    S23 5527   7.062   2.071   0.805 -0.3584  0.4541 -0.1448
   46TAL   C225 5528   7.301   2.113   0.471 -0.2070 -0.9690  0.0750
   46TAL   C226 5529   7.230   2.157   0.349 -0.5050  0.7930  0.9133
   46TAL   C227 5530   7.255   2.077   0.218 -0.7275  0.3400 -0.0257
   46TAL   C228 5531   7.398   2.025   0.178 -0.7092  0.6986  0.4617
   46TAL   C229 5532   7.511   2.122   0.144  0.8109  0.1874  0.5347
   46TAL   C230 5533   7.523   2.163  -0.014 -0.2030  0.4035 -0.7632
   47HTM   C231 5534   7.097   1.893   0.595 -0.1915 -0.6525 -1.0578
   47HTM   C232 5535   7.152   1.813   0.499 -0.4374 -0.8323 -1.0527
   47HTM   C233 5536   7.092   1.683   0.490 -0.5753 -0.7900 -0.7702
   47HTM   C234 5537   6.991   1.663   0.579 -0.4343 -0.5778 -0.5598
   47HTM    S24 5538   6.963   1.808   0.682 -0.1143 -0.4138 -0.7034
   48TAL   C235 5539   7.140   1.585   0.382  1.0824  1.0854 -1.3818
   48TAL   C236 5540   7.032   1.538   0.286 -0.2724 -1.0721  0.1858
   48TAL   C237 5541   7.075   1.528   0.137  0.6701 -0.6963  0.5574
   48TAL   C238 5542   7.084   1.669   0.064 -0.6928  0.4227  0.7550
   48TAL   C239 5543   6.946   1.742   0.062 -0.4538  1.0653 -0.3294
   48TAL   C240 5544   6.952   1.888   0.023  0.4777 -0.9430 -0.4710
    1HTM     C1 5545   8.424   6.296   8.566 -0.0066  0.8451 -0.3834
    1HTM     C2 5546   8.523   6.317   8.474 -0.0429  0.8805 -0.4141
    1HTM     C3 5547   8.650   6.350   8.533  0.0873  0.4190 -0.4375
    1HTM     C4 5548   8.649   6.353   8.669  0.2230  0.0319 -0.4243
    1HTM     S1 5549   8.485   6.315   8.734  0.1961  0.2215 -0.3814
    2TAL     C5 5550   8.772   6.368   8.447  0.4553 -0.6141 -0.6933
    2TAL     C6 5551   8.775   6.512   8.391 -0.2582 -1.5666 -0.0052
    2TAL     C7 5552   8.805   6.635   8.479 -0.4506  0.1487 -0.3462
    2TAL     C8 5553   8.958   6.656   8.518 -1.0551 -0.8568  0.0068
    2TAL     C9 5554   8.961   6.791   8.612 -0.4896  0.8573 -0.1327
    2TAL    C10 5555   9.103   6.806   8.680  0.3897  1.0071 -0.1118
    3HTM    C11 5556   8.746   6.400   8.761 -0.4560  0.0212 -0.0135
    3HTM    C12 5557   8.712   6.475   8.871 -0.3583  0.2948 -0.1674
    3HTM    C13 5558   8.825   6.530   8.940 -0.3145  0.8081 -0.6392
    3HTM    C14 5559   8.945   6.499   8.883 -0.3790  0.9256 -0.8448
    3HTM     S2 5560   8.924   6.395   8.737 -0.5006  0.3933 -0.4555
    4TAL    C15 5561   8.786   6.628   9.051 -0.2242 -0.5002 -0.6079
    4TAL    C16 5562   8.708   6.579   9.176 -0.4667  0.6886 -0.0980
    4TAL    C17 5563   8.655   6.691   9.272  0.0504 -0.1545 -0.0473
    4TAL    C18 5564   8.569   6.787   9.198  0.1431  0.1818 -0.4856
    4TAL    C19 5565   8.542   6.901   9.274  0.6846  1.0677 -0.6136
    4TAL    C20 5566   8.469   6.998   9.182  0.0264  0.2498 -0.2638
    5HTM    C21 5567   9.083   6.531   8.914  0.1318 -0.5110 -0.2593
    5HTM    C22 5568   9.200   6.476   8.870  0.3479 -0.2823  0.0160
    5HTM    C23 5569   9.317   6.534   8.930  0.0973 -0.0129  0.2573
    5HTM    C24 5570   9.291   6.632   9.020 -0.3103 -0.0364  0.1664
    5HTM     S3 5571   9.113   6.661   9.036 -0.4094 -0.4033 -0.2351
    6TAL    C25 5572   9.462   6.492   8.887  0.5319  0.5182 -0.5737
    6TAL    C26 5573   9.473   6.343   8.874 -0.3010 -0.1569 -0.5922
    6TAL    C27 5574   9.592   6.321   8.778 -0.2654 -0.9340  0.2084
    6TAL    C28 5575   9.603   6.171   8.757 -0.3488  0.2054  0.7758
    6TAL    C29 5576   9.747   6.156   8.736 -0.2774 -0.3868 -0.1352
    6TAL    C30 5577   9.793   6.021   8.698  0.2253 -1.0741 -1.0207
    7HTM    C31 5578   9.384   6.695   9.108  0.5719  0.2754 -0.4379
    7HTM    C32 5579   9.431   6.820   9.080  0.5941  0.3728  0.0167
    7HTM    C33 5580   9.502   6.881   9.189  0.3905  0.0638  0.3259
    7HTM    C34 5581   9.509   6.803   9.300  0.2138 -0.2689  0.1067
    7HTM     S4 5582   9.426   6.644   9.276  0.2908 -0.2175 -0.5120
    8TAL    C35 5583   9.577   7.010   9.182  1.1506 -1.1906  0.4989
    8TAL    C36 5584   9.563   7.097   9.052 -0.2388  0.3701 -0.4859
    8TAL    C37 5585   9.651   7.039   8.935 -0.1328  0.5189 -0.7257
    8TAL    C38 5586   9.634   7.086   8.789  0.4626 -0.3830  0.0031
    8TAL    C39 5587   9.505   7.032   8.740 -0.4981  0.1964  0.7285
    8TAL    C40 5588   9.520   7.021   8.587 -0.4587 -0.7167 -0.1862
    9HTM    C41 5589   9.572   6.830   9.428  0.2982  0.0011 -0.9897
    9HTM    C42 5590   9.523   6.792   9.550  0.3464 -0.5078 -1.1227
    9HTM    C43 5591   9.597   6.846   9.661  0.4070 -0.9927 -0.9232
    9HTM    C44 5592   9.702   6.925   9.624  0.4049 -0.8534 -0.6377
    9HTM     S5 5593   9.716   6.937   9.444  0.3258 -0.0931 -0.5991
   10TAL    C45 5594   9.562   6.798   9.804  0.5920  0.3337 -0.0618
   10TAL    C46 5595   9.431   6.711   9.829  0.4673 -0.5964 -0.1070
   10TAL    C47 5596   9.456   6.561   9.820 -0.2413  0.1052  0.4394
   10TAL    C48 5597   9.339   6.476   9.780 -0.5200  0.3110  0.8601
   10TAL    C49 5598   9.229   6.457   9.893 -0.4556 -0.1098  1.0220
   10TAL    C50 5599   9.089   6.420   9.842  0.2185  1.2367  0.0617
   11HTM    C51 5600   9.777   7.014   9.706 -0.4245  0.0200 -0.0735
   11HTM    C52 5601   9.867   6.960   9.792 -0.8849 -0.1158  0.3319
   11HTM    C53 5602   9.967   7.054   9.838 -0.9490 -0.2623  0.7780
   11HTM    C54 5603   9.952   7.179   9.787 -0.5374 -0.2382  0.7133
   11HTM     S6 5604   9.811   7.189   9.675 -0.0330 -0.0271  0.0789
   12TAL    C55 5605  10.086   7.018   9.929 -0.4780  0.2843  0.9424
   12TAL    C56 5606  10.142   6.880   9.925 -0.0953  1.1400  0.2946
   12TAL    C57 5607  10.211   6.821   9.800 -0.3451 -0.4770 -1.4416
   12TAL    C58 5608  10.185   6.677   9.765 -0.4284  1.0136  0.8076
   12TAL    C59 5609  10.040   6.625   9.754  0.7709 -0.7073 -0.4802
   12TAL    C60 5610   9.949   6.629   9.634 -1.2209  0.0753  0.4790
   13HTM    C61 5611  10.021   7.313   9.780  0.2638  0.0954 -0.4294
   13HTM    C62 5612   9.962   7.428   9.738  0.4201  0.0328 -0.8318
   13HTM    C63 5613  10.043   7.545   9.760  0.2028  0.1047 -0.3878
   13HTM    C64 5614  10.163   7.519   9.818 -0.1192  0.2222  0.3531
   13HTM     S7 5615  10.185   7.343   9.850 -0.1734  0.2512  0.5491
   14TAL    C65 5616   9.985   7.672   9.711  0.8218 -0.5777 -0.5807
   14TAL    C66 5617   9.999   7.698   9.559 -0.0814 -0.6653 -0.7338
   14TAL    C67 5618   9.964   7.839   9.514 -0.7524  0.3438  0.1289
   14TAL    C68 5619  10.034   7.967   9.579  0.9556  0.2222 -0.0383
   14TAL    C69 5620  10.167   8.025   9.547 -0.8112 -0.2067 -0.0062
   14TAL    C70 5621  10.151   8.176   9.540  0.3427 -1.4554 -0.0611
   15HTM    C71 5622  10.277   7.615   9.853  0.2279  0.1959 -1.0086
   15HTM    C72 5623  10.265   7.744   9.894  0.4104  0.3239 -1.3470
   15HTM    C73 5624  10.391   7.808   9.922  0.4731  0.0188 -0.9177
   15HTM    C74 5625  10.499   7.727   9.902  0.3383 -0.3415 -0.2520
   15HTM     S8 5626  10.449   7.563   9.846  0.1202 -0.3237 -0.1145
   16TAL    C75 5627  10.402   7.952   9.980  0.6987 -0.6585  0.2250
   16TAL    C76 5628  10.308   8.058   9.915 -0.1524  0.6664 -0.2422
   16TAL    C77 5629  10.357   8.205   9.950  0.1597  0.7020 -0.9462
   16TAL    C78 5630  10.272   8.304   9.871  0.3039 -0.3871  0.7064
   16TAL    C79 5631  10.306   8.454   9.842  0.0513  0.0236 -0.4073
   16TAL    C80 5632  10.458   8.480   9.841  1.0382 -0.9051  0.4473
   17HTM    C81 5633  10.644   7.755   9.914  0.2050 -0.3541 -0.1351
   17HTM    C82 5634  10.720   7.839   9.838  0.4902 -0.9209 -0.4928
   17HTM    C83 5635  10.856   7.851   9.883  0.4040 -0.8234 -0.2562
   17HTM    C84 5636  10.884   7.777   9.994  0.0529 -0.1823  0.2819
   17HTM     S9 5637  10.740   7.684  10.049 -0.1979  0.3522  0.5335
   18TAL    C85 5638  10.939   7.972   9.844 -0.5610 -0.3090  0.5362
   18TAL    C86 5639  11.066   7.947   9.767 -0.6987  1.4759  0.0282
   18TAL    C87 5640  11.147   8.066   9.736  0.7272 -0.3999 -0.1744
   18TAL    C88 5641  11.287   8.027   9.688 -0.3130  0.8025  0.4219
   18TAL    C89 5642  11.368   8.149   9.662  0.1414 -0.0852  0.3400
   18TAL    C90 5643  11.497   8.103   9.594  0.7779 -0.7979  0.3504
   19HTM    C91 5644  11.018   7.738  10.056  0.3942 -0.0925 -0.0237
   19HTM    C92 5645  11.069   7.611  10.058  1.1322  0.1886 -0.3993
   19HTM    C93 5646  11.202   7.604  10.113  1.2900  0.8298 -0.6706
   19HTM    C94 5647  11.252   7.724  10.153  0.6723  1.0376 -0.5018
   19HTM    S10 5648  11.134   7.858  10.124 -0.1630  0.4349  0.0168
   20TAL    C95 5649  11.280   7.479  10.151  0.2927 -0.3699 -0.3270
   20TAL    C96 5650  11.368   7.397  10.060  0.5252  0.3270 -0.5692
   20TAL    C97 5651  11.406   7.251  10.116  0.8374 -0.1829  0.8068
   20TAL    C98 5652  11.514   7.161  10.056 -0.7463 -0.9507 -0.4580
   20TAL    C99 5653  11.560   7.019  10.088  0.0883  0.1594 -1.2859
   20TAL   C100 5654  11.653   6.980   9.983 -0.9140  0.2459  0.0818
   21HTM   C101 5655  11.390   7.755  10.190  0.1803  0.4633  0.3916
   21HTM   C102 5656  11.448   7.815  10.298  0.4947  0.6982  0.0951
   21HTM   C103 5657  11.590   7.834  10.284  0.4619  0.6479 -0.3479
   21HTM   C104 5658  11.640   7.787  10.166  0.1224  0.3746 -0.3891
   21HTM    S11 5659  11.511   7.716  10.062 -0.1845  0.1580  0.1323
   22TAL   C105 5660  11.669   7.890  10.394  0.4978  0.5538 -0.9220
   22TAL   C106 5661  11.657   8.031  10.394  0.1423 -0.6792 -0.0890
   22TAL   C107 5662  11.692   8.110  10.517 -0.3159  0.1009  0.4046
   22TAL   C108 5663  11.567   8.177  10.572 -0.1294 -0.2800  0.0868
   22TAL   C109 5664  11.548   8.179  10.718 -0.3605  0.1442  0.1748
   22TAL   C110 5665  11.474   8.288  10.793 -0.3265 -0.2130  0.8728
   23HTM   C111 5666  11.765   7.796  10.112 -1.0488 -0.2013  0.0360
   23HTM   C112 5667  11.838   7.905  10.073 -1.7266  0.2288 -0.0767
   23HTM   C113 5668  11.957   7.870  10.000 -1.3363  0.8847  0.2348
   23HTM   C114 5669  11.975   7.736   9.984 -0.3609  0.9549  0.5850
   23HTM    S12 5670  11.841   7.642  10.060  0.1441  0.1920  0.5483
   24TAL   C115 5671  12.051   7.978   9.957  0.2093  0.2124  0.2167
   24TAL   C116 5672  12.023   8.057   9.824 -1.2235  0.1072  1.3665
   24TAL   C117 5673  11.896   8.133   9.794  0.5475  0.3193 -0.7861
   24TAL   C118 5674  11.897   8.241   9.690 -1.0151 -0.5800  0.9649
   24TAL   C119 5675  11.777   8.331   9.709 -0.5803 -0.1186  0.9571
   24TAL   C120 5676  11.775   8.458   9.613 -0.3019  0.1190 -0.7046
   25HTM   C121 5677  12.096   7.667   9.920  0.0351  0.3284  0.1105
   25HTM   C122 5678  12.194   7.604   9.991  0.3458  0.6516 -0.0301
   25HTM   C123 5679  12.300   7.553   9.908  0.2405  0.7249 -0.2134
   25HTM   C124 5680  12.283   7.576   9.775 -0.1505  0.4576 -0.2126
   25HTM    S13 5681  12.130   7.666   9.743 -0.4181  0.0898  0.0215
   26TAL   C125 5682  12.416   7.466   9.961  0.2420 -0.3931  0.4633
   26TAL   C126 5683  12.389   7.363  10.069 -1.2110 -0.9115  0.1290
   26TAL   C127 5684  12.530   7.302  10.130  0.4207  0.8234 -0.5173
   26TAL   C128 5685  12.526   7.259  10.288  0.4851 -0.3083  0.4263
   26TAL   C129 5686  12.418   7.169  10.321 -0.1639  0.0698  0.4445
   26TAL   C130 5687  12.425   7.131  10.455 -0.6891  0.2267 -0.4085
   27HTM   C131 5688  12.357   7.546   9.654  0.1118 -0.0455  0.6158
   27HTM   C132 5689  12.367   7.630   9.547  0.0220  0.0471  0.6785
   27HTM   C133 5690  12.470   7.592   9.454 -0.1152  0.0756  0.5131
   27HTM   C134 5691  12.539   7.480   9.490 -0.1301  0.0047  0.3242
   27HTM    S14 5692  12.477   7.413   9.646  0.0294 -0.1043  0.3405
   28TAL   C135 5693  12.500   7.674   9.328  0.6529  0.1462 -0.4289
   28TAL   C136 5694  12.394   7.776   9.271  0.2830 -0.0267 -0.7340
   28TAL   C137 5695  12.446   7.861   9.158  1.0605 -0.3532 -0.4206
   28TAL   C138 5696  12.349   7.947   9.075 -1.0906 -0.5442  0.5915
   28TAL   C139 5697  12.418   8.054   8.992  0.2938  0.4719  0.6934
   28TAL   C140 5698  12.316   8.156   8.928  0.0697 -0.0789  0.5022
   29HTM   C141 5699  12.646   7.418   9.413  0.7004  0.2246  0.1926
   29HTM   C142 5700  12.771   7.391   9.459  0.9561  0.2304 -0.4787
   29HTM   C143 5701  12.852   7.316   9.366  0.4954  0.3133 -0.9551
   29HTM   C144 5702  12.788   7.287   9.249 -0.1115  0.3708 -0.6467
   29HTM    S15 5703  12.620   7.352   9.248 -0.1486  0.3242  0.2759
   30TAL   C145 5704  12.984   7.279   9.404 -0.7975  0.2983 -0.7009
   30TAL   C146 5705  13.090   7.403   9.395 -0.0560  0.5151  0.0634
   30TAL   C147 5706  13.225   7.362   9.460  0.0512 -0.6210  0.2515
   30TAL   C148 5707  13.295   7.251   9.385  0.1795  0.5959 -0.7012
   30TAL   C149 5708  13.437   7.202   9.434 -0.1245  0.8018  0.5937
   30TAL   C150 5709  13.535   7.321   9.410  0.3800 -0.1272 -0.5651
   31HTM   C151 5710  12.837   7.212   9.141 -0.3100 -0.3174  0.0282
   31HTM   C152 5711  12.891   7.087   9.148 -0.3566 -0.3490 -0.1755
   31HTM   C153 5712  12.935   7.036   9.021 -0.1172 -0.0443 -0.2167
   31HTM   C154 5713  12.915   7.122   8.917  0.1120  0.2195 -0.0443
   31HTM    S16 5714  12.838   7.276   8.972  0.0427  0.1030  0.1852
   32TAL   C155 5715  13.030   6.912   9.018  0.1237  0.2724  0.2388
   32TAL   C156 5716  12.947   6.769   9.026 -0.3208  0.1842  0.5238
   32TAL   C157 5717  12.883   6.712   9.150 -0.5501 -0.3821  0.8926
   32TAL   C158 5718  12.831   6.563   9.142  0.2141  0.3578  0.0888
   32TAL   C159 5719  12.734   6.540   9.026  0.5245  0.4503  0.5809
   32TAL   C160 5720  12.578   6.544   9.048  0.1027 -0.7527  0.4420
   33HTM   C161 5721  12.948   7.102   8.779 -0.8739 -0.3632 -0.1216
   33HTM   C162 5722  12.943   6.987   8.705 -0.7350 -0.1996 -0.3905
   33HTM   C163 5723  12.958   7.008   8.564 -0.0173  0.0755 -0.2835
   33HTM   C164 5724  12.974   7.139   8.529  0.3910  0.1212  0.0667
   33HTM    S17 5725  12.972   7.246   8.674 -0.1031 -0.1814  0.2904
   34TAL   C165 5726  12.943   6.882   8.480  0.9698 -0.0177  0.3826
   34TAL   C166 5727  12.982   6.887   8.329 -1.3830 -1.0445  0.4386
   34TAL   C167 5728  12.913   6.830   8.211  0.1213 -0.5662 -0.5371
   34TAL   C168 5729  12.929   6.685   8.193 -0.0390 -0.2660  0.0471
   34TAL   C169 5730  12.871   6.637   8.053  0.5323  0.6862 -0.1324
   34TAL   C170 5731  12.911   6.680   7.918  0.6752  0.3876  0.7253
   35HTM   C171 5732  12.985   7.204   8.402 -0.1233  0.3400  0.2704
   35HTM   C172 5733  12.887   7.230   8.310 -0.0702  0.5026  0.2587
   35HTM   C173 5734  12.935   7.296   8.191  0.1634 -0.1051  0.0045
   35HTM   C174 5735  13.069   7.321   8.193  0.2882 -0.7312 -0.1774
   35HTM    S18 5736  13.146   7.262   8.345  0.1192 -0.6006 -0.0409
   36TAL   C175 5737  12.843   7.301   8.077  0.2909 -1.3348  0.7044
   36TAL   C176 5738  12.863   7.185   7.975  1.2605 -0.2371 -0.2502
   36TAL   C177 5739  12.788   7.175   7.844 -0.2968  0.3802  1.5359
   36TAL   C178 5740  12.840   7.280   7.745 -0.5602  0.5660  0.5993
   36TAL   C179 5741  12.744   7.300   7.631 -0.7698 -0.2228  0.1977
   36TAL   C180 5742  12.797   7.423   7.559 -0.1526 -0.2946  0.7463
   37HTM   C181 5743  13.149   7.396   8.094 -0.5083  0.1623  0.4706
   37HTM   C182 5744  13.099   7.490   8.009 -0.6463  0.2761  0.6762
   37HTM   C183 5745  13.199   7.573   7.948 -0.7545  0.4404  0.7200
   37HTM   C184 5746  13.326   7.543   7.987 -0.6991  0.4515  0.5488
   37HTM    S19 5747  13.329   7.406   8.104 -0.5042  0.2541  0.3163
   38TAL   C185 5748  13.172   7.649   7.824  0.8952 -1.3363 -0.2080
   38TAL   C186 5749  13.022   7.682   7.785 -0.8341  0.6458 -0.1264
   38TAL   C187 5750  12.937   7.755   7.888 -0.2237  0.2926  0.6145
   38TAL   C188 5751  12.872   7.876   7.835  0.0658  0.5240 -0.9391
   38TAL   C189 5752  12.806   7.946   7.954  1.2776  1.9147 -0.5046
   38TAL   C190 5753  12.659   7.921   7.993 -0.3249 -0.5839  0.2112
   39HTM   C191 5754  13.457   7.598   7.959 -0.0051  0.4271  0.0534
   39HTM   C192 5755  13.538   7.648   8.057  0.4629 -0.1656 -0.0212
   39HTM   C193 5756  13.656   7.714   8.007  0.6145 -0.5283 -0.1514
   39HTM   C194 5757  13.665   7.715   7.871  0.2621 -0.2124 -0.1759
   39HTM    S20 5758  13.524   7.632   7.794 -0.2930  0.5741 -0.0355
   40TAL   C195 5759  13.747   7.784   8.099  0.3429 -0.1120 -0.1522
   40TAL   C196 5760  13.842   7.698   8.186 -0.3695 -0.2680  0.3927
   40TAL   C197 5761  13.936   7.616   8.097  0.2203 -0.3727  0.3035
   40TAL   C198 5762  14.052   7.543   8.164  0.8433 -0.3567  0.4221
   40TAL   C199 5763  14.168   7.496   8.088 -0.5517 -0.8309 -0.0603
   40TAL   C200 5764  14.178   7.350   8.098  0.1621 -0.0293  0.4839
   41HTM   C201 5765  13.772   7.740   7.781  0.3127 -0.0066 -0.6865
   41HTM   C202 5766  13.797   7.846   7.699  0.3951 -0.3858 -1.1584
   41HTM   C203 5767  13.925   7.838   7.632  0.3848 -0.7849 -1.1376
   41HTM   C204 5768  13.996   7.727   7.664  0.2948 -0.7101 -0.6498
   41HTM    S21 5769  13.908   7.622   7.781  0.2152 -0.1249 -0.1751
   42TAL   C205 5770  13.951   7.964   7.555  0.3486 -0.0808  0.8573
   42TAL   C206 5771  13.899   7.971   7.407  0.5081 -0.6979 -0.9105
   42TAL   C207 5772  13.986   8.055   7.319 -0.7518  0.0048  0.1118
   42TAL   C208 5773  13.959   8.036   7.171 -0.5124 -0.1188  0.2901
   42TAL   C209 5774  14.072   8.059   7.057 -0.2549  0.4381 -0.7807
   42TAL   C210 5775  14.210   7.982   7.090 -0.2238  0.1214  0.0898
   43HTM   C211 5776  14.122   7.686   7.602  0.6059 -0.0589  0.2591
   43HTM   C212 5777  14.236   7.639   7.661  0.6343 -0.5758 -0.1891
   43HTM   C213 5778  14.347   7.629   7.571  0.3160 -0.7976 -0.5635
   43HTM   C214 5779  14.319   7.667   7.443  0.0452 -0.4500 -0.4011
   43HTM    S22 5780  14.147   7.720   7.427  0.1716  0.1895  0.2426
   44TAL   C215 5781  14.481   7.574   7.627  0.5413  0.6168 -0.3199
   44TAL   C216 5782  14.543   7.675   7.723  0.4204  0.3162 -0.4022
   44TAL   C217 5783  14.693   7.717   7.682  0.1577  0.1806 -0.4455
   44TAL   C218 5784  14.745   7.811   7.798  0.1222  0.4544  0.5893
   44TAL   C219 5785  14.809   7.738   7.922  1.2437  0.3166  1.1124
   44TAL   C220 5786  14.944   7.669   7.904 -0.5826  1.2795 -0.3991
   45HTM   C221 5787  14.402   7.677   7.329  0.4266 -0.2111  0.1758
   45HTM   C222 5788  14.504   7.767   7.320  0.6435 -0.4277  0.4340
   45HTM   C223 5789  14.574   7.764   7.194  0.6573 -0.2576  0.4374
   45HTM   C224 5790  14.525   7.672   7.107  0.4511  0.0884  0.1814
   45HTM    S23 5791  14.386   7.581   7.178  0.2215  0.2276 -0.0854
   46TAL   C225 5792  14.694   7.860   7.174  0.6267 -0.5523 -0.0903
   46TAL   C226 5793  14.826   7.829   7.242  0.3267 -0.7412  0.2686
   46TAL   C227 5794  14.954   7.893   7.189  0.7207 -0.7037  0.1002
   46TAL   C228 5795  14.997   7.856   7.044 -0.0931  0.6463 -0.2178
   46TAL   C229 5796  15.071   7.956   6.970 -0.9084 -0.4040  0.1956
   46TAL   C230 5797  15.124   7.916   6.828 -0.8687  0.3084 -0.1114
   47HTM   C231 5798  14.581   7.633   6.976 -0.4075  0.4543  0.1016
   47HTM   C232 5799  14.652   7.713   6.892 -0.3407  0.3537  0.0618
   47HTM   C233 5800  14.663   7.661   6.758  0.1943 -0.0540  0.2576
   47HTM   C234 5801  14.600   7.541   6.741  0.5354 -0.2640  0.4468
   47HTM    S24 5802  14.522   7.484   6.893  0.2048  0.0389  0.3917
   48TAL   C235 5803  14.736   7.746   6.651  0.6913  0.3253 -0.0914
   48TAL   C236 5804  14.724   7.709   6.500  1.2887  0.9426 -0.2705
   48TAL   C237 5805  14.773   7.808   6.400  0.4379 -0.1616  0.3539
   48TAL   C238 5806  14.721   7.955   6.391 -0.6347  0.3618  0.4942
   48TAL   C239 5807  14.581   7.964   6.425  0.4444 -0.8603 -0.7227
   48TAL   C240 5808  14.511   8.102   6.422 -0.0967  0.7137  1.1516
    1HTM     C1 5809   2.842   8.286   8.722 -0.4065  0.0636 -0.2497
    1HTM     C2 5810   2.783   8.226   8.615 -0.1332 -0.3564 -0.1676
    1HTM     C3 5811   2.867   8.219   8.498  0.0713 -0.5794 -0.0103
    1HTM     C4 5812   2.990   8.275   8.516 -0.0462 -0.3291  0.0276
    1HTM     S1 5813   3.010   8.341   8.683 -0.4272  0.2118 -0.1342
    2TAL     C5 5814   2.806   8.147   8.378 -1.3773 -0.3654 -0.1574
    2TAL     C6 5815   2.661   8.182   8.352  0.0916  0.6118  0.4508
    2TAL     C7 5816   2.636   8.329   8.306  0.3897 -0.6141  0.2753
    2TAL     C8 5817   2.495   8.346   8.257  0.9171  0.1041  0.0549
    2TAL     C9 5818   2.391   8.373   8.369 -0.8544 -0.5971 -0.2505
    2TAL    C10 5819   2.271   8.466   8.337 -0.2939 -0.1430  0.1445
    3HTM    C11 5820   3.102   8.304   8.427 -0.0931  0.3752 -0.0526
    3HTM    C12 5821   3.233   8.325   8.459 -0.1782  0.6630  0.1211
    3HTM    C13 5822   3.318   8.342   8.344 -0.0132  0.5224  0.2217
    3HTM    C14 5823   3.253   8.335   8.225  0.1977  0.1274  0.1253
    3HTM     S2 5824   3.076   8.306   8.248  0.2044 -0.0992 -0.1021
    4TAL    C15 5825   3.472   8.336   8.349  0.4724  0.3298  0.3017
    4TAL    C16 5826   3.531   8.272   8.471 -0.6685 -0.2858  0.4103
    4TAL    C17 5827   3.690   8.269   8.488 -0.2925  0.6904  0.5389
    4TAL    C18 5828   3.748   8.147   8.420  0.4538  0.0615  0.1931
    4TAL    C19 5829   3.795   8.168   8.273 -0.2186  0.2483 -0.0290
    4TAL    C20 5830   3.928   8.243   8.272 -0.3766 -0.2402  0.3327
    5HTM    C21 5831   3.283   8.360   8.083  0.0981  0.0178 -0.3976
    5HTM    C22 5832   3.221   8.318   7.969  0.4274 -0.0002 -0.5715
    5HTM    C23 5833   3.295   8.347   7.849  0.6774  0.1693 -0.3784
    5HTM    C24 5834   3.414   8.411   7.872  0.5388  0.3167 -0.0573
    5HTM     S3 5835   3.441   8.440   8.048  0.0780  0.2520  0.0269
    6TAL    C25 5836   3.249   8.259   7.729 -0.1324 -1.1149 -0.6357
    6TAL    C26 5837   3.289   8.275   7.580 -0.6364  0.6537  0.0917
    6TAL    C27 5838   3.347   8.142   7.511  0.3575 -0.2752 -0.2999
    6TAL    C28 5839   3.466   8.088   7.592 -0.0319 -0.5296  0.0066
    6TAL    C29 5840   3.512   7.952   7.551  0.2959 -0.1526 -0.6468
    6TAL    C30 5841   3.626   7.919   7.652 -1.5343 -0.5909  0.3995
    7HTM    C31 5842   3.503   8.465   7.786 -0.8539  0.3146  0.5217
    7HTM    C32 5843   3.635   8.487   7.813 -0.8826  0.4528  0.5543
    7HTM    C33 5844   3.704   8.560   7.709 -0.8261  0.1216  0.3537
    7HTM    C34 5845   3.624   8.594   7.604 -0.7542 -0.2689  0.1684
    7HTM     S4 5846   3.455   8.536   7.628 -0.7524 -0.2486  0.2330
    8TAL    C35 5847   3.847   8.606   7.733  0.0769 -0.2901 -1.0445
    8TAL    C36 5848   3.943   8.641   7.630 -0.4912  0.1779 -1.1857
    8TAL    C37 5849   4.043   8.753   7.655 -0.7012  1.0794 -1.6232
    8TAL    C38 5850   4.115   8.788   7.525 -0.7077 -0.4808  0.6759
    8TAL    C39 5851   4.175   8.928   7.505  0.4860  0.0989 -0.9796
    8TAL    C40 5852   4.296   8.955   7.413  0.1329  0.7153  0.5057
    9HTM    C41 5853   3.636   8.672   7.483 -0.0678  0.5530  0.0319
    9HTM    C42 5854   3.661   8.805   7.468  0.8538  0.3374 -0.4480
    9HTM    C43 5855   3.665   8.847   7.330  1.3153 -0.2067 -0.6099
    9HTM    C44 5856   3.643   8.746   7.241  0.7456 -0.4059 -0.2533
    9HTM     S5 5857   3.615   8.589   7.325 -0.4271  0.0821  0.3190
   10TAL    C45 5858   3.673   9.000   7.306 -0.3868 -0.4607  0.7817
   10TAL    C46 5859   3.814   9.054   7.274 -0.0447 -0.1940 -0.5863
   10TAL    C47 5860   3.838   9.194   7.233 -0.5198 -0.5795 -0.4995
   10TAL    C48 5861   3.759   9.233   7.110  0.1144 -0.5613  0.2357
   10TAL    C49 5862   3.784   9.386   7.086 -0.4332 -0.0837 -0.1893
   10TAL    C50 5863   3.723   9.435   6.961 -0.4396 -0.3828 -0.1592
   11HTM    C51 5864   3.609   8.747   7.104 -0.1858  0.0615  0.5094
   11HTM    C52 5865   3.648   8.664   7.003 -0.1774 -0.2189  0.7426
   11HTM    C53 5866   3.599   8.703   6.874 -0.2058 -0.6051  0.6353
   11HTM    C54 5867   3.522   8.815   6.875 -0.2358 -0.6192  0.3203
   11HTM     S6 5868   3.507   8.882   7.042 -0.2306 -0.1415  0.1333
   12TAL    C55 5869   3.623   8.612   6.749  0.7684  0.1053 -0.6762
   12TAL    C56 5870   3.756   8.611   6.672 -0.7645  0.4474 -0.5277
   12TAL    C57 5871   3.764   8.486   6.591 -0.7164 -0.3121  0.6389
   12TAL    C58 5872   3.875   8.491   6.492  0.1843 -0.0868 -0.1486
   12TAL    C59 5873   3.850   8.364   6.422  0.4155  0.4537 -0.0739
   12TAL    C60 5874   3.913   8.362   6.285 -0.2153 -0.5021  0.4252
   13HTM    C61 5875   3.444   8.887   6.776 -0.1537  0.0133  0.4828
   13HTM    C62 5876   3.477   8.922   6.648 -0.1299 -0.2367  0.4212
   13HTM    C63 5877   3.370   8.986   6.576 -0.1022 -0.3376  0.2881
   13HTM    C64 5878   3.256   9.002   6.649 -0.1049 -0.1648  0.2485
   13HTM     S7 5879   3.275   8.935   6.816 -0.1429  0.1418  0.3770
   14TAL    C65 5880   3.390   9.053   6.445  0.1673  0.8698 -0.2297
   14TAL    C66 5881   3.396   9.200   6.436 -0.0186  0.0600 -0.3851
   14TAL    C67 5882   3.457   9.256   6.305 -0.5177 -0.2833 -0.6532
   14TAL    C68 5883   3.472   9.404   6.302 -0.1181 -1.0751 -1.1968
   14TAL    C69 5884   3.613   9.455   6.309 -0.4040  0.4545 -0.7924
   14TAL    C70 5885   3.693   9.430   6.432  0.7112  1.0143  0.1925
   15HTM    C71 5886   3.128   9.064   6.628 -0.1611 -0.2429  0.1229
   15HTM    C72 5887   3.052   9.120   6.727 -0.7318 -1.2045  0.2521
   15HTM    C73 5888   2.924   9.168   6.682 -0.8649 -1.6112  0.1868
   15HTM    C74 5889   2.902   9.149   6.549 -0.3956 -0.9600  0.0074
   15HTM     S8 5890   3.043   9.068   6.469  0.2559  0.2272 -0.0933
   16TAL    C75 5891   2.828   9.219   6.780  0.1707 -0.9249 -0.6197
   16TAL    C76 5892   2.733   9.127   6.853 -0.1895 -0.3098 -0.0559
   16TAL    C77 5893   2.770   9.094   6.996 -0.6741  0.1821  0.2924
   16TAL    C78 5894   2.750   9.197   7.102  2.1589 -0.5927 -0.3630
   16TAL    C79 5895   2.766   9.153   7.252 -0.3669  1.2098  0.1912
   16TAL    C80 5896   2.775   9.258   7.348 -0.4896  0.3992 -1.9354
   17HTM    C81 5897   2.788   9.172   6.465 -0.3082 -0.3582  0.4594
   17HTM    C82 5898   2.736   9.291   6.423 -0.0841 -0.1712  0.7041
   17HTM    C83 5899   2.603   9.280   6.368 -0.0718  0.1795  0.6028
   17HTM    C84 5900   2.554   9.153   6.368 -0.2867  0.2598  0.2811
   17HTM     S9 5901   2.672   9.036   6.439 -0.5230 -0.1033  0.0794
   18TAL    C85 5902   2.549   9.420   6.331  0.2090  0.8948  0.1763
   18TAL    C86 5903   2.452   9.440   6.214  0.6478  0.2988  0.0034
   18TAL    C87 5904   2.533   9.435   6.086  0.1062  1.5390  0.1587
   18TAL    C88 5905   2.448   9.451   5.960  0.0578  0.3260 -1.2954
   18TAL    C89 5906   2.386   9.309   5.920  0.8166 -0.9034 -0.6704
   18TAL    C90 5907   2.281   9.299   5.817  0.0656 -0.4034 -0.6129
   19HTM    C91 5908   2.429   9.100   6.316  0.3111  0.4902  0.1155
   19HTM    C92 5909   2.419   9.024   6.203  0.4937  0.7398 -0.0703
   19HTM    C93 5910   2.284   8.984   6.171  0.5898  0.4754 -0.1546
   19HTM    C94 5911   2.191   9.030   6.261  0.4805  0.0245 -0.0330
   19HTM    S10 5912   2.267   9.127   6.392  0.2458 -0.1025  0.1991
   20TAL    C95 5913   2.269   8.888   6.053  0.1157 -0.8593  0.0642
   20TAL    C96 5914   2.158   8.782   6.038 -0.4691 -0.3814  0.5807
   20TAL    C97 5915   2.139   8.659   6.127 -0.0764  0.0871  0.2627
   20TAL    C98 5916   2.199   8.531   6.058  0.1933 -0.4485 -0.2430
   20TAL    C99 5917   2.178   8.404   6.141  0.4043  0.0453 -0.2966
   20TAL   C100 5918   2.262   8.289   6.110 -0.0830 -0.2969  0.2354
   21HTM   C101 5919   2.049   8.996   6.267 -0.1400  0.2947 -0.2221
   21HTM   C102 5920   1.958   9.094   6.239 -0.2698  0.2370 -0.0049
   21HTM   C103 5921   1.825   9.065   6.287 -0.1421  0.1435  0.2977
   21HTM   C104 5922   1.815   8.945   6.351  0.0852  0.1301  0.3111
   21HTM    S11 5923   1.973   8.859   6.356  0.1560  0.2351 -0.0602
   22TAL   C105 5924   1.704   9.157   6.252  0.1170  0.7091 -0.4007
   22TAL   C106 5925   1.662   9.152   6.110  0.4502  0.0199  0.6164
   22TAL   C107 5926   1.539   9.250   6.086 -0.2957  1.3893 -0.0686
   22TAL   C108 5927   1.577   9.396   6.095  0.0971 -0.5140  0.0301
   22TAL   C109 5928   1.467   9.508   6.084 -0.5908 -0.1850 -0.3915
   22TAL   C110 5929   1.364   9.527   6.206 -1.6500 -1.0089 -0.1189
   23HTM   C111 5930   1.696   8.883   6.408  0.2367  0.4263 -0.2165
   23HTM   C112 5931   1.692   8.748   6.424 -0.4297  0.3507 -0.8826
   23HTM   C113 5932   1.609   8.705   6.533 -0.7927  0.2031 -1.2131
   23HTM   C114 5933   1.549   8.807   6.600 -0.4032  0.1669 -0.7990
   23HTM    S12 5934   1.593   8.967   6.530  0.4590  0.3171  0.0472
   24TAL   C115 5935   1.584   8.554   6.555  0.0895 -0.4175 -0.5820
   24TAL   C116 5936   1.578   8.441   6.454 -0.3901  1.5027  0.0561
   24TAL   C117 5937   1.533   8.306   6.521 -0.2298  0.2667  0.8183
   24TAL   C118 5938   1.533   8.182   6.432 -0.3402  0.7155 -0.4563
   24TAL   C119 5939   1.653   8.168   6.329 -0.5407 -0.3275 -0.1484
   24TAL   C120 5940   1.631   8.046   6.244 -0.4978  0.4170  0.2010
   25HTM   C121 5941   1.473   8.799   6.723 -0.1960  0.3671 -0.3198
   25HTM   C122 5942   1.468   8.706   6.822  0.5156  0.4890 -0.1594
   25HTM   C123 5943   1.400   8.750   6.941  0.9996  0.4904  0.1234
   25HTM   C124 5944   1.353   8.878   6.932  0.6572  0.3696  0.1783
   25HTM    S13 5945   1.391   8.952   6.772 -0.3108  0.2438 -0.1250
   26TAL   C125 5946   1.384   8.662   7.060  0.3338 -0.0774  0.2437
   26TAL   C126 5947   1.286   8.536   7.050 -0.5631 -0.8534 -0.6134
   26TAL   C127 5948   1.157   8.560   6.977  0.4855  0.4001  0.7639
   26TAL   C128 5949   1.048   8.620   7.055 -0.0999  0.1583 -0.1530
   26TAL   C129 5950   0.931   8.648   6.966  0.0005 -0.7114  0.8590
   26TAL   C130 5951   0.809   8.619   7.065 -0.3821 -0.3960  1.5002
   27HTM   C131 5952   1.263   8.952   7.020 -0.1291  0.3506 -0.0176
   27HTM   C132 5953   1.268   8.963   7.156  0.2004  0.4809 -0.0384
   27HTM   C133 5954   1.176   9.060   7.209  0.5139  0.7200  0.0726
   27HTM   C134 5955   1.101   9.123   7.114  0.4234  0.7724  0.1782
   27HTM    S14 5956   1.141   9.064   6.949 -0.0685  0.5216  0.1453
   28TAL   C135 5957   1.151   9.067   7.357 -0.4376 -0.5387 -0.8462
   28TAL   C136 5958   1.078   8.939   7.413  1.1536 -0.1212  0.2276
   28TAL   C137 5959   1.029   8.947   7.558 -0.4569  0.2635 -1.3508
   28TAL   C138 5960   0.915   8.854   7.598  0.9148  0.4042 -0.1357
   28TAL   C139 5961   0.861   8.885   7.744 -0.3531  0.0173  0.1560
   28TAL   C140 5962   0.736   8.803   7.760 -1.1285  0.2837  0.1401
   29HTM   C141 5963   0.993   9.219   7.133 -0.2899 -0.0105 -0.0739
   29HTM   C142 5964   0.962   9.308   7.232 -0.4546 -0.2441  0.0876
   29HTM   C143 5965   0.841   9.382   7.207 -0.4390 -0.2198  0.0844
   29HTM   C144 5966   0.779   9.350   7.090 -0.2626  0.0321 -0.0798
   29HTM    S15 5967   0.870   9.222   7.001 -0.1011  0.2603 -0.2444
   30TAL   C145 5968   0.799   9.485   7.310  0.3305 -0.5132 -0.2646
   30TAL   C146 5969   0.844   9.627   7.285  0.4889 -0.2808  0.2862
   30TAL   C147 5970   0.786   9.742   7.379  0.5433  0.6222 -0.4368
   30TAL   C148 5971   0.632   9.750   7.402 -0.6778  0.9237 -0.1239
   30TAL   C149 5972   0.566   9.829   7.292  0.0524 -0.1334  0.2202
   30TAL   C150 5973   0.423   9.810   7.335  0.5241  0.3327  0.2011
   31HTM   C151 5974   0.660   9.400   7.037  0.5487 -0.2073 -0.0502
   31HTM   C152 5975   0.640   9.459   6.916  0.5883 -0.4575 -0.1804
   31HTM   C153 5976   0.512   9.525   6.904  0.6302 -0.4020 -0.3254
   31HTM   C154 5977   0.435   9.516   7.016  0.6226 -0.1094 -0.3060
   31HTM    S16 5978   0.518   9.423   7.146  0.5614  0.1207 -0.1012
   32TAL   C155 5979   0.479   9.593   6.771 -0.2706 -0.2985 -0.5659
   32TAL   C156 5980   0.589   9.651   6.695 -0.4177 -0.0532 -0.0229
   32TAL   C157 5981   0.558   9.754   6.592  1.2003 -0.2750  0.1486
   32TAL   C158 5982   0.574   9.900   6.646  0.2458 -0.2702  0.4447
   32TAL   C159 5983   0.668   9.923   6.752 -0.5783  0.0405 -0.9822
   32TAL   C160 5984   0.726  10.065   6.770  0.4407  0.5047 -0.6434
   33HTM   C161 5985   0.292   9.547   7.026 -0.1407  0.1474  0.4601
   33HTM   C162 5986   0.210   9.492   7.120 -0.3806  0.3097  0.3467
   33HTM   C163 5987   0.070   9.520   7.098 -0.3227  0.3068 -0.0325
   33HTM   C164 5988   0.046   9.595   6.987 -0.0387  0.1424 -0.2083
   33HTM    S17 5989   0.199   9.637   6.901  0.1794 -0.0235  0.0939
   34TAL   C165 5990  -0.041   9.473   7.192  0.1043  0.0451  0.7890
   34TAL   C166 5991  -0.009   9.444   7.327 -0.2566  0.0581 -0.7095
   34TAL   C167 5992   0.015   9.580   7.403 -0.9682 -0.2037  0.2152
   34TAL   C168 5993   0.060   9.577   7.548  0.6180 -0.4444  0.2503
   34TAL   C169 5994   0.214   9.560   7.560 -0.2013 -0.9299 -0.3315
   34TAL   C170 5995   0.261   9.555   7.708  0.7215  0.3167  0.1717
   35HTM   C171 5996  -0.066   9.648   6.921 -0.1209 -0.1021  0.6484
   35HTM   C172 5997  -0.175   9.711   6.972 -0.1063  0.3047  0.1988
   35HTM   C173 5998  -0.273   9.747   6.873  0.4003  0.6151 -0.1991
   35HTM   C174 5999  -0.239   9.712   6.746  0.7722  0.4449 -0.0530
   35HTM    S18 6000  -0.078   9.630   6.742  0.5095 -0.1246  0.6037
   36TAL   C175 6001  -0.386   9.832   6.912 -0.5414  0.2608  0.4662
   36TAL   C176 6002  -0.479   9.793   7.029 -0.8034  0.1427  1.2359
   36TAL   C177 6003  -0.568   9.901   7.081 -0.1459  0.8158  0.2450
   36TAL   C178 6004  -0.596  10.034   7.004 -0.9597 -0.1044  0.2239
   36TAL   C179 6005  -0.643  10.165   7.078  0.1962  0.6309 -0.5860
   36TAL   C180 6006  -0.584  10.199   7.221  0.3119  0.5025  0.7572
   37HTM   C181 6007  -0.307   9.733   6.619  0.1187  0.3732  0.4280
   37HTM   C182 6008  -0.244   9.743   6.498  0.0045  0.1774  0.3515
   37HTM   C183 6009  -0.330   9.789   6.392 -0.2024 -0.3879  0.2667
   37HTM   C184 6010  -0.458   9.814   6.432 -0.2462 -0.6231  0.2784
   37HTM    S19 6011  -0.480   9.782   6.608 -0.0274 -0.1452  0.3984
   38TAL   C185 6012  -0.269   9.789   6.239 -1.0156 -1.3005 -0.8962
   38TAL   C186 6013  -0.194   9.923   6.207  0.1753 -0.0106  1.0364
   38TAL   C187 6014  -0.073   9.974   6.288  0.6988 -0.2257 -0.2614
   38TAL   C188 6015  -0.087  10.021   6.425 -0.7088 -0.6837 -0.7720
   38TAL   C189 6016   0.038  10.068   6.501  0.3377  0.3398 -0.6369
   38TAL   C190 6017  -0.001  10.070   6.654  0.0459  0.3282  0.8594
   39HTM   C191 6018  -0.536   9.899   6.358 -0.0001 -0.6963  0.1459
   39HTM   C192 6019  -0.639   9.869   6.273  0.1583 -0.9083  0.0267
   39HTM   C193 6020  -0.680   9.979   6.190  0.0105 -0.9842 -0.0014
   39HTM   C194 6021  -0.608  10.093   6.211 -0.2607 -0.8301  0.0963
   39HTM    S20 6022  -0.483  10.071   6.338 -0.3514 -0.5752  0.2323
   40TAL   C195 6023  -0.780   9.943   6.076  0.4661 -1.2815  0.0767
   40TAL   C196 6024  -0.754   9.823   5.989 -0.0122  1.2881  0.4253
   40TAL   C197 6025  -0.838   9.837   5.870  1.0102  0.1776  0.9704
   40TAL   C198 6026  -0.839   9.733   5.753  0.1611  0.1291 -0.9472
   40TAL   C199 6027  -0.697   9.675   5.720  0.0547 -0.8823 -0.7339
   40TAL   C200 6028  -0.685   9.590   5.605 -0.3890  0.3847 -0.0130
   41HTM   C201 6029  -0.633  10.233   6.168  0.0082 -0.0998  0.2618
   41HTM   C202 6030  -0.641  10.346   6.245 -0.4809 -0.1178  0.2457
   41HTM   C203 6031  -0.704  10.457   6.178 -0.9794 -0.4005  0.2359
   41HTM   C204 6032  -0.744  10.428   6.051 -0.8703 -0.5981  0.2442
   41HTM    S21 6033  -0.705  10.258   6.005 -0.1237 -0.4412  0.2658
   42TAL   C205 6034  -0.728  10.587   6.249 -0.2342 -0.4836  0.0674
   42TAL   C206 6035  -0.811  10.586   6.375 -0.4349 -0.0250 -0.2332
   42TAL   C207 6036  -0.954  10.580   6.367  0.7326  0.3717 -0.0842
   42TAL   C208 6037  -1.056  10.514   6.265 -0.6834  0.5409 -0.0578
   42TAL   C209 6038  -1.190  10.579   6.288 -0.6644  0.0956  0.0765
   42TAL   C210 6039  -1.211  10.709   6.202 -0.3995 -0.4618 -0.5371
   43HTM   C211 6040  -0.817  10.509   5.959  0.2703 -0.4090 -0.1756
   43HTM   C212 6041  -0.801  10.639   5.923  0.3419 -0.2652  0.3631
   43HTM   C213 6042  -0.893  10.683   5.821 -0.0224  0.3748  0.9530
   43HTM   C214 6043  -0.979  10.586   5.780 -0.3718  0.7190  0.8639
   43HTM    S22 6044  -0.950  10.431   5.866 -0.2669  0.2579  0.0218
   44TAL   C215 6045  -0.881  10.822   5.762  0.8404 -0.3709 -0.2301
   44TAL   C216 6046  -0.975  10.937   5.829  0.4203 -0.8751 -0.0303
   44TAL   C217 6047  -1.009  10.955   5.976 -0.3158 -0.5056  1.0292
   44TAL   C218 6048  -1.073  11.096   6.010  0.0658 -0.3540  0.4550
   44TAL   C219 6049  -1.222  11.114   5.944  0.5298 -0.3711 -1.0390
   44TAL   C220 6050  -1.326  11.042   6.041 -0.5982 -0.8953  0.9641
   45HTM   C221 6051  -1.084  10.586   5.685 -0.0634  0.2933 -0.2273
   45HTM   C222 6052  -1.090  10.646   5.563 -0.3512  0.6129 -0.0596
   45HTM   C223 6053  -1.216  10.625   5.495 -0.3619  0.4479  0.0089
   45HTM   C224 6054  -1.305  10.550   5.565 -0.0826  0.0026 -0.1062
   45HTM    S23 6055  -1.237  10.499   5.724  0.2183 -0.2449 -0.3123
   46TAL   C225 6056  -1.228  10.672   5.345  0.3198  0.4461  0.7328
   46TAL   C226 6057  -1.230  10.822   5.322 -0.1014 -0.8302 -0.7467
   46TAL   C227 6058  -1.362  10.886   5.382 -1.1030  0.5846  0.0486
   46TAL   C228 6059  -1.369  11.029   5.338 -0.2794  0.2040 -0.2620
   46TAL   C229 6060  -1.445  11.134   5.419  0.2063  0.4552  0.7773
   46TAL   C230 6061  -1.499  11.234   5.317  0.1266  0.2015 -0.2638
   47HTM   C231 6062  -1.433  10.495   5.529 -0.1630 -0.0912  0.5251
   47HTM   C232 6063  -1.465  10.381   5.461 -0.6523  0.3561 -0.0147
   47HTM   C233 6064  -1.597  10.331   5.491 -1.0450  1.0071 -0.5866
   47HTM   C234 6065  -1.665  10.406   5.582 -0.8549  1.0562 -0.4829
   47HTM    S24 6066  -1.568  10.548   5.637 -0.1603  0.2780  0.3514
   48TAL   C235 6067  -1.662  10.208   5.427  0.1255  0.8827 -0.5517
   48TAL   C236 6068  -1.750  10.110   5.513 -0.7507 -0.6216 -0.4098
   48TAL   C237 6069  -1.859  10.044   5.436  0.6764 -0.2921  0.5727
   48TAL   C238 6070  -1.821   9.952   5.323 -1.6544 -0.4179 -0.7989
   48TAL   C239 6071  -1.934   9.881   5.256  0.1662  0.2898  0.3977
   48TAL   C240 6072  -1.918   9.815   5.124  1.4369 -0.4694 -0.0679
    1HTM     C1 6073   0.662   2.578   1.806  0.1916 -0.1046 -0.5221
    1HTM     C2 6074   0.720   2.457   1.829  0.1158 -0.2024 -0.8269
    1HTM     C3 6075   0.632   2.345   1.805 -0.1518 -0.0625 -0.5248
    1HTM     C4 6076   0.508   2.381   1.763 -0.2800  0.1420  0.0103
    1HTM     S1 6077   0.491   2.560   1.750 -0.0710  0.1739  0.1755
    2TAL     C5 6078   0.683   2.200   1.815  0.1105  0.0010 -0.0583
    2TAL     C6 6079   0.713   2.173   1.961  0.6754  0.1619  0.5520
    2TAL     C7 6080   0.793   2.048   1.979 -0.9593 -0.3781 -0.2861
    2TAL     C8 6081   0.853   2.043   2.122 -1.2017 -0.0051 -0.3816
    2TAL     C9 6082   0.961   1.937   2.146 -0.1963 -0.7839  0.8535
    2TAL    C10 6083   1.102   1.969   2.098 -0.0161 -0.4782 -0.0219
    3HTM    C11 6084   0.387   2.301   1.750  0.1622 -0.0785 -0.1489
    3HTM    C12 6085   0.307   2.266   1.646 -0.0071  0.4214 -0.1893
    3HTM    C13 6086   0.198   2.179   1.682 -0.1978  0.5858 -0.3572
    3HTM    C14 6087   0.196   2.147   1.815 -0.1738  0.2110 -0.4448
    3HTM     S2 6088   0.332   2.225   1.904  0.0935 -0.3830 -0.3210
    4TAL    C15 6089   0.105   2.124   1.578  0.3004 -1.1417  1.4462
    4TAL    C16 6090  -0.048   2.131   1.609  1.3145  0.1497 -1.0317
    4TAL    C17 6091  -0.119   2.055   1.504  0.0779  0.1745  0.8856
    4TAL    C18 6092  -0.258   2.072   1.506  1.0555 -0.6442 -0.7599
    4TAL    C19 6093  -0.312   2.005   1.386 -0.1301 -1.0975  0.3132
    4TAL    C20 6094  -0.457   2.041   1.361 -0.0857  1.1589 -0.4740
    5HTM    C21 6095   0.092   2.084   1.896  0.4964  0.6318  0.2961
    5HTM    C22 6096   0.133   1.994   1.991  0.9136  1.1018  0.5733
    5HTM    C23 6097   0.031   1.959   2.086  0.9944  0.7325  0.5277
    5HTM    C24 6098  -0.088   2.022   2.064  0.6392 -0.0193  0.2157
    5HTM     S3 6099  -0.080   2.131   1.921  0.1709 -0.3213 -0.0467
    6TAL    C25 6100   0.060   1.871   2.207  0.3362 -0.0006  0.7954
    6TAL    C26 6101   0.200   1.813   2.223 -0.4659  0.1825  0.5619
    6TAL    C27 6102   0.199   1.684   2.284  0.7011  0.8007 -0.0827
    6TAL    C28 6103   0.323   1.637   2.352  0.0934 -0.3334  0.1594
    6TAL    C29 6104   0.330   1.489   2.385  0.3271 -0.1042  0.4210
    6TAL    C30 6105   0.461   1.455   2.445 -0.1876  0.7706 -0.2150
    7HTM    C31 6106  -0.223   2.002   2.130 -0.0598 -0.2270 -0.5190
    7HTM    C32 6107  -0.314   2.093   2.174  0.4487 -0.1267  0.3614
    7HTM    C33 6108  -0.430   2.034   2.237  0.7732 -0.0151  1.0902
    7HTM    C34 6109  -0.427   1.898   2.240  0.5123 -0.0301  0.7656
    7HTM     S4 6110  -0.277   1.833   2.163 -0.1689 -0.1877 -0.4957
    8TAL    C35 6111  -0.528   2.117   2.310  0.3629 -0.0208  0.4874
    8TAL    C36 6112  -0.599   2.239   2.245  0.1715 -0.1432  0.2212
    8TAL    C37 6113  -0.530   2.365   2.191 -0.2046 -0.1378 -0.1704
    8TAL    C38 6114  -0.620   2.478   2.148  0.6665 -0.5880 -0.3491
    8TAL    C39 6115  -0.560   2.606   2.096 -0.7445 -1.1650 -0.1350
    8TAL    C40 6116  -0.416   2.657   2.151 -0.0159 -0.5222  1.1887
    9HTM    C41 6117  -0.523   1.803   2.290  1.0693  0.5627  0.5372
    9HTM    C42 6118  -0.652   1.815   2.333  1.2617  1.1938  0.9725
    9HTM    C43 6119  -0.711   1.690   2.372  0.6595  1.4249  0.8174
    9HTM    C44 6120  -0.628   1.583   2.358  0.0078  0.9701  0.2638
    9HTM     S5 6121  -0.466   1.632   2.295  0.1053  0.2087 -0.1073
   10TAL    C45 6122  -0.845   1.701   2.442 -0.2171 -0.7287  0.1388
   10TAL    C46 6123  -0.951   1.712   2.341  0.0262 -0.6844  0.2522
   10TAL    C47 6124  -1.080   1.679   2.411  0.2803 -0.6331  0.6624
   10TAL    C48 6125  -1.202   1.628   2.335  0.0415 -1.0522  0.1204
   10TAL    C49 6126  -1.270   1.739   2.269  0.4317 -0.2193 -1.3462
   10TAL    C50 6127  -1.404   1.687   2.204 -0.0703  0.1301 -0.3144
   11HTM    C51 6128  -0.660   1.444   2.400 -0.2760 -0.0910  0.0420
   11HTM    C52 6129  -0.579   1.364   2.475  0.0494 -0.0623 -0.2748
   11HTM    C53 6130  -0.611   1.224   2.464  0.2110 -0.0945 -0.3359
   11HTM    C54 6131  -0.716   1.197   2.381  0.0093 -0.1478 -0.0657
   11HTM     S6 6132  -0.784   1.349   2.310 -0.4043 -0.1614  0.2896
   12TAL    C55 6133  -0.544   1.119   2.557  0.6394  0.6041 -0.2658
   12TAL    C56 6134  -0.475   1.162   2.685 -0.1244  0.9244 -0.2703
   12TAL    C57 6135  -0.330   1.239   2.696  0.1701 -0.6738 -0.4934
   12TAL    C58 6136  -0.339   1.393   2.722 -0.1909  0.3486  0.2385
   12TAL    C59 6137  -0.203   1.454   2.691  0.5565  0.6884  0.6941
   12TAL    C60 6138  -0.210   1.599   2.635  0.3729  0.5907  0.2861
   13HTM    C61 6139  -0.786   1.079   2.346  0.3525 -0.0276 -0.5447
   13HTM    C62 6140  -0.820   1.029   2.224  0.4642 -0.4699 -0.4008
   13HTM    C63 6141  -0.906   0.913   2.230  0.4406 -0.4373 -0.0604
   13HTM    C64 6142  -0.937   0.874   2.357  0.3108  0.0299  0.0552
   13HTM     S7 6143  -0.860   0.982   2.479  0.2075  0.4682 -0.2592
   14TAL    C65 6144  -0.948   0.859   2.093  0.2007 -0.4683  0.4185
   14TAL    C66 6145  -0.847   0.755   2.046 -0.4170 -0.3874 -0.8357
   14TAL    C67 6146  -0.886   0.680   1.926  0.4288 -0.8318 -0.2009
   14TAL    C68 6147  -0.881   0.746   1.791  0.0782  0.0340  0.8772
   14TAL    C69 6148  -0.933   0.879   1.756 -0.2537 -0.3561  0.4568
   14TAL    C70 6149  -0.834   0.973   1.685 -0.6342  0.0149 -0.8485
   15HTM    C71 6150  -0.986   0.752   2.401  0.0862  0.4195  0.6725
   15HTM    C72 6151  -1.088   0.681   2.345 -0.5660  1.3192  0.6751
   15HTM    C73 6152  -1.131   0.568   2.425 -1.1644  1.3450  0.4020
   15HTM    C74 6153  -1.061   0.554   2.541 -0.9686  0.4650  0.1912
   15HTM     S8 6154  -0.935   0.682   2.559 -0.0059 -0.4718  0.3223
   16TAL    C75 6155  -1.228   0.467   2.369  0.6118  0.1673  0.1565
   16TAL    C76 6156  -1.377   0.501   2.354 -0.3099  0.7534  0.0173
   16TAL    C77 6157  -1.438   0.567   2.479  0.0711  0.4679 -1.1168
   16TAL    C78 6158  -1.475   0.464   2.599  0.7685 -0.3906 -0.4418
   16TAL    C79 6159  -1.538   0.534   2.717 -0.2670 -0.1393  0.6103
   16TAL    C80 6160  -1.609   0.434   2.803  0.6396  0.1635  0.1899
   17HTM    C81 6161  -1.049   0.458   2.659  0.2697  0.4684  0.1231
   17HTM    C82 6162  -0.935   0.417   2.723  0.1888  0.3719  0.2064
   17HTM    C83 6163  -0.959   0.329   2.834  0.0603  0.0157 -0.1013
   17HTM    C84 6164  -1.091   0.302   2.855  0.0426 -0.1594 -0.4191
   17HTM     S9 6165  -1.196   0.387   2.736  0.1888  0.1142 -0.3542
   18TAL    C85 6166  -0.840   0.281   2.921  0.8462  0.2880 -0.4935
   18TAL    C86 6167  -0.782   0.399   3.005  0.3494 -0.7339  0.3752
   18TAL    C87 6168  -0.695   0.380   3.121  1.0959 -0.7376 -0.4302
   18TAL    C88 6169  -0.767   0.339   3.254  0.0413  0.5978  0.5785
   18TAL    C89 6170  -0.665   0.345   3.372  1.6579  0.0092 -0.4694
   18TAL    C90 6171  -0.692   0.249   3.484  0.4260 -0.2253  0.1395
   19HTM    C91 6172  -1.150   0.196   2.937 -0.0462 -0.0843 -0.3589
   19HTM    C92 6173  -1.108   0.136   3.052  0.0412  0.1882 -0.2483
   19HTM    C93 6174  -1.192   0.027   3.094  0.1593  0.1901 -0.0068
   19HTM    C94 6175  -1.297   0.003   3.011  0.1612 -0.0806  0.0669
   19HTM    S10 6176  -1.299   0.118   2.872  0.0136 -0.3618 -0.1649
   20TAL    C95 6177  -1.148  -0.059   3.210  0.9170  0.3714  0.9964
   20TAL    C96 6178  -1.070  -0.007   3.325  1.9491  0.7487 -0.5564
   20TAL    C97 6179  -1.136   0.088   3.414  0.3740 -0.3401  0.8111
   20TAL    C98 6180  -1.050   0.115   3.533  0.6516  0.2794 -0.0365
   20TAL    C99 6181  -1.105   0.215   3.640  0.4319  0.8794  0.8940
   20TAL   C100 6182  -1.152   0.353   3.597 -0.5378  0.6218 -0.7005
   21HTM   C101 6183  -1.403  -0.099   3.010  0.6283 -0.2098 -0.3834
   21HTM   C102 6184  -1.526  -0.094   2.951  1.0176 -0.3142 -1.2449
   21HTM   C103 6185  -1.601  -0.216   2.964  0.9968 -0.3498 -1.6914
   21HTM   C104 6186  -1.535  -0.315   3.032  0.5912 -0.2722 -1.1705
   21HTM    S11 6187  -1.372  -0.259   3.085  0.2016 -0.1475 -0.0669
   22TAL   C105 6188  -1.746  -0.220   2.907 -0.6360 -0.3217  1.0538
   22TAL   C106 6189  -1.757  -0.290   2.762  0.1725  0.3773 -0.3573
   22TAL   C107 6190  -1.690  -0.235   2.640  1.5853 -0.5262  1.4426
   22TAL   C108 6191  -1.718  -0.329   2.519  0.1662  0.6587  0.2761
   22TAL   C109 6192  -1.663  -0.475   2.535 -1.3341 -0.5236 -0.1479
   22TAL   C110 6193  -1.510  -0.484   2.519 -0.5815  0.2959  0.2654
   23HTM   C111 6194  -1.570  -0.453   3.065  0.6277 -0.4725 -0.1126
   23HTM   C112 6195  -1.594  -0.555   2.978  0.6020 -0.4833 -0.0927
   23HTM   C113 6196  -1.624  -0.680   3.042  0.1032 -0.3552 -0.0682
   23HTM   C114 6197  -1.623  -0.673   3.179 -0.2513 -0.2468 -0.0696
   23HTM    S12 6198  -1.584  -0.507   3.236  0.0192 -0.2981 -0.1021
   24TAL   C115 6199  -1.659  -0.802   2.959  1.1021  1.0570  0.6021
   24TAL   C116 6200  -1.552  -0.850   2.861  0.8188 -0.1418 -0.4973
   24TAL   C117 6201  -1.445  -0.926   2.941  0.6546  0.4527 -0.1045
   24TAL   C118 6202  -1.408  -1.050   2.860  0.0205  0.1288 -0.3028
   24TAL   C119 6203  -1.265  -1.037   2.830  0.5151 -0.3654 -0.6924
   24TAL   C120 6204  -1.236  -1.115   2.706  0.3110  0.2141  0.2274
   25HTM   C121 6205  -1.671  -0.757   3.279 -0.5075  0.0224 -0.4786
   25HTM   C122 6206  -1.728  -0.720   3.397 -0.4618  0.4654 -0.5918
   25HTM   C123 6207  -1.769  -0.831   3.479 -0.2490  0.7656 -0.0684
   25HTM   C124 6208  -1.743  -0.953   3.423 -0.1320  0.5518  0.4441
   25HTM    S13 6209  -1.664  -0.936   3.262 -0.2830 -0.0505  0.3041
   26TAL   C125 6210  -1.847  -0.829   3.606 -0.7279 -0.1113 -0.3576
   26TAL   C126 6211  -1.900  -0.697   3.642 -0.1760  0.4990  0.4396
   26TAL   C127 6212  -1.910  -0.676   3.794 -1.0653 -0.5425 -0.5266
   26TAL   C128 6213  -2.024  -0.581   3.812  0.6854 -0.1326  0.6255
   26TAL   C129 6214  -2.005  -0.465   3.909  0.1909  0.1416 -0.0963
   26TAL   C130 6215  -2.100  -0.347   3.907 -0.2083  0.2199  0.4541
   27HTM   C131 6216  -1.758  -1.087   3.473  0.2472 -0.4118 -0.3610
   27HTM   C132 6217  -1.880  -1.150   3.472  0.2698 -0.4566 -0.7971
   27HTM   C133 6218  -1.876  -1.284   3.524  0.1175 -0.4296 -0.7166
   27HTM   C134 6219  -1.752  -1.323   3.565 -0.0213 -0.3637 -0.2190
   27HTM    S14 6220  -1.630  -1.194   3.540  0.0300 -0.3307  0.1896
   28TAL   C135 6221  -2.002  -1.373   3.534  0.9725 -0.4696 -0.1230
   28TAL   C136 6222  -2.087  -1.397   3.410 -1.0717 -0.5907 -0.0122
   28TAL   C137 6223  -2.195  -1.505   3.405 -0.3235  0.8212 -0.5046
   28TAL   C138 6224  -2.300  -1.521   3.515  0.7872  0.1529 -0.1633
   28TAL   C139 6225  -2.405  -1.417   3.526 -0.4099 -0.0244 -0.7070
   28TAL   C140 6226  -2.508  -1.427   3.419  0.4223 -0.8683  0.5019
   29HTM   C141 6227  -1.713  -1.440   3.643  1.0511 -0.7617  0.2581
   29HTM   C142 6228  -1.586  -1.483   3.669  0.8194 -1.0777  0.9502
   29HTM   C143 6229  -1.579  -1.591   3.763  0.0718 -0.8276  1.3123
   29HTM   C144 6230  -1.700  -1.631   3.810 -0.2664 -0.3207  0.8962
   29HTM    S15 6231  -1.834  -1.535   3.738  0.3376 -0.1187  0.0080
   30TAL   C145 6232  -1.450  -1.665   3.805 -0.5750 -0.3587  0.1497
   30TAL   C146 6233  -1.327  -1.697   3.712  0.5678 -0.4572  0.4369
   30TAL   C147 6234  -1.366  -1.791   3.598  1.2107  0.1079 -0.4100
   30TAL   C148 6235  -1.238  -1.835   3.510  0.4373  0.1272 -0.2878
   30TAL   C149 6236  -1.262  -1.922   3.386  0.0210 -0.6708 -0.1324
   30TAL   C150 6237  -1.143  -2.000   3.347  0.1875  1.1005  0.0481
   31HTM   C151 6238  -1.731  -1.714   3.913 -0.1088  0.4849  0.0019
   31HTM   C152 6239  -1.720  -1.692   4.047 -0.4644  0.4973  0.0312
   31HTM   C153 6240  -1.768  -1.801   4.128 -0.5509  0.4470 -0.0865
   31HTM   C154 6241  -1.815  -1.907   4.056 -0.2613  0.3965 -0.2056
   31HTM    S16 6242  -1.803  -1.876   3.879  0.1462  0.4083 -0.1782
   32TAL   C155 6243  -1.746  -1.795   4.281 -0.1004  0.3446  0.2594
   32TAL   C156 6244  -1.849  -1.725   4.375  0.2672  0.4641  0.7053
   32TAL   C157 6245  -1.870  -1.584   4.341 -0.5702  0.0189 -0.2476
   32TAL   C158 6246  -1.965  -1.500   4.426  1.4436  0.1209 -0.8225
   32TAL   C159 6247  -1.926  -1.457   4.573 -0.9074 -0.2756  0.7260
   32TAL   C160 6248  -1.969  -1.543   4.693 -0.7179  0.0130  0.3283
   33HTM   C161 6249  -1.869  -2.039   4.101  0.0861 -0.3249  1.1986
   33HTM   C162 6250  -1.828  -2.162   4.059  0.7201 -0.3788  1.9305
   33HTM   C163 6251  -1.920  -2.268   4.092  0.9215 -0.5528  1.9387
   33HTM   C164 6252  -2.031  -2.226   4.159  0.4410 -0.6315  1.2131
   33HTM    S17 6253  -2.028  -2.047   4.186 -0.3090 -0.4910  0.4573
   34TAL   C165 6254  -1.882  -2.418   4.076  0.9159  0.7916 -0.0237
   34TAL   C166 6255  -1.811  -2.487   3.960  0.5317 -1.4532 -0.7863
   34TAL   C167 6256  -1.673  -2.430   3.921 -0.0869 -0.2572  0.4727
   34TAL   C168 6257  -1.574  -2.548   3.906  0.1096 -0.6681 -0.3983
   34TAL   C169 6258  -1.433  -2.498   3.875  0.2388  0.7168 -0.1011
   34TAL   C170 6259  -1.370  -2.621   3.817 -0.0758 -0.2680 -1.1321
   35HTM   C171 6260  -2.130  -2.298   4.240 -0.3552 -0.0335  0.4315
   35HTM   C172 6261  -2.152  -2.290   4.374 -0.6738 -0.0587  0.3817
   35HTM   C173 6262  -2.245  -2.389   4.423 -0.6179 -0.2142  0.1787
   35HTM   C174 6263  -2.294  -2.471   4.326 -0.2569 -0.3078  0.0736
   35HTM    S18 6264  -2.226  -2.431   4.164  0.0429 -0.2055  0.2240
   36TAL   C175 6265  -2.254  -2.387   4.580  0.5561 -1.4120  0.6059
   36TAL   C176 6266  -2.376  -2.450   4.653  0.5452  0.1923  0.2808
   36TAL   C177 6267  -2.331  -2.451   4.809  0.0142 -0.4377 -0.7629
   36TAL   C178 6268  -2.279  -2.320   4.867  0.5166  0.7040 -1.0360
   36TAL   C179 6269  -2.383  -2.255   4.957  0.6434  0.2731  0.3128
   36TAL   C180 6270  -2.321  -2.129   4.997  0.4543  0.1399 -0.2325
   37HTM   C181 6271  -2.377  -2.580   4.311  0.0164 -0.0397  0.1401
   37HTM   C182 6272  -2.336  -2.705   4.347  0.2760  0.0051  0.0035
   37HTM   C183 6273  -2.441  -2.804   4.345  0.4581 -0.1894 -0.0041
   37HTM   C184 6274  -2.562  -2.754   4.307  0.3372 -0.3823  0.1271
   37HTM    S19 6275  -2.553  -2.578   4.271 -0.0186 -0.3333  0.2712
   38TAL   C185 6276  -2.399  -2.959   4.349  0.1953 -0.0965  0.0184
   38TAL   C186 6277  -2.327  -3.018   4.228 -1.0235 -0.6677  0.1467
   38TAL   C187 6278  -2.285  -3.165   4.259 -0.4347  0.3916  0.6130
   38TAL   C188 6279  -2.400  -3.266   4.244  0.0444 -0.7379 -0.3002
   38TAL   C189 6280  -2.396  -3.348   4.123  0.1263 -0.0480 -0.4826
   38TAL   C190 6281  -2.527  -3.415   4.096 -0.7635  0.7500 -1.0828
   39HTM   C191 6282  -2.695  -2.820   4.313 -0.3127  0.3512  0.9991
   39HTM   C192 6283  -2.732  -2.947   4.346 -0.6810  0.3343  0.5376
   39HTM   C193 6284  -2.873  -2.972   4.330 -0.5815  0.4498 -0.6565
   39HTM   C194 6285  -2.943  -2.864   4.284 -0.1372  0.5548 -1.1055
   39HTM    S20 6286  -2.836  -2.722   4.258  0.1923  0.5157 -0.0468
   40TAL   C195 6287  -2.914  -3.118   4.337 -0.4824 -0.5014  0.0265
   40TAL   C196 6288  -2.901  -3.194   4.211  0.3572  0.3370  0.8030
   40TAL   C197 6289  -2.885  -3.343   4.221 -0.3426 -0.0149 -1.1010
   40TAL   C198 6290  -2.884  -3.417   4.094 -1.0414 -0.5613 -0.1865
   40TAL   C199 6291  -2.875  -3.559   4.148 -0.0574 -1.1164  0.4163
   40TAL   C200 6292  -2.937  -3.648   4.039  1.1342  0.3157 -0.7309
   41HTM   C201 6293  -3.085  -2.842   4.271 -0.1092  0.0086  0.3653
   41HTM   C202 6294  -3.172  -2.933   4.218 -0.3656  0.0069  0.7820
   41HTM   C203 6295  -3.293  -2.874   4.167 -0.4057  0.0584  0.9352
   41HTM   C204 6296  -3.298  -2.738   4.180 -0.1799  0.0994  0.6353
   41HTM    S21 6297  -3.149  -2.674   4.260  0.1032  0.0757  0.1326
   42TAL   C205 6298  -3.388  -2.965   4.083  0.6413 -0.3617 -0.5175
   42TAL   C206 6299  -3.506  -2.919   4.002 -0.1148  0.6868  0.0727
   42TAL   C207 6300  -3.579  -3.029   3.922  0.4839 -0.4816  0.0525
   42TAL   C208 6301  -3.702  -3.096   3.994  0.0684 -0.3103 -0.6021
   42TAL   C209 6302  -3.827  -3.010   3.992 -0.2975  0.6761  0.0410
   42TAL   C210 6303  -3.905  -3.013   3.860  0.2079  0.0759  0.5375
   43HTM   C211 6304  -3.395  -2.632   4.149  0.4712  0.2100 -0.1700
   43HTM   C212 6305  -3.442  -2.546   4.243  0.9788  0.6667 -0.3217
   43HTM   C213 6306  -3.532  -2.447   4.191  1.0730  0.7154 -0.3932
   43HTM   C214 6307  -3.554  -2.457   4.057  0.6370  0.2956 -0.2960
   43HTM    S22 6308  -3.461  -2.594   3.986  0.0693 -0.1972 -0.1051
   44TAL   C215 6309  -3.588  -2.358   4.299  0.7151 -0.1590  0.3048
   44TAL   C216 6310  -3.577  -2.208   4.268 -0.0515  0.1082  0.7730
   44TAL   C217 6311  -3.623  -2.108   4.378 -0.4132  0.0374 -0.6484
   44TAL   C218 6312  -3.769  -2.151   4.409 -0.0784  0.0615  0.6794
   44TAL   C219 6313  -3.858  -2.055   4.482 -0.4120 -0.3453 -0.7001
   44TAL   C220 6314  -4.002  -2.098   4.523 -1.2977 -0.7539  0.5247
   45HTM   C221 6315  -3.637  -2.385   3.968  0.1207 -0.0195 -0.2168
   45HTM   C222 6316  -3.752  -2.313   3.983  0.1824  0.0240  0.0615
   45HTM   C223 6317  -3.789  -2.237   3.866  0.0482  0.2153  0.2267
   45HTM   C224 6318  -3.702  -2.251   3.762 -0.1160  0.3175  0.0743
   45HTM    S23 6319  -3.566  -2.361   3.804 -0.1137  0.1791 -0.2926
   46TAL   C225 6320  -3.915  -2.151   3.863  0.0194  0.1975  0.7568
   46TAL   C226 6321  -4.028  -2.205   3.769  0.1047  1.1051 -0.3006
   46TAL   C227 6322  -4.068  -2.342   3.804  0.4776 -0.7901  0.3491
   46TAL   C228 6323  -4.185  -2.390   3.719  0.2665 -0.0944 -0.7911
   46TAL   C229 6324  -4.152  -2.405   3.571  0.7331  0.6641 -0.7144
   46TAL   C230 6325  -4.242  -2.501   3.496  0.4214 -0.3949  0.0986
   47HTM   C231 6326  -3.689  -2.190   3.628  0.1406  0.0024  0.3546
   47HTM   C232 6327  -3.730  -2.251   3.514  0.2384 -0.0428  0.3437
   47HTM   C233 6328  -3.707  -2.174   3.394  0.3799 -0.1081  0.3276
   47HTM   C234 6329  -3.649  -2.053   3.418  0.3900 -0.1128  0.3261
   47HTM    S24 6330  -3.618  -2.027   3.594  0.2204 -0.0343  0.3452
   48TAL   C235 6331  -3.749  -2.233   3.260  0.3036 -0.3795  1.3336
   48TAL   C236 6332  -3.739  -2.158   3.127  0.1598 -0.1134  0.1398
   48TAL   C237 6333  -3.627  -2.069   3.088 -0.7484 -0.1344  0.6103
   48TAL   C238 6334  -3.496  -2.128   3.044 -1.1343  0.4586  0.3975
   48TAL   C239 6335  -3.387  -2.034   3.004 -0.8340  0.8757  0.4728
   48TAL   C240 6336  -3.411  -1.918   2.915 -0.9978 -0.5515  1.2378
    1HTM     C1 6337   5.870   5.102   6.837  0.6757 -0.3712  0.4025
    1HTM     C2 6338   5.744   5.052   6.826  0.8203 -0.8297  0.7677
    1HTM     C3 6339   5.693   5.051   6.691  0.4636 -1.0868  0.9006
    1HTM     C4 6340   5.781   5.100   6.599  0.0473 -0.8245  0.6371
    1HTM     S1 6341   5.936   5.152   6.676  0.0734 -0.2275  0.1968
    2TAL     C5 6342   5.544   5.026   6.677  0.4946 -0.4560 -0.0000
    2TAL     C6 6343   5.469   4.978   6.544 -0.4353  0.1144 -0.8036
    2TAL     C7 6344   5.533   4.849   6.495 -0.0607 -1.4123  0.2373
    2TAL     C8 6345   5.441   4.778   6.405  0.7993  0.1202  0.7979
    2TAL     C9 6346   5.486   4.652   6.343 -0.2734 -0.5577  0.0913
    2TAL    C10 6347   5.447   4.528   6.422  0.1914  0.3006  0.4619
    3HTM    C11 6348   5.758   5.137   6.455  0.1793 -0.3164 -0.0654
    3HTM    C12 6349   5.699   5.241   6.390  0.6787  0.1543  0.2234
    3HTM    C13 6350   5.712   5.235   6.247  0.7118  0.5345  0.2069
    3HTM    C14 6351   5.780   5.125   6.202  0.2378  0.3538 -0.0946
    3HTM     S2 6352   5.834   5.021   6.340 -0.2914 -0.3159 -0.3832
    4TAL    C15 6353   5.637   5.352   6.174 -0.1807 -0.2888  1.8795
    4TAL    C16 6354   5.498   5.357   6.139  1.0184 -0.2969 -0.0189
    4TAL    C17 6355   5.438   5.239   6.074  0.5791 -0.2495  0.6882
    4TAL    C18 6356   5.339   5.257   5.958  0.1574  0.7703 -1.3850
    4TAL    C19 6357   5.370   5.321   5.824 -1.2128  0.0740 -0.6858
    4TAL    C20 6358   5.235   5.339   5.755  0.7972  0.3472  0.2692
    5HTM    C21 6359   5.821   5.070   6.071 -0.1960 -0.0920  0.0356
    5HTM    C22 6360   5.843   5.139   5.955  0.4097  0.1149  0.2676
    5HTM    C23 6361   5.922   5.067   5.858  0.8849  0.2730  0.5306
    5HTM    C24 6362   5.960   4.943   5.900  0.6417  0.1867  0.4991
    5HTM     S3 6363   5.899   4.907   6.066 -0.2132 -0.1031  0.1321
    6TAL    C25 6364   5.926   5.102   5.711  0.0850 -0.9157  0.3922
    6TAL    C26 6365   6.063   5.125   5.638 -0.3626 -0.8705 -1.3126
    6TAL    C27 6366   6.062   5.174   5.499  0.4490  0.2786 -0.2163
    6TAL    C28 6367   6.017   5.077   5.388  0.0706  0.0041 -0.1112
    6TAL    C29 6368   6.098   4.949   5.363  1.0714 -0.6134 -1.1697
    6TAL    C30 6369   6.059   4.883   5.228  0.0515 -0.4296 -0.4658
    7HTM    C31 6370   6.029   4.841   5.828  0.0160 -0.3102  0.0449
    7HTM    C32 6371   6.162   4.817   5.842  0.1264  0.0430 -0.3505
    7HTM    C33 6372   6.213   4.716   5.753  0.2216  0.4796 -0.7951
    7HTM    C34 6373   6.119   4.663   5.670  0.1838  0.4591 -0.7389
    7HTM     S4 6374   5.957   4.737   5.699  0.0237 -0.1175 -0.1151
    8TAL    C35 6375   6.360   4.708   5.752  0.7984 -0.6976 -0.9964
    8TAL    C36 6376   6.431   4.696   5.895 -0.9925 -0.0549 -0.5250
    8TAL    C37 6377   6.589   4.680   5.904 -0.3448 -0.5515 -0.5263
    8TAL    C38 6378   6.680   4.753   5.805  0.0619 -0.3368 -0.3202
    8TAL    C39 6379   6.828   4.736   5.828  0.6468  0.3175  0.1361
    8TAL    C40 6380   6.907   4.785   5.712 -0.2413  0.7558 -0.2807
    9HTM    C41 6381   6.126   4.555   5.575  0.1865  0.4729 -0.0741
    9HTM    C42 6382   6.222   4.466   5.537  0.0240  0.2419  0.0472
    9HTM    C43 6383   6.180   4.374   5.434 -0.2450 -0.0308  0.3959
    9HTM    C44 6384   6.051   4.393   5.394 -0.2876 -0.0077  0.5407
    9HTM     S5 6385   5.973   4.529   5.483  0.0110  0.3633  0.2453
   10TAL    C45 6386   6.282   4.265   5.396 -0.4520  0.4529 -0.3618
   10TAL    C46 6387   6.261   4.133   5.322  0.4938  2.0779 -0.4613
   10TAL    C47 6388   6.180   4.036   5.424 -0.4044  0.7834  0.0317
   10TAL    C48 6389   6.193   3.885   5.395 -1.2099  0.8394 -0.0535
   10TAL    C49 6390   6.114   3.829   5.282 -0.2726  0.2346 -0.3283
   10TAL    C50 6391   6.110   3.683   5.258  0.5808  0.3236  0.6864
   11HTM    C51 6392   5.972   4.306   5.303 -0.1841 -0.3060  0.3959
   11HTM    C52 6393   5.956   4.302   5.168  0.0467 -0.5798  0.3763
   11HTM    C53 6394   5.863   4.202   5.123  0.2686 -0.8008  0.4048
   11HTM    C54 6395   5.807   4.130   5.225  0.2070 -0.6957  0.4461
   11HTM     S6 6396   5.869   4.183   5.386 -0.1388 -0.3060  0.4522
   12TAL    C55 6397   5.830   4.190   4.978 -0.3686 -0.2644 -0.2457
   12TAL    C56 6398   5.856   4.292   4.869  0.4226  0.1359  0.6159
   12TAL    C57 6399   5.791   4.248   4.736 -0.0972 -1.1762 -0.6824
   12TAL    C58 6400   5.846   4.356   4.641  0.2434 -0.2522  0.0826
   12TAL    C59 6401   5.766   4.335   4.514 -1.2054  0.0196  0.2270
   12TAL    C60 6402   5.867   4.388   4.403 -0.1782  0.3422 -0.3106
   13HTM    C61 6403   5.701   4.024   5.212 -0.2576  0.5841 -0.1477
   13HTM    C62 6404   5.717   3.893   5.248  0.4562  0.5304 -0.6070
   13HTM    C63 6405   5.604   3.810   5.215  0.9574 -0.0060 -1.0133
   13HTM    C64 6406   5.502   3.878   5.154  0.6257 -0.3612 -0.8639
   13HTM     S7 6407   5.542   4.053   5.133 -0.3528 -0.0435 -0.1930
   14TAL    C65 6408   5.603   3.668   5.260 -0.8622 -0.0698  0.0123
   14TAL    C66 6409   5.737   3.589   5.218 -0.4577  0.2860 -0.3642
   14TAL    C67 6410   5.780   3.458   5.300  0.6101  0.3616  1.1845
   14TAL    C68 6411   5.692   3.335   5.292  0.0973  0.2255 -0.0836
   14TAL    C69 6412   5.724   3.233   5.188  0.3891 -0.0836  0.8904
   14TAL    C70 6413   5.622   3.112   5.194  0.5815  0.2026 -0.0713
   15HTM    C71 6414   5.364   3.848   5.112 -0.0581 -0.1910 -0.6402
   15HTM    C72 6415   5.307   3.724   5.107 -0.0868 -0.1709 -0.8366
   15HTM    C73 6416   5.167   3.726   5.075 -0.0941 -0.0847 -0.8003
   15HTM    C74 6417   5.117   3.852   5.055 -0.0711 -0.0391 -0.5760
   15HTM     S8 6418   5.244   3.978   5.076 -0.0380 -0.1020 -0.3922
   16TAL    C75 6419   5.115   3.589   5.058  0.9250  0.1992  1.0839
   16TAL    C76 6420   5.047   3.545   4.919 -0.0848 -0.6166  1.1721
   16TAL    C77 6421   5.142   3.494   4.814 -0.8931  0.0678  0.6031
   16TAL    C78 6422   5.082   3.453   4.681  1.4382 -0.0834 -0.0026
   16TAL    C79 6423   5.037   3.578   4.613 -0.8638  0.1157  0.3069
   16TAL    C80 6424   5.137   3.633   4.515  0.0779  0.1552  0.4383
   17HTM    C81 6425   4.991   3.910   5.018  0.2469 -0.0017 -0.2608
   17HTM    C82 6426   4.966   4.041   4.987 -0.2360  0.1336  0.6431
   17HTM    C83 6427   4.826   4.072   4.975 -0.3794 -0.1568  1.4009
   17HTM    C84 6428   4.744   3.965   4.995 -0.0060 -0.5134  1.0747
   17HTM     S9 6429   4.838   3.816   5.033  0.5604 -0.5103 -0.2250
   18TAL    C85 6430   4.758   4.198   4.931 -0.2527 -0.4217 -0.2074
   18TAL    C86 6431   4.779   4.241   4.790  0.2388 -0.3464 -0.5997
   18TAL    C87 6432   4.698   4.375   4.767  0.5754  0.9683 -0.3729
   18TAL    C88 6433   4.663   4.412   4.622 -0.2872 -0.5277 -0.6146
   18TAL    C89 6434   4.621   4.296   4.532  1.2847  0.0838 -0.8189
   18TAL    C90 6435   4.573   4.330   4.396  0.7849 -0.4633  1.1462
   19HTM    C91 6436   4.597   3.947   4.988 -0.3274  0.0292 -0.1392
   19HTM    C92 6437   4.504   3.993   4.900 -0.7291  0.3236  0.4280
   19HTM    C93 6438   4.371   3.941   4.923 -0.6118  0.1819  0.8011
   19HTM    C94 6439   4.364   3.855   5.028 -0.1207 -0.2206  0.5181
   19HTM    S10 6440   4.524   3.833   5.107  0.2346 -0.4536 -0.2472
   20TAL    C95 6441   4.244   4.002   4.860  1.0451  1.4613 -0.0030
   20TAL    C96 6442   4.254   4.059   4.713 -1.0623 -0.4384 -0.7488
   20TAL    C97 6443   4.138   4.146   4.656 -0.3178 -0.3339 -0.3960
   20TAL    C98 6444   4.103   4.273   4.747  0.5882  0.2437  0.2493
   20TAL    C99 6445   4.209   4.372   4.789  0.1102  0.4445 -0.1165
   20TAL   C100 6446   4.161   4.463   4.904  0.2939  0.9261 -0.0036
   21HTM   C101 6447   4.251   3.789   5.102 -0.6265 -0.0539  0.0354
   21HTM   C102 6448   4.143   3.720   5.055 -0.5690 -0.1183 -0.0038
   21HTM   C103 6449   4.058   3.669   5.159 -0.4497 -0.3722 -0.0311
   21HTM   C104 6450   4.102   3.698   5.285 -0.4161 -0.5013 -0.0128
   21HTM    S11 6451   4.255   3.793   5.282 -0.5335 -0.3108  0.0409
   22TAL   C105 6452   3.937   3.597   5.122  1.0998  0.8746 -0.1217
   22TAL   C106 6453   3.941   3.486   5.011 -0.1167 -0.1895  0.1275
   22TAL   C107 6454   3.824   3.396   5.005 -0.1577  0.1078  0.0401
   22TAL   C108 6455   3.675   3.444   5.043  0.0985  0.3515  0.2775
   22TAL   C109 6456   3.577   3.331   5.018  0.5098  0.7568 -0.7632
   22TAL   C110 6457   3.427   3.376   5.042 -0.4859 -0.3378 -0.4405
   23HTM   C111 6458   4.056   3.651   5.412  0.8389 -0.2971  0.0168
   23HTM   C112 6459   3.961   3.694   5.499  0.7771  0.0072 -0.1965
   23HTM   C113 6460   3.933   3.600   5.606  0.1364  0.0274 -0.3359
   23HTM   C114 6461   4.007   3.486   5.599 -0.2904 -0.2615 -0.2290
   23HTM    S12 6462   4.119   3.488   5.457  0.0867 -0.5838  0.0581
   24TAL   C115 6463   3.830   3.630   5.712  0.3662 -0.0665  0.4760
   24TAL   C116 6464   3.717   3.530   5.747  0.2329 -0.4564  0.2521
   24TAL   C117 6465   3.610   3.587   5.838  0.2259  0.5034  0.7863
   24TAL   C118 6466   3.497   3.498   5.879 -0.0846 -0.0356  0.0900
   24TAL   C119 6467   3.504   3.344   5.907  0.2552  0.0630  0.0231
   24TAL   C120 6468   3.612   3.275   5.995  0.1227 -0.1206 -0.8908
   25HTM   C121 6469   4.019   3.365   5.677  0.1224  0.1243  0.1638
   25HTM   C122 6470   3.952   3.248   5.657 -0.1801  0.3121  0.0657
   25HTM   C123 6471   3.986   3.145   5.752 -0.5120  0.1734  0.0355
   25HTM   C124 6472   4.079   3.184   5.844 -0.4625 -0.1200  0.1107
   25HTM    S13 6473   4.131   3.354   5.818  0.0106 -0.2450  0.2265
   26TAL   C125 6474   3.927   3.013   5.714 -0.6647  0.3785 -0.6416
   26TAL   C126 6475   4.011   2.929   5.609 -0.4376 -0.8312 -0.2600
   26TAL   C127 6476   3.939   2.806   5.566 -0.6141 -0.6778  0.0239
   26TAL   C128 6477   4.009   2.748   5.451  0.3761 -0.4357  1.2894
   26TAL   C129 6478   3.962   2.605   5.423 -0.8243 -0.3502  0.4508
   26TAL   C130 6479   3.995   2.544   5.293 -0.0927  0.0841 -0.4898
   27HTM   C131 6480   4.123   3.126   5.975 -0.1238 -0.1030  0.0654
   27HTM   C132 6481   4.062   3.017   6.028  0.0671 -0.2996 -0.1137
   27HTM   C133 6482   4.099   2.991   6.165  0.0753 -0.4299 -0.1408
   27HTM   C134 6483   4.189   3.080   6.215 -0.1094 -0.3326  0.0178
   27HTM    S14 6484   4.233   3.205   6.093 -0.3095 -0.0668  0.2151
   28TAL   C135 6485   4.012   2.884   6.237 -0.0579  0.6004  0.0489
   28TAL   C136 6486   3.880   2.822   6.196  0.2700 -0.7964 -0.7646
   28TAL   C137 6487   3.895   2.731   6.071  0.3740  0.5586  0.9711
   28TAL   C138 6488   3.964   2.601   6.093  1.2866  0.5699  0.5700
   28TAL   C139 6489   3.968   2.495   5.976 -0.0010 -0.0652  0.4302
   28TAL   C140 6490   3.982   2.556   5.822  1.3290  0.3410  0.4765
   29HTM   C141 6491   4.263   3.077   6.340 -0.0691  0.1491 -0.7985
   29HTM   C142 6492   4.322   3.177   6.410 -0.1955  0.3648 -0.9984
   29HTM   C143 6493   4.391   3.133   6.528 -0.0139  0.6680 -0.9875
   29HTM   C144 6494   4.384   2.998   6.548  0.2510  0.6836 -0.7795
   29HTM    S15 6495   4.289   2.917   6.418  0.2918  0.3135 -0.5795
   30TAL   C145 6496   4.482   3.234   6.610  0.7024 -0.5019  0.7484
   30TAL   C146 6497   4.403   3.351   6.675 -0.6054 -0.5499 -0.4088
   30TAL   C147 6498   4.499   3.446   6.747  0.1043 -0.8736 -0.2897
   30TAL   C148 6499   4.556   3.427   6.888  0.7097  0.8218  0.7193
   30TAL   C149 6500   4.452   3.463   6.993  0.1031  0.6020 -0.8141
   30TAL   C150 6501   4.383   3.600   6.994  0.0032  0.4161  0.4372
   31HTM   C151 6502   4.427   2.914   6.658  0.4243  0.9222 -0.0942
   31HTM   C152 6503   4.354   2.803   6.690 -0.0210  1.1926 -0.1469
   31HTM   C153 6504   4.409   2.727   6.800 -0.3057  0.9023 -0.2012
   31HTM   C154 6505   4.524   2.780   6.851 -0.0777  0.4106 -0.1900
   31HTM    S16 6506   4.571   2.932   6.765  0.5191  0.2749 -0.1092
   32TAL   C155 6507   4.345   2.595   6.861 -1.1235 -0.6768 -0.0582
   32TAL   C156 6508   4.219   2.514   6.814 -0.1315  0.6058  0.2466
   32TAL   C157 6509   4.225   2.361   6.829  0.3820 -0.1574 -1.0879
   32TAL   C158 6510   4.154   2.273   6.723 -0.6612 -0.7300  0.2439
   32TAL   C159 6511   4.001   2.270   6.729 -0.2190 -0.8942 -0.2310
   32TAL   C160 6512   3.941   2.190   6.843  0.6577  0.2851 -0.2389
   33HTM   C161 6513   4.600   2.724   6.961 -0.5948 -0.1877  0.8541
   33HTM   C162 6514   4.655   2.603   6.989 -0.5875 -0.2323  0.6506
   33HTM   C163 6515   4.744   2.604   7.102 -0.0765 -0.2799  0.2587
   33HTM   C164 6516   4.757   2.727   7.161  0.3056 -0.2716  0.1632
   33HTM    S17 6517   4.657   2.851   7.076  0.0481 -0.2024  0.5640
   34TAL   C165 6518   4.793   2.464   7.145 -0.5977 -0.1032 -0.7340
   34TAL   C166 6519   4.683   2.380   7.198 -0.7408 -0.4695  0.1161
   34TAL   C167 6520   4.619   2.420   7.329 -0.0531 -0.0260 -0.4057
   34TAL   C168 6521   4.467   2.378   7.337 -0.4781  0.3262  0.1993
   34TAL   C169 6522   4.394   2.376   7.464 -0.2896 -0.6159 -0.6992
   34TAL   C170 6523   4.274   2.475   7.484  0.8500 -0.1199 -0.1245
   35HTM   C171 6524   4.829   2.766   7.284 -0.2179 -0.0478  0.1369
   35HTM   C172 6525   4.888   2.887   7.307 -0.4139  0.0100  0.3377
   35HTM   C173 6526   4.974   2.889   7.422 -0.4544 -0.0292  0.3692
   35HTM   C174 6527   4.981   2.770   7.487 -0.2896 -0.1169  0.1921
   35HTM    S18 6528   4.879   2.644   7.408 -0.0686 -0.1571 -0.0296
   36TAL   C175 6529   5.036   3.025   7.449  0.0566 -1.3006 -0.6043
   36TAL   C176 6530   5.183   3.064   7.421  0.9777 -0.6193  0.6449
   36TAL   C177 6531   5.219   3.195   7.511  0.2896 -0.1955  0.3212
   36TAL   C178 6532   5.198   3.330   7.424  0.4535 -0.0487 -0.3602
   36TAL   C179 6533   5.259   3.452   7.491 -0.2466 -1.3291 -0.6851
   36TAL   C180 6534   5.187   3.504   7.620 -0.5814  0.6166  0.5478
   37HTM   C181 6535   5.058   2.740   7.603  0.2660  0.1608 -0.0915
   37HTM   C182 6536   5.068   2.805   7.723  0.5640  0.4370 -0.2646
   37HTM   C183 6537   5.147   2.735   7.820  0.6633  0.5794 -0.2422
   37HTM   C184 6538   5.198   2.617   7.776  0.4411  0.4116 -0.0521
   37HTM    S19 6539   5.148   2.584   7.605  0.0864  0.0582  0.1150
   38TAL   C185 6540   5.173   2.808   7.956  0.3894  0.1574 -0.5753
   38TAL   C186 6541   5.072   2.771   8.061  0.8922 -0.8866 -0.2164
   38TAL   C187 6542   5.083   2.865   8.190  0.8191  0.2227  0.4206
   38TAL   C188 6543   4.971   2.846   8.294 -0.0910  0.0999 -0.1969
   38TAL   C189 6544   5.024   2.832   8.436 -0.9748 -0.2628  0.7372
   38TAL   C190 6545   4.920   2.785   8.522  0.4494  1.6754 -1.5301
   39HTM   C191 6546   5.261   2.506   7.840  0.1312 -0.2990 -0.4490
   39HTM   C192 6547   5.208   2.381   7.849  0.2475 -0.3623 -0.6317
   39HTM   C193 6548   5.291   2.288   7.923  0.1457 -0.2855 -0.4188
   39HTM   C194 6549   5.407   2.344   7.969 -0.0480 -0.1636 -0.0737
   39HTM    S20 6550   5.420   2.518   7.924 -0.1176 -0.1362  0.0096
   40TAL   C195 6551   5.243   2.148   7.967 -1.3501 -0.0867  0.3921
   40TAL   C196 6552   5.260   2.048   7.857 -0.1920  0.7543 -0.2275
   40TAL   C197 6553   5.280   1.902   7.910 -0.3359  1.1785  0.0600
   40TAL   C198 6554   5.255   1.796   7.800 -0.8082  0.8827 -0.8325
   40TAL   C199 6555   5.269   1.640   7.805 -0.4561 -0.6472 -0.3073
   40TAL   C200 6556   5.207   1.581   7.677 -0.2630  0.0342 -0.2970
   41HTM   C201 6557   5.526   2.293   8.036 -0.0628 -0.1345  0.4721
   41HTM   C202 6558   5.649   2.344   8.012 -0.1719  0.0610  0.3276
   41HTM   C203 6559   5.756   2.271   8.074  0.0180  0.2244  0.1969
   41HTM   C204 6560   5.714   2.164   8.147  0.2721  0.1535  0.2414
   41HTM    S21 6561   5.535   2.146   8.141  0.2913 -0.1272  0.4544
   42TAL   C205 6562   5.895   2.320   8.037  0.0306  0.3038  1.3236
   42TAL   C206 6563   6.027   2.295   8.111 -0.2217 -0.6606  0.8442
   42TAL   C207 6564   6.155   2.367   8.043 -0.1389 -1.1136 -0.4196
   42TAL   C208 6565   6.141   2.511   7.999 -0.6405  0.0435  0.2810
   42TAL   C209 6566   6.057   2.621   8.063 -0.5512  0.9395 -0.9528
   42TAL   C210 6567   6.044   2.757   7.983 -0.3667  0.1189  0.4196
   43HTM   C211 6568   5.793   2.061   8.213 -0.6732  0.5107  0.4515
   43HTM   C212 6569   5.886   1.975   8.161 -1.1350  0.2863 -0.0143
   43HTM   C213 6570   5.941   1.884   8.258 -0.7645  0.2485 -0.2589
   43HTM   C214 6571   5.891   1.901   8.384 -0.0202  0.4440  0.0205
   43HTM    S22 6572   5.769   2.034   8.390  0.2726  0.6931  0.6187
   44TAL   C215 6573   6.060   1.796   8.212 -0.4065  0.0794  0.0296
   44TAL   C216 6574   6.169   1.886   8.148 -0.4776 -0.3325  0.9380
   44TAL   C217 6575   6.315   1.840   8.151 -0.3193 -0.1776 -0.3011
   44TAL   C218 6576   6.422   1.938   8.090 -0.2576 -0.4429 -0.3960
   44TAL   C219 6577   6.427   2.087   8.141 -0.6787  0.2035  0.4910
   44TAL   C220 6578   6.519   2.111   8.258  0.4181  0.4765  0.6692
   45HTM   C221 6579   5.926   1.829   8.500  0.4210 -0.3878 -0.4380
   45HTM   C222 6580   5.887   1.709   8.551  0.6232 -0.4812 -0.5007
   45HTM   C223 6581   5.948   1.678   8.678  0.6365 -0.4217 -0.4921
   45HTM   C224 6582   6.033   1.774   8.723  0.4442 -0.2827 -0.4226
   45HTM    S23 6583   6.044   1.913   8.609  0.2302 -0.2159 -0.3626
   46TAL   C225 6584   5.904   1.561   8.766  0.9009 -0.7110 -1.1178
   46TAL   C226 6585   5.840   1.445   8.681  0.3866 -0.1346 -0.5254
   46TAL   C227 6586   5.754   1.340   8.754  0.2806 -0.6187  0.0776
   46TAL   C228 6587   5.735   1.238   8.645 -0.1384  0.4018 -0.2844
   46TAL   C229 6588   5.668   1.097   8.677  0.2265 -0.6817 -0.9199
   46TAL   C230 6589   5.518   1.106   8.701 -0.6839 -0.2261  0.2322
   47HTM   C231 6590   6.123   1.783   8.846 -0.4978  0.1512  0.0640
   47HTM   C232 6591   6.168   1.684   8.929 -0.5232  0.3792  0.3526
   47HTM   C233 6592   6.253   1.732   9.035 -0.3219  0.6453  0.0770
   47HTM   C234 6593   6.271   1.868   9.034 -0.1430  0.6202 -0.4227
   47HTM    S24 6594   6.183   1.945   8.897 -0.2155  0.2558 -0.5844
   48TAL   C235 6595   6.318   1.630   9.128 -0.0825  0.6388 -0.6270
   48TAL   C236 6596   6.399   1.676   9.253 -0.1777  0.5975  0.6669
   48TAL   C237 6597   6.396   1.568   9.358 -0.0481 -0.2760 -1.1399
   48TAL   C238 6598   6.534   1.547   9.429 -0.3776 -0.4786 -0.4567
   48TAL   C239 6599   6.539   1.508   9.574  0.5092 -0.0819 -0.2986
   48TAL   C240 6600   6.685   1.488   9.599 -0.4445 -0.0971  1.1205
    1HTM     C1 6601   8.473   4.284   1.585  0.6168 -0.5579 -0.5656
    1HTM     C2 6602   8.580   4.232   1.652  0.2835 -0.6616 -0.1054
    1HTM     C3 6603   8.547   4.120   1.736 -0.2887 -0.2599  0.2255
    1HTM     C4 6604   8.415   4.086   1.732 -0.3915  0.1502  0.0175
    1HTM     S1 6605   8.321   4.194   1.623  0.2307  0.0601 -0.6173
    2TAL     C5 6606   8.643   4.049   1.829  0.1347 -1.3832 -0.2722
    2TAL     C6 6607   8.723   3.930   1.797  0.4798 -0.0548 -0.5124
    2TAL     C7 6608   8.845   3.942   1.706 -0.9791 -0.2071 -0.4673
    2TAL     C8 6609   8.891   3.802   1.665 -0.4852 -0.9795 -0.3801
    2TAL     C9 6610   9.015   3.805   1.572  0.6415 -0.0629  0.0774
    2TAL    C10 6611   9.143   3.854   1.628 -0.4455 -0.2840 -1.1263
    3HTM    C11 6612   8.349   3.966   1.791 -0.7957  0.0412  0.1747
    3HTM    C12 6613   8.247   3.965   1.882 -1.0943 -0.3576 -0.1607
    3HTM    C13 6614   8.207   3.832   1.921 -0.7331 -0.5201 -0.3274
    3HTM    C14 6615   8.278   3.733   1.861 -0.1590 -0.2452 -0.1192
    3HTM     S2 6616   8.402   3.800   1.749 -0.0291  0.2442  0.3068
    4TAL    C15 6617   8.120   3.816   2.041  0.0076  0.2924 -1.0496
    4TAL    C16 6618   8.048   3.684   2.080  0.0828 -0.2243  0.6486
    4TAL    C17 6619   7.950   3.682   2.192  1.0489 -0.0840 -0.3964
    4TAL    C18 6620   8.007   3.723   2.323 -0.5509  0.5585 -0.1820
    4TAL    C19 6621   7.921   3.746   2.443  0.2529  0.2503 -0.0620
    4TAL    C20 6622   7.832   3.625   2.488 -0.3994  0.4616 -0.0108
    5HTM    C21 6623   8.265   3.591   1.850  0.0557 -0.2138 -0.0614
    5HTM    C22 6624   8.159   3.533   1.788  0.5102 -0.3660 -0.7189
    5HTM    C23 6625   8.169   3.389   1.778  0.8211 -0.3423 -0.7476
    5HTM    C24 6626   8.284   3.339   1.832  0.6031 -0.1721 -0.1119
    5HTM     S3 6627   8.388   3.469   1.901 -0.0157 -0.0273  0.5775
    6TAL    C25 6628   8.052   3.306   1.716 -0.0618 -0.7572  0.6192
    6TAL    C26 6629   7.981   3.371   1.594  0.1786  0.7730 -0.2577
    6TAL    C27 6630   8.056   3.387   1.466 -0.1985 -0.4262  0.8852
    6TAL    C28 6631   8.099   3.262   1.387 -0.4672  0.1575 -0.3114
    6TAL    C29 6632   8.183   3.154   1.448 -0.2550  0.2176  0.2046
    6TAL    C30 6633   8.329   3.182   1.468  0.4257  0.4906  0.3321
    7HTM    C31 6634   8.320   3.197   1.847 -0.7575  0.0664  0.2094
    7HTM    C32 6635   8.446   3.150   1.824 -0.7820  0.3252 -0.5317
    7HTM    C33 6636   8.456   3.006   1.834 -0.4478  0.3367 -0.6848
    7HTM    C34 6637   8.338   2.945   1.864 -0.1686  0.0865 -0.0603
    7HTM     S4 6638   8.204   3.064   1.882 -0.3068 -0.1851  0.7758
    8TAL    C35 6639   8.577   2.910   1.848  1.0039  0.0509  0.4406
    8TAL    C36 6640   8.649   2.944   1.972 -0.3918  0.1507  1.1325
    8TAL    C37 6641   8.788   2.877   1.975 -0.3670  0.0946  0.7415
    8TAL    C38 6642   8.881   2.916   2.096  0.3253  0.0364  0.4285
    8TAL    C39 6643   8.919   3.055   2.127 -0.0833 -0.9968  0.0572
    8TAL    C40 6644   8.978   3.153   2.012  0.6839  0.4100  0.0059
    9HTM    C41 6645   8.296   2.807   1.891  0.5961 -0.1221 -0.3926
    9HTM    C42 6646   8.316   2.746   2.012  0.6173  0.1114 -0.2769
    9HTM    C43 6647   8.261   2.613   2.019  0.3257  0.2482  0.1041
    9HTM    C44 6648   8.200   2.572   1.905  0.0819  0.1191  0.2789
    9HTM     S5 6649   8.206   2.700   1.777  0.2028 -0.1878 -0.0264
   10TAL    C45 6650   8.284   2.513   2.137 -0.7339 -0.7608  0.3378
   10TAL    C46 6651   8.416   2.533   2.224  0.7722 -0.1227  1.1394
   10TAL    C47 6652   8.551   2.535   2.139 -0.3969 -1.1318 -0.1313
   10TAL    C48 6653   8.673   2.563   2.230 -0.1662 -0.0477 -0.0942
   10TAL    C49 6654   8.702   2.447   2.330  0.4361 -0.5497  0.7268
   10TAL    C50 6655   8.800   2.472   2.449  0.4768 -0.0293 -0.5864
   11HTM    C51 6656   8.106   2.457   1.867 -0.5218  0.0693  0.3847
   11HTM    C52 6657   7.979   2.430   1.907 -0.3315 -0.3595  0.7175
   11HTM    C53 6658   7.932   2.300   1.865 -0.0962 -0.4140  0.6182
   11HTM    C54 6659   8.023   2.229   1.793 -0.1075 -0.0265  0.2097
   11HTM     S6 6660   8.178   2.320   1.773 -0.4184  0.4406 -0.0835
   12TAL    C55 6661   7.788   2.265   1.889  0.6135  1.1721 -0.3735
   12TAL    C56 6662   7.693   2.343   1.794 -0.9835  0.7194  0.3282
   12TAL    C57 6663   7.563   2.273   1.778 -0.0067  0.3990  1.4263
   12TAL    C58 6664   7.469   2.347   1.683 -0.4015 -0.4256 -0.6771
   12TAL    C59 6665   7.489   2.342   1.530 -0.0751 -0.2456 -0.5836
   12TAL    C60 6666   7.383   2.417   1.468  0.9021  0.1617  0.5884
   13HTM    C61 6667   8.017   2.086   1.751  0.3667  0.2136 -0.0330
   13HTM    C62 6668   8.003   2.046   1.622  0.4835  0.4503 -0.1203
   13HTM    C63 6669   7.955   1.911   1.608  0.1364  0.6004 -0.4096
   13HTM    C64 6670   7.932   1.848   1.727 -0.2447  0.4781 -0.5429
   13HTM     S7 6671   7.971   1.956   1.867 -0.1946  0.1614 -0.3115
   14TAL    C65 6672   7.927   1.853   1.469 -0.1915  0.2192 -0.0519
   14TAL    C66 6673   8.042   1.873   1.362  1.2288 -1.3655  0.3936
   14TAL    C67 6674   8.172   1.815   1.401  0.9179 -0.4130  0.7797
   14TAL    C68 6675   8.280   1.838   1.292  0.0928  0.3337  0.3510
   14TAL    C69 6676   8.403   1.762   1.317  0.9672 -0.2139  0.0515
   14TAL    C70 6677   8.495   1.803   1.199  0.3535  0.0054 -1.0935
   15HTM    C71 6678   7.865   1.716   1.759  0.3154  0.1010  0.2264
   15HTM    C72 6679   7.772   1.683   1.853 -0.3488  0.1617 -0.3893
   15HTM    C73 6680   7.731   1.545   1.848 -0.8065  0.3141 -0.9955
   15HTM    C74 6681   7.792   1.473   1.749 -0.4912  0.3696 -0.8420
   15HTM     S8 6682   7.908   1.574   1.655  0.4152  0.2325  0.0873
   16TAL    C75 6683   7.627   1.461   1.932  0.6678  0.4804 -0.8546
   16TAL    C76 6684   7.483   1.527   1.919 -0.4596  0.5544  0.1434
   16TAL    C77 6685   7.467   1.674   1.957  0.2162  0.6788 -0.3135
   16TAL    C78 6686   7.467   1.722   2.097 -0.0587  0.4930 -0.6583
   16TAL    C79 6687   7.399   1.654   2.215  0.3341  0.2948 -0.0835
   16TAL    C80 6688   7.335   1.757   2.313  0.1720  0.4933 -1.5001
   17HTM    C81 6689   7.793   1.334   1.711 -0.0066  0.2735  0.1826
   17HTM    C82 6690   7.722   1.283   1.606 -0.3569  0.4141  0.3472
   17HTM    C83 6691   7.756   1.147   1.573 -0.5425  0.4210  0.1202
   17HTM    C84 6692   7.853   1.094   1.653 -0.3339  0.2857 -0.2175
   17HTM     S9 6693   7.909   1.213   1.777  0.1169  0.1379 -0.2755
   18TAL    C85 6694   7.686   1.064   1.459  0.5347 -0.2731  1.3840
   18TAL    C86 6695   7.674   1.126   1.309  0.4473 -0.0721 -0.3572
   18TAL    C87 6696   7.610   1.034   1.195  1.5003  0.0171 -0.8090
   18TAL    C88 6697   7.464   0.995   1.237 -0.9567 -0.2288  0.3844
   18TAL    C89 6698   7.347   1.091   1.226 -0.4092  0.7858  0.5687
   18TAL    C90 6699   7.345   1.224   1.300  0.5076 -0.4468 -0.1125
   19HTM    C91 6700   7.912   0.970   1.677  1.1271  0.7405 -0.5503
   19HTM    C92 6701   7.950   0.917   1.797  1.5833  0.8398 -0.6450
   19HTM    C93 6702   7.996   0.781   1.789  0.8126  0.5653 -0.6075
   19HTM    C94 6703   7.994   0.730   1.663 -0.2314  0.2567 -0.4841
   19HTM    S10 6704   7.933   0.850   1.544 -0.3227  0.2891 -0.4052
   20TAL    C95 6705   8.056   0.693   1.901  0.4804 -0.0109  0.2710
   20TAL    C96 6706   7.967   0.661   2.022 -0.6332 -0.5211 -0.3129
   20TAL    C97 6707   8.036   0.553   2.114  0.1452  0.4447  0.5785
   20TAL    C98 6708   8.071   0.424   2.038  0.1808 -0.5437 -0.7648
   20TAL    C99 6709   8.133   0.315   2.124  0.1138  0.0633  1.0948
   20TAL   C100 6710   8.040   0.220   2.195  0.1475 -0.0381 -0.0677
   21HTM   C101 6711   8.044   0.595   1.613  0.0994 -0.1169 -0.5437
   21HTM   C102 6712   8.128   0.581   1.506 -0.4480 -0.1896 -0.9692
   21HTM   C103 6713   8.146   0.444   1.466 -0.4568 -0.2391 -0.8076
   21HTM   C104 6714   8.077   0.354   1.542  0.0837 -0.2043 -0.2589
   21HTM    S11 6715   7.983   0.436   1.671  0.6506 -0.1054  0.0991
   22TAL   C105 6716   8.261   0.396   1.374 -0.6713 -0.3292 -0.1864
   22TAL   C106 6717   8.414   0.411   1.413  0.2103  0.2342 -0.1785
   22TAL   C107 6718   8.501   0.287   1.392 -0.1334  0.8192  0.4162
   22TAL   C108 6719   8.635   0.266   1.467 -0.2902 -0.0789  0.3344
   22TAL   C109 6720   8.699   0.126   1.452  0.0308 -0.7398  0.4267
   22TAL   C110 6721   8.838   0.117   1.508  0.2972 -0.1846 -1.2235
   23HTM   C111 6722   8.074   0.205   1.535  0.6738 -0.8240 -0.5855
   23HTM   C112 6723   8.166   0.118   1.585  0.4890 -1.2774 -1.0232
   23HTM   C113 6724   8.121  -0.019   1.587 -0.1874 -1.0596 -0.7881
   23HTM   C114 6725   7.994  -0.036   1.539 -0.5178 -0.4401 -0.1710
   23HTM    S12 6726   7.922   0.121   1.487  0.0034 -0.0811  0.1634
   24TAL   C115 6727   8.223  -0.127   1.643 -0.9475 -0.2237  1.0942
   24TAL   C116 6728   8.344  -0.149   1.536  0.0987  0.3972  0.5442
   24TAL   C117 6729   8.436  -0.271   1.569 -0.7251 -0.8646 -0.2131
   24TAL   C118 6730   8.450  -0.357   1.436 -0.7414 -0.4055 -0.6216
   24TAL   C119 6731   8.506  -0.495   1.459  0.3637  0.0052  0.2304
   24TAL   C120 6732   8.435  -0.608   1.543 -0.2627 -0.4806 -1.4400
   25HTM   C121 6733   7.925  -0.157   1.513 -0.0392  0.1789  0.3252
   25HTM   C122 6734   7.838  -0.194   1.415 -0.4966  0.3402  0.6652
   25HTM   C123 6735   7.801  -0.333   1.420 -0.2759  0.2732  0.4614
   25HTM   C124 6736   7.860  -0.402   1.521  0.3499  0.0611 -0.0341
   25HTM    S13 6737   7.968  -0.297   1.620  0.7116 -0.0717 -0.2836
   26TAL   C125 6738   7.698  -0.402   1.332 -0.2508 -1.0917  0.3499
   26TAL   C126 6739   7.552  -0.432   1.390 -0.6830 -0.0227  0.2316
   26TAL   C127 6740   7.470  -0.360   1.496  0.0825  0.6761  0.9919
   26TAL   C128 6741   7.424  -0.211   1.455 -0.7546  1.9078  1.0156
   26TAL   C129 6742   7.389  -0.142   1.587  0.8761  0.2900  0.5349
   26TAL   C130 6743   7.297  -0.025   1.546  0.2054 -0.5812 -0.3404
   27HTM   C131 6744   7.856  -0.544   1.558 -0.2493  0.4947  0.5524
   27HTM   C132 6745   7.854  -0.665   1.494 -0.9974  0.6516  0.2594
   27HTM   C133 6746   7.885  -0.776   1.580 -1.2462  0.2964 -0.1055
   27HTM   C134 6747   7.911  -0.741   1.709 -0.6879 -0.1314 -0.0906
   27HTM    S14 6748   7.898  -0.562   1.733  0.2026 -0.1185  0.3890
   28TAL   C135 6749   7.896  -0.918   1.530 -1.5117 -0.1802  0.1404
   28TAL   C136 6750   7.795  -0.961   1.428 -0.5187 -0.1709  0.1420
   28TAL   C137 6751   7.802  -1.087   1.364  0.5730  0.0759  0.7503
   28TAL   C138 6752   7.666  -1.136   1.302 -1.4043 -0.3958  0.6153
   28TAL   C139 6753   7.678  -1.270   1.225 -1.8817 -0.3400  0.0949
   28TAL   C140 6754   7.561  -1.289   1.147 -0.3097  0.2720  0.4713
   29HTM   C141 6755   7.935  -0.824   1.825  0.0896 -0.7262 -0.1565
   29HTM   C142 6756   7.842  -0.904   1.885  0.1515 -0.7553 -0.0991
   29HTM   C143 6757   7.897  -0.995   1.982  0.1622 -0.3104  0.3178
   29HTM   C144 6758   8.032  -0.984   1.997  0.1083  0.0579  0.5783
   29HTM    S15 6759   8.101  -0.858   1.888  0.0397 -0.1300  0.3152
   30TAL   C145 6760   7.791  -1.054   2.090  0.7083 -0.0628 -0.7884
   30TAL   C146 6761   7.701  -0.969   2.182 -0.4626 -0.1710 -0.1861
   30TAL   C147 6762   7.781  -0.885   2.284  0.6318  0.4725 -1.2243
   30TAL   C148 6763   7.680  -0.820   2.383 -0.0578 -0.6315  0.0504
   30TAL   C149 6764   7.726  -0.711   2.489  0.7752  0.3031  0.9368
   30TAL   C150 6765   7.724  -0.571   2.414 -0.9913 -0.2854  0.1786
   31HTM   C151 6766   8.117  -1.058   2.099 -0.1821 -0.0741 -0.2076
   31HTM   C152 6767   8.228  -1.010   2.163 -0.0823 -0.1731 -0.3064
   31HTM   C153 6768   8.270  -1.090   2.274 -0.2358 -0.0441 -0.1551
   31HTM   C154 6769   8.191  -1.199   2.296 -0.4524  0.1533  0.0591
   31HTM    S16 6770   8.056  -1.209   2.177 -0.4795  0.1917  0.0865
   32TAL   C155 6771   8.373  -1.037   2.372  0.4883  0.4661 -0.6519
   32TAL   C156 6772   8.427  -0.889   2.354  0.8840 -0.2563  1.1567
   32TAL   C157 6773   8.574  -0.866   2.390  0.4711 -0.0246 -0.0642
   32TAL   C158 6774   8.614  -0.722   2.367 -0.1963  0.3990 -0.2227
   32TAL   C159 6775   8.765  -0.739   2.367  0.3511 -0.5659  0.0254
   32TAL   C160 6776   8.840  -0.615   2.316  0.2976  0.1685  0.0795
   33HTM   C161 6777   8.211  -1.313   2.383 -0.0832 -0.2137 -0.1055
   33HTM   C162 6778   8.123  -1.364   2.473 -0.4671 -0.8223 -0.8051
   33HTM   C163 6779   8.169  -1.484   2.538 -0.5035 -0.9446 -0.9998
   33HTM   C164 6780   8.293  -1.524   2.498 -0.1479 -0.4290 -0.4485
   33HTM    S17 6781   8.362  -1.413   2.374  0.2640  0.2560  0.3655
   34TAL   C165 6782   8.098  -1.562   2.650 -0.6232 -1.1389 -0.6434
   34TAL   C166 6783   7.993  -1.495   2.735  0.2835  0.5310 -0.0438
   34TAL   C167 6784   8.029  -1.399   2.856 -0.9057  0.2190  0.2380
   34TAL   C168 6785   7.906  -1.325   2.906 -0.1173 -0.4958 -0.1698
   34TAL   C169 6786   7.946  -1.234   3.019 -0.2341  0.7516 -0.1131
   34TAL   C170 6787   7.846  -1.139   3.087 -0.2643  0.7867  0.2543
   35HTM   C171 6788   8.367  -1.643   2.527 -0.3633 -0.2586  0.5769
   35HTM   C172 6789   8.414  -1.739   2.443 -0.6912 -0.3469  0.4901
   35HTM   C173 6790   8.492  -1.840   2.510 -0.2422 -0.1549  0.2599
   35HTM   C174 6791   8.505  -1.820   2.644  0.4276  0.0798  0.1712
   35HTM    S18 6792   8.418  -1.672   2.698  0.5444  0.0763  0.3730
   36TAL   C175 6793   8.563  -1.955   2.446  0.6045 -0.4122 -0.1980
   36TAL   C176 6794   8.478  -2.014   2.325 -0.4363  0.4603  0.2922
   36TAL   C177 6795   8.519  -2.146   2.273  0.5440  0.6471  0.0292
   36TAL   C178 6796   8.415  -2.228   2.199 -0.6465 -0.3137  0.1259
   36TAL   C179 6797   8.314  -2.280   2.298 -1.7448  0.7847 -0.3259
   36TAL   C180 6798   8.177  -2.303   2.262 -0.6774  0.4671  1.3176
   37HTM   C181 6799   8.574  -1.899   2.744  0.6264 -0.0851  0.0892
   37HTM   C182 6800   8.661  -1.852   2.837  0.7493 -0.3549  0.1128
   37HTM   C183 6801   8.701  -1.951   2.934  0.3502 -0.4592  0.1757
   37HTM   C184 6802   8.645  -2.073   2.915 -0.0773 -0.2691  0.2001
   37HTM    S19 6803   8.535  -2.073   2.771 -0.0083  0.0593  0.1450
   38TAL   C185 6804   8.793  -1.920   3.053  0.4695  0.3291  0.9621
   38TAL   C186 6805   8.871  -1.787   3.055  0.1003 -0.3783 -0.2546
   38TAL   C187 6806   8.922  -1.736   3.188 -0.2157 -0.6051 -0.1206
   38TAL   C188 6807   8.832  -1.683   3.296  0.3777  0.7519  0.3812
   38TAL   C189 6808   8.921  -1.638   3.402 -1.0147  0.3048  0.7474
   38TAL   C190 6809   8.858  -1.623   3.528 -0.2651  0.6973  0.0974
   39HTM   C191 6810   8.663  -2.203   2.981 -0.5528 -0.4077 -0.0160
   39HTM   C192 6811   8.584  -2.313   2.967 -0.2356 -0.7311  0.6037
   39HTM   C193 6812   8.614  -2.419   3.059  0.5512 -0.4051  0.7360
   39HTM   C194 6813   8.717  -2.390   3.144  0.8343  0.1670  0.2173
   39HTM    S20 6814   8.784  -2.225   3.114  0.1233  0.3396 -0.4840
   40TAL   C195 6815   8.528  -2.552   3.041 -0.0144  0.6479  0.4950
   40TAL   C196 6816   8.575  -2.668   2.942 -0.9381 -0.4215  0.6423
   40TAL   C197 6817   8.559  -2.626   2.802 -0.1985 -0.3683 -0.1601
   40TAL   C198 6818   8.605  -2.735   2.696  0.5738 -0.4157 -1.2313
   40TAL   C199 6819   8.539  -2.874   2.700  0.1426  0.0274 -0.4958
   40TAL   C200 6820   8.579  -2.977   2.599  0.5295 -0.6551  0.8095
   41HTM   C201 6821   8.791  -2.481   3.227  0.1095  0.2181 -0.0678
   41HTM   C202 6822   8.827  -2.613   3.231  0.4497  0.2906 -0.5205
   41HTM   C203 6823   8.906  -2.648   3.346  0.6421  0.1218 -0.7033
   41HTM   C204 6824   8.931  -2.544   3.430  0.4487 -0.0796 -0.3901
   41HTM    S21 6825   8.856  -2.391   3.370  0.0055 -0.0714  0.1644
   42TAL   C205 6826   8.983  -2.774   3.349  0.3967  0.0132  0.2249
   42TAL   C206 6827   8.946  -2.902   3.422 -0.0707  0.2728  0.4375
   42TAL   C207 6828   8.799  -2.952   3.414  0.2939  0.2532  0.1925
   42TAL   C208 6829   8.740  -3.082   3.474 -0.0337  0.5889 -0.2404
   42TAL   C209 6830   8.828  -3.178   3.555  0.5426  0.2102  0.6887
   42TAL   C210 6831   8.775  -3.239   3.678  0.9432  0.0729 -0.2414
   43HTM   C211 6832   8.977  -2.552   3.566  0.3166 -0.0598  0.0917
   43HTM   C212 6833   9.080  -2.486   3.627  0.2832 -0.2943  0.4108
   43HTM   C213 6834   9.081  -2.499   3.770  0.0668 -0.6620  0.3806
   43HTM   C214 6835   8.979  -2.576   3.819 -0.0651 -0.7078  0.0386
   43HTM    S22 6836   8.873  -2.638   3.686  0.0750 -0.2870 -0.2744
   44TAL   C215 6837   9.180  -2.420   3.849 -0.3243  0.2631 -0.1996
   44TAL   C216 6838   9.277  -2.322   3.788  0.9943  0.0890  0.3989
   44TAL   C217 6839   9.389  -2.281   3.880 -0.2867  0.0091  1.1765
   44TAL   C218 6840   9.504  -2.198   3.824 -0.0726 -0.4525  1.2544
   44TAL   C219 6841   9.487  -2.057   3.766  0.0425  0.2717 -0.3357
   44TAL   C220 6842   9.460  -1.947   3.870  0.4770 -0.0597  0.1022
   45HTM   C221 6843   8.943  -2.611   3.952 -0.0107  0.3869  0.3159
   45HTM   C222 6844   8.833  -2.685   3.984 -0.0010  0.3855  0.3467
   45HTM   C223 6845   8.827  -2.724   4.123  0.0958  0.2885  0.3234
   45HTM   C224 6846   8.933  -2.680   4.196  0.1599  0.2158  0.2750
   45HTM    S23 6847   9.049  -2.585   4.096  0.1024  0.2649  0.2548
   46TAL   C225 6848   8.707  -2.816   4.139 -1.3192  0.5429 -0.5378
   46TAL   C226 6849   8.712  -2.919   4.256 -0.2055 -0.5898  0.2367
   46TAL   C227 6850   8.581  -2.999   4.265 -1.0611  0.5283  0.9691
   46TAL   C228 6851   8.524  -3.090   4.159 -0.4254 -0.1682  0.0171
   46TAL   C229 6852   8.412  -3.179   4.201 -0.4040  1.1235 -0.6508
   46TAL   C230 6853   8.426  -3.318   4.138  0.0739  0.2078  0.8292
   47HTM   C231 6854   8.969  -2.713   4.338 -0.0843  1.2702  0.6731
   47HTM   C232 6855   8.882  -2.707   4.443  0.1302  1.4269  0.8410
   47HTM   C233 6856   8.945  -2.731   4.571  0.2408  0.8069  0.6734
   47HTM   C234 6857   9.078  -2.757   4.563  0.1106  0.1774  0.3776
   47HTM    S24 6858   9.137  -2.751   4.392 -0.1635  0.3200  0.2872
   48TAL   C235 6859   8.854  -2.724   4.697 -0.1412 -0.4984 -0.3335
   48TAL   C236 6860   8.923  -2.782   4.823 -0.2960  1.2649  0.5192
   48TAL   C237 6861   8.827  -2.788   4.944 -0.5431 -0.6028  1.0505
   48TAL   C238 6862   8.908  -2.767   5.075 -0.8404 -0.0282  0.4235
   48TAL   C239 6863   8.944  -2.626   5.116  0.2639 -0.5339 -0.2675
   48TAL   C240 6864   9.016  -2.601   5.245 -0.1503  0.2918  0.2818
    1HTM     C1 6865   4.386   5.963   1.772  0.6063  0.3685  0.3998
    1HTM     C2 6866   4.482   5.880   1.820  1.3655  1.3456  0.6226
    1HTM     C3 6867   4.576   5.836   1.720  1.1958  1.1773  0.5372
    1HTM     C4 6868   4.551   5.885   1.596  0.3070  0.0716  0.2493
    1HTM     S1 6869   4.405   5.992   1.595 -0.3899 -0.8499  0.0623
    2TAL     C5 6870   4.695   5.739   1.742  0.7091  0.4634  0.8222
    2TAL     C6 6871   4.689   5.583   1.769 -0.6715 -0.5879 -0.5648
    2TAL     C7 6872   4.598   5.510   1.669 -0.5285  0.7255 -0.2534
    2TAL     C8 6873   4.622   5.355   1.660  1.1543  0.3107 -0.8214
    2TAL     C9 6874   4.760   5.299   1.639 -0.1351 -0.5664 -0.6432
    2TAL    C10 6875   4.764   5.164   1.573 -0.5389 -0.4395 -0.0366
    3HTM    C11 6876   4.609   5.872   1.466 -0.1910  0.2534 -0.0400
    3HTM    C12 6877   4.544   5.810   1.363 -0.0598  0.1105 -0.0373
    3HTM    C13 6878   4.612   5.824   1.236  0.3037 -0.3977  0.0982
    3HTM    C14 6879   4.728   5.895   1.244  0.4497 -0.6422  0.1988
    3HTM     S2 6880   4.761   5.952   1.412  0.1369 -0.2466  0.1297
    4TAL    C15 6881   4.542   5.781   1.115  0.0159  0.2119 -0.2036
    4TAL    C16 6882   4.566   5.630   1.098  1.5982  0.4799 -0.2859
    4TAL    C17 6883   4.507   5.553   0.973 -0.5210 -0.0125 -0.4354
    4TAL    C18 6884   4.512   5.614   0.830  0.4669 -0.1155 -0.7381
    4TAL    C19 6885   4.631   5.697   0.792  0.1173  0.4254  1.0886
    4TAL    C20 6886   4.607   5.760   0.658  1.2280  0.2297  1.1751
    5HTM    C21 6887   4.822   5.923   1.138  0.4090 -0.1053  0.4846
    5HTM    C22 6888   4.882   6.045   1.127  0.4647 -0.1297  0.5156
    5HTM    C23 6889   4.958   6.061   1.006  0.3217 -0.0684  0.4332
    5HTM    C24 6890   4.956   5.951   0.925  0.1573  0.0026  0.3393
    5HTM     S3 6891   4.858   5.818   0.996  0.1703 -0.0024  0.3477
    6TAL    C25 6892   5.026   6.193   0.988 -0.2136  0.4592 -0.0438
    6TAL    C26 6893   5.185   6.219   1.000  0.1124 -0.6033 -0.1574
    6TAL    C27 6894   5.204   6.360   1.049 -0.0565  0.0404  0.4352
    6TAL    C28 6895   5.339   6.361   1.137  0.5199 -1.0375  0.5960
    6TAL    C29 6896   5.325   6.298   1.274  0.1994  0.6469  0.0352
    6TAL    C30 6897   5.442   6.349   1.368 -0.0525 -0.4166  0.9366
    7HTM    C31 6898   5.019   5.931   0.794 -0.0897  0.0607 -0.5330
    7HTM    C32 6899   5.001   5.820   0.717  0.2446  0.2127 -0.8378
    7HTM    C33 6900   5.026   5.842   0.577  0.5101  0.5839 -0.7360
    7HTM    C34 6901   5.063   5.970   0.547  0.3783  0.7149 -0.3535
    7HTM     S4 6902   5.070   6.073   0.695 -0.0951  0.3769 -0.0902
    8TAL    C35 6903   4.993   5.724   0.479 -0.1815  1.0370  0.5282
    8TAL    C36 6904   5.112   5.615   0.470  0.2796 -0.4215 -0.3269
    8TAL    C37 6905   5.088   5.518   0.353  0.3414 -0.1407 -0.1792
    8TAL    C38 6906   5.070   5.567   0.209  0.0067  0.7593 -0.5466
    8TAL    C39 6907   5.093   5.456   0.112 -0.7611 -0.0740  0.5222
    8TAL    C40 6908   5.229   5.457   0.054  0.7269 -0.6504  0.0329
    9HTM    C41 6909   5.096   6.017   0.417 -0.2705 -0.8825 -0.3212
    9HTM    C42 6910   5.177   5.958   0.324 -0.5363 -1.0633 -0.4414
    9HTM    C43 6911   5.203   6.041   0.209 -0.1462 -0.9307 -0.2635
    9HTM    C44 6912   5.141   6.162   0.214  0.4171 -0.6486 -0.0075
    9HTM     S5 6913   5.046   6.182   0.366  0.4994 -0.5277  0.0289
   10TAL    C45 6914   5.294   6.005   0.089  0.2630 -0.1462 -0.8067
   10TAL    C46 6915   5.442   5.980   0.119  0.5800 -0.5282 -0.7655
   10TAL    C47 6916   5.532   6.044   0.019 -0.7076 -0.6222 -0.1643
   10TAL    C48 6917   5.678   6.030   0.054 -0.1865 -0.2744  0.4346
   10TAL    C49 6918   5.747   6.137   0.144 -0.9316 -1.6021  0.6856
   10TAL    C50 6919   5.894   6.110   0.182 -0.1473  0.3048 -0.1906
   11HTM    C51 6920   5.155   6.285   0.127 -0.7574  0.6538 -0.0783
   11HTM    C52 6921   5.054   6.364   0.081 -0.4041  1.0266 -0.2274
   11HTM    C53 6922   5.099   6.479   0.007  0.1218  0.7387 -0.3633
   11HTM    C54 6923   5.235   6.488  -0.003  0.1697  0.1466 -0.3177
   11HTM     S6 6924   5.317   6.351   0.081 -0.4508 -0.0955 -0.0980
   12TAL    C55 6925   4.993   6.579  -0.059  0.3074  0.5144 -0.0845
   12TAL    C56 6926   4.938   6.547  -0.205 -0.3462  0.1503 -0.9341
   12TAL    C57 6927   4.845   6.664  -0.261 -0.9016  0.5282  0.4370
   12TAL    C58 6928   4.772   6.641  -0.395 -1.0165 -0.6051  0.2446
   12TAL    C59 6929   4.859   6.642  -0.522  0.8525 -0.0466 -0.7586
   12TAL    C60 6930   4.934   6.770  -0.558  0.9647 -0.2675 -0.0904
   13HTM    C61 6931   5.310   6.598  -0.055  0.1793  0.0829  0.8942
   13HTM    C62 6932   5.319   6.641  -0.184  0.6813 -0.6520  0.6721
   13HTM    C63 6933   5.377   6.772  -0.197  0.7088 -0.7129  0.1490
   13HTM    C64 6934   5.412   6.829  -0.078  0.2280 -0.0248 -0.0281
   13HTM     S7 6935   5.374   6.720   0.061 -0.3011  0.7600  0.4562
   14TAL    C65 6936   5.380   6.843  -0.337 -0.2849  0.4939  0.2413
   14TAL    C66 6937   5.494   6.782  -0.416  0.3951 -0.4919 -0.0491
   14TAL    C67 6938   5.461   6.666  -0.499 -0.0736  1.2334  0.7987
   14TAL    C68 6939   5.385   6.712  -0.623  0.5938  1.2093 -0.4215
   14TAL    C69 6940   5.284   6.597  -0.652  0.8391 -0.6308 -0.2119
   14TAL    C70 6941   5.272   6.616  -0.808 -0.6345  0.0149 -0.3449
   15HTM    C71 6942   5.495   6.945  -0.067  0.2094 -0.1956  0.1531
   15HTM    C72 6943   5.628   6.936  -0.038  0.3957  0.1465 -0.5355
   15HTM    C73 6944   5.696   7.063  -0.034  0.1503  0.3018 -1.1373
   15HTM    C74 6945   5.614   7.169  -0.061 -0.2233  0.0782 -0.9074
   15HTM     S8 6946   5.445   7.116  -0.093 -0.2945 -0.3493  0.0947
   16TAL    C75 6947   5.853   7.066  -0.010  1.0733 -0.1069  0.3056
   16TAL    C76 6948   5.903   7.095   0.133  0.1338 -0.2937  0.6562
   16TAL    C77 6949   5.960   6.974   0.203 -0.8185  0.2324 -0.8719
   16TAL    C78 6950   6.037   7.017   0.333 -0.6920  0.7661 -0.2058
   16TAL    C79 6951   6.145   6.915   0.381  1.1315  0.1961 -0.5762
   16TAL    C80 6952   6.251   6.955   0.479 -0.2934 -0.0755  0.2975
   17HTM    C81 6953   5.633   7.314  -0.055  0.7829  0.0700 -0.2204
   17HTM    C82 6954   5.734   7.388  -0.002  0.6499  0.5498 -0.6171
   17HTM    C83 6955   5.709   7.530  -0.002  0.0671  0.4505 -0.7115
   17HTM    C84 6956   5.589   7.564  -0.057 -0.2442 -0.1048 -0.3868
   17HTM     S9 6957   5.497   7.419  -0.111  0.1777 -0.5492  0.0668
   18TAL    C85 6958   5.808   7.630   0.054  0.4052 -0.4465 -0.7621
   18TAL    C86 6959   5.772   7.685   0.196  0.6069 -1.1989  0.0144
   18TAL    C87 6960   5.871   7.797   0.250  0.0647 -0.2703  0.1272
   18TAL    C88 6961   5.865   7.793   0.404  0.1873 -1.3587  0.1925
   18TAL    C89 6962   5.861   7.930   0.472 -0.3430  0.7068  0.6476
   18TAL    C90 6963   5.738   8.009   0.452  0.1808 -0.3525  1.1730
   19HTM    C91 6964   5.529   7.686  -0.089  0.4577 -0.1670 -0.2283
   19HTM    C92 6965   5.583   7.799  -0.142  0.5111 -0.3030 -0.4637
   19HTM    C93 6966   5.489   7.907  -0.157  0.6071 -0.2253 -0.5078
   19HTM    C94 6967   5.363   7.876  -0.114  0.6269 -0.0300 -0.3057
   19HTM    S10 6968   5.353   7.707  -0.052  0.5252  0.0715 -0.0422
   20TAL    C95 6969   5.531   8.045  -0.206 -0.2148 -1.1151  0.3259
   20TAL    C96 6970   5.613   8.107  -0.093 -0.5633 -0.2569  0.8849
   20TAL    C97 6971   5.675   8.233  -0.139  0.3378  0.4870 -1.0053
   20TAL    C98 6972   5.779   8.275  -0.033 -0.8388  1.4706  0.6394
   20TAL    C99 6973   5.917   8.321  -0.080  0.1301  0.2909  0.1683
   20TAL   C100 6974   6.015   8.350   0.028 -0.2258 -0.4221  0.6041
   21HTM   C101 6975   5.230   7.941  -0.103 -0.9594 -0.3584 -0.3747
   21HTM   C102 6976   5.117   7.875  -0.142 -1.0742  0.1112 -0.8621
   21HTM   C103 6977   5.012   7.962  -0.189 -0.7250  0.5935 -0.7646
   21HTM   C104 6978   5.045   8.094  -0.185 -0.3440  0.4916 -0.2032
   21HTM    S11 6979   5.212   8.119  -0.122 -0.3971 -0.2268  0.2500
   22TAL   C105 6980   4.889   7.892  -0.238  0.3455 -0.9322 -0.7650
   22TAL   C106 6981   4.782   7.860  -0.138 -0.1231 -0.6548 -0.6824
   22TAL   C107 6982   4.700   7.964  -0.065 -0.6536  0.0855  1.2485
   22TAL   C108 6983   4.625   8.072  -0.147 -0.5898  0.3796 -0.4933
   22TAL   C109 6984   4.555   8.015  -0.274 -1.0281  0.6919 -0.3451
   22TAL   C110 6985   4.488   8.124  -0.348 -0.2756 -0.3834  0.2682
   23HTM   C111 6986   4.975   8.216  -0.225 -0.7061 -0.2597 -0.2740
   23HTM   C112 6987   4.916   8.230  -0.348 -0.9140  0.1924 -0.1254
   23HTM   C113 6988   4.840   8.351  -0.361 -0.4587  0.5302  0.2544
   23HTM   C114 6989   4.840   8.429  -0.249  0.0964  0.3357  0.3949
   23HTM    S12 6990   4.938   8.355  -0.117  0.0871 -0.2944  0.0564
   24TAL   C115 6991   4.753   8.375  -0.491 -0.4912 -0.1404  0.4573
   24TAL   C116 6992   4.760   8.266  -0.605 -0.4534 -0.2470 -0.2143
   24TAL   C117 6993   4.657   8.267  -0.717  0.7806  0.4285  0.5381
   24TAL   C118 6994   4.508   8.291  -0.709 -0.2219 -0.3637 -0.5470
   24TAL   C119 6995   4.407   8.271  -0.806  0.3638 -0.1398  0.7047
   24TAL   C120 6996   4.271   8.319  -0.774  1.1845 -0.3164  0.2550
   25HTM   C121 6997   4.789   8.556  -0.230  0.5584 -0.1844  0.0866
   25HTM   C122 6998   4.752   8.621  -0.116  0.6620 -0.1163  0.0820
   25HTM   C123 6999   4.705   8.755  -0.139  0.6198 -0.1378  0.0420
   25HTM   C124 7000   4.707   8.792  -0.270  0.4842 -0.2224  0.0162
   25HTM    S13 7001   4.768   8.660  -0.376  0.3984 -0.2822  0.0401
   26TAL   C125 7002   4.686   8.847  -0.025 -0.6964 -1.0975 -0.0719
   26TAL   C126 7003   4.551   8.889   0.020  0.3029 -0.2830 -0.1030
   26TAL   C127 7004   4.443   8.781   0.004 -0.4028 -0.0207 -0.9820
   26TAL   C128 7005   4.320   8.807   0.100  1.0451  0.1872  0.6978
   26TAL   C129 7006   4.325   8.814   0.253 -1.3420 -0.5803 -0.3048
   26TAL   C130 7007   4.205   8.834   0.330 -0.2896 -0.0186  0.0440
   27HTM   C131 7008   4.663   8.908  -0.328  0.4697 -0.0147 -0.7276
   27HTM   C132 7009   4.748   9.012  -0.348  0.1595  0.2446 -0.7100
   27HTM   C133 7010   4.691   9.120  -0.425 -0.3268  0.3090 -0.2708
   27HTM   C134 7011   4.562   9.097  -0.464 -0.3871  0.0988  0.0466
   27HTM    S14 7012   4.503   8.937  -0.405  0.1699 -0.1991 -0.1867
   28TAL   C135 7013   4.772   9.245  -0.436 -0.7728 -0.0454  0.0841
   28TAL   C136 7014   4.890   9.296  -0.354  0.5783  1.2492  0.9023
   28TAL   C137 7015   4.870   9.299  -0.204 -0.3731  0.2981 -0.2218
   28TAL   C138 7016   4.998   9.251  -0.132  0.0602  0.1745 -0.1478
   28TAL   C139 7017   4.995   9.098  -0.097 -0.0315 -0.5802  0.4395
   28TAL   C140 7018   5.082   9.093   0.020 -0.6396  0.7208 -0.5722
   29HTM   C141 7019   4.468   9.168  -0.555  0.6382 -0.4313 -1.1013
   29HTM   C142 7020   4.342   9.122  -0.580  0.9965 -1.0614 -1.8780
   29HTM   C143 7021   4.261   9.214  -0.655  0.7377 -1.0812 -1.6260
   29HTM   C144 7022   4.325   9.330  -0.688  0.1820 -0.4665 -0.6574
   29HTM    S15 7023   4.494   9.331  -0.626 -0.0592  0.1904  0.0171
   30TAL   C145 7024   4.123   9.153  -0.703 -0.1583 -1.3350  0.1534
   30TAL   C146 7025   4.009   9.150  -0.608  0.2338 -0.0720  0.1674
   30TAL   C147 7026   3.939   9.286  -0.555 -0.4330  0.2164 -0.2187
   30TAL   C148 7027   3.843   9.349  -0.662 -1.0256 -0.3998  0.4053
   30TAL   C149 7028   3.803   9.482  -0.618  0.7033 -0.9107 -0.0657
   30TAL   C150 7029   3.748   9.558  -0.730  0.2342 -0.0593  0.0046
   31HTM   C151 7030   4.259   9.451  -0.741 -0.4432 -0.6650 -0.1220
   31HTM   C152 7031   4.272   9.582  -0.706 -0.2328 -0.7629  0.1757
   31HTM   C153 7032   4.204   9.673  -0.795  0.0598 -0.4392  0.2794
   31HTM   C154 7033   4.140   9.611  -0.898  0.0729 -0.0943  0.0602
   31HTM    S16 7034   4.159   9.432  -0.890 -0.2864 -0.1524 -0.2968
   32TAL   C155 7035   4.204   9.828  -0.756  0.5569 -0.1606  0.5179
   32TAL   C156 7036   4.080   9.885  -0.689  0.8740  0.1284 -0.4452
   32TAL   C157 7037   4.096  10.032  -0.660  0.8708 -1.3849  0.6963
   32TAL   C158 7038   3.973  10.114  -0.678 -0.1567  0.0610  0.5261
   32TAL   C159 7039   4.000  10.260  -0.676  0.1917  0.2212 -0.0619
   32TAL   C160 7040   3.866  10.329  -0.673  0.4569 -0.7574 -0.5325
   33HTM   C161 7041   4.086   9.664  -1.029 -0.2209 -0.0660 -0.1800
   33HTM   C162 7042   4.010   9.776  -1.042 -0.3272 -0.1426 -0.2182
   33HTM   C163 7043   3.937   9.782  -1.166 -0.2571 -0.2067 -0.2623
   33HTM   C164 7044   3.958   9.675  -1.248 -0.0976 -0.1790 -0.2586
   33HTM    S17 7045   4.072   9.557  -1.174 -0.0227 -0.0692 -0.1975
   34TAL   C165 7046   3.824   9.878  -1.192  0.2646 -0.0700  0.2329
   34TAL   C166 7047   3.873   9.998  -1.278  0.1142  1.4378  0.3873
   34TAL   C167 7048   3.762  10.098  -1.323 -0.8055  0.6813 -1.0733
   34TAL   C168 7049   3.778  10.202  -1.430  0.0238  0.7953 -0.5723
   34TAL   C169 7050   3.654  10.291  -1.451  0.6351  0.4583  0.0012
   34TAL   C170 7051   3.517  10.240  -1.473  0.6667  0.1274  0.0286
   35HTM   C171 7052   3.912   9.647  -1.383 -0.2226  0.1716  0.0452
   35HTM   C172 7053   3.865   9.525  -1.422 -0.0373  0.0837  0.0961
   35HTM   C173 7054   3.824   9.520  -1.560  0.1134 -0.0789  0.0565
   35HTM   C174 7055   3.839   9.638  -1.626  0.0431 -0.1154 -0.0245
   35HTM    S18 7056   3.907   9.766  -1.519 -0.2210  0.0548 -0.0574
   36TAL   C175 7057   3.783   9.392  -1.612 -1.0652  0.5079 -0.4451
   36TAL   C176 7058   3.655   9.321  -1.554 -0.4876  0.0821 -0.0732
   36TAL   C177 7059   3.630   9.181  -1.614  0.0820 -0.7384  0.8365
   36TAL   C178 7060   3.745   9.080  -1.593  0.0395  0.8387  0.4390
   36TAL   C179 7061   3.699   8.939  -1.645 -0.3651 -0.0863  0.2269
   36TAL   C180 7062   3.809   8.840  -1.632  1.0773 -0.4089 -0.7746
   37HTM   C181 7063   3.803   9.678  -1.763  0.2856  0.5422 -0.0555
   37HTM   C182 7064   3.864   9.769  -1.844 -0.3878  1.0936  0.0387
   37HTM   C183 7065   3.804   9.780  -1.975 -0.8131  1.1992  0.2397
   37HTM   C184 7066   3.697   9.697  -1.993 -0.4640  0.7274  0.2984
   37HTM    S19 7067   3.664   9.598  -1.846  0.4360  0.1088  0.1034
   38TAL   C185 7068   3.879   9.855  -2.093 -0.5723  0.6802  0.1116
   38TAL   C186 7069   4.032   9.881  -2.118 -0.7959 -0.4232 -0.5197
   38TAL   C187 7070   4.062  10.037  -2.110 -0.5758 -0.9819 -0.0601
   38TAL   C188 7071   4.048  10.126  -2.233 -0.9488  1.2282  0.5690
   38TAL   C189 7072   4.059  10.267  -2.216  0.6291 -1.0154 -0.3205
   38TAL   C190 7073   4.191  10.332  -2.218 -0.8163  0.0637  1.0441
   39HTM   C191 7074   3.607   9.687  -2.100  0.1523  0.2407 -0.0612
   39HTM   C192 7075   3.566   9.577  -2.170  0.7823  0.1097 -0.2328
   39HTM   C193 7076   3.471   9.606  -2.273  1.0547 -0.2038 -0.5770
   39HTM   C194 7077   3.438   9.738  -2.283  0.6324 -0.3116 -0.6684
   39HTM    S20 7078   3.526   9.837  -2.161 -0.1481 -0.0234 -0.3239
   40TAL   C195 7079   3.441   9.507  -2.386 -0.7967  0.7810 -0.4795
   40TAL   C196 7080   3.409   9.359  -2.367 -1.2022 -0.1104  0.1387
   40TAL   C197 7081   3.282   9.307  -2.309  0.6530 -0.8721 -0.2066
   40TAL   C198 7082   3.224   9.324  -2.168 -0.1579  0.5384  0.0856
   40TAL   C199 7083   3.083   9.274  -2.124 -0.1090 -0.2558 -0.0664
   40TAL   C200 7084   2.980   9.382  -2.163  0.3052  0.6633  0.3123
   41HTM   C201 7085   3.336   9.800  -2.371  0.1723 -0.5588 -0.6711
   41HTM   C202 7086   3.208   9.834  -2.336  0.2236 -0.5485 -0.4928
   41HTM   C203 7087   3.127   9.876  -2.447  0.2117 -0.0835 -0.3133
   41HTM   C204 7088   3.192   9.873  -2.567  0.1512  0.2608 -0.3550
   41HTM    S21 7089   3.362   9.818  -2.549  0.1043  0.0225 -0.6261
   42TAL   C205 7090   2.982   9.909  -2.437  0.1866 -0.1346  0.6092
   42TAL   C206 7091   2.884   9.843  -2.336  0.2048  0.4494  0.4591
   42TAL   C207 7092   2.834   9.691  -2.356 -0.2874 -0.1971  0.0959
   42TAL   C208 7093   2.738   9.683  -2.476  0.8922  0.1093  0.1335
   42TAL   C209 7094   2.588   9.668  -2.436  0.5647 -0.3509 -0.0823
   42TAL   C210 7095   2.488   9.653  -2.550  0.3728 -0.8001 -0.6199
   43HTM   C211 7096   3.148   9.879  -2.704 -0.3667 -0.0457  0.2915
   43HTM   C212 7097   3.231   9.842  -2.806 -0.6889 -0.2138  0.0877
   43HTM   C213 7098   3.196   9.902  -2.932 -0.6797  0.1234  0.2408
   43HTM   C214 7099   3.087   9.984  -2.927 -0.3503  0.5487  0.5611
   43HTM    S22 7100   3.019   9.992  -2.760 -0.0240  0.5562  0.6954
   44TAL   C215 7101   3.278   9.876  -3.057 -0.6138 -0.3507 -0.1100
   44TAL   C216 7102   3.418   9.941  -3.051 -0.5602  0.0990 -0.6355
   44TAL   C217 7103   3.542   9.861  -3.085 -0.1431 -0.0846 -0.4421
   44TAL   C218 7104   3.672   9.945  -3.042  0.9972  0.0456  0.0180
   44TAL   C219 7105   3.769   9.876  -2.951  0.3847  0.7547 -0.0163
   44TAL   C220 7106   3.891   9.956  -2.938  0.5760 -0.0057  0.8275
   45HTM   C221 7107   3.016  10.058  -3.023 -0.3137 -0.1610  0.1922
   45HTM   C222 7108   2.943  10.009  -3.127 -0.1783 -0.1790  0.1053
   45HTM   C223 7109   2.865  10.109  -3.195 -0.1407 -0.2026  0.0269
   45HTM   C224 7110   2.878  10.234  -3.142 -0.2473 -0.2025  0.0540
   45HTM    S23 7111   2.992  10.236  -3.002 -0.4047 -0.1724  0.1816
   46TAL   C225 7112   2.781  10.077  -3.310  0.4029 -0.5970 -0.4779
   46TAL   C226 7113   2.774   9.944  -3.379 -0.6279 -0.3120  1.6421
   46TAL   C227 7114   2.694   9.961  -3.517 -0.4024 -0.7021 -0.4597
   46TAL   C228 7115   2.555  10.021  -3.534  0.3568  0.1325 -0.2821
   46TAL   C229 7116   2.439   9.934  -3.595 -0.4406  0.5488 -0.6215
   46TAL   C230 7117   2.324  10.020  -3.619  1.2706 -0.0481 -0.8238
   47HTM   C231 7118   2.805  10.357  -3.183  0.3131  0.0811 -0.3827
   47HTM   C232 7119   2.854  10.482  -3.159  0.5643  0.1521 -1.2105
   47HTM   C233 7120   2.756  10.586  -3.173  0.5539  0.1664 -1.0287
   47HTM   C234 7121   2.632  10.540  -3.207  0.2949  0.1063 -0.0625
   47HTM    S24 7122   2.630  10.361  -3.225  0.0421  0.0264  0.6988
   48TAL   C235 7123   2.774  10.737  -3.162 -0.4393  0.1874  0.0055
   48TAL   C236 7124   2.798  10.810  -3.027 -0.0562  0.1930 -0.2036
   48TAL   C237 7125   2.678  10.852  -2.939  0.0135  0.2006 -0.0081
   48TAL   C238 7126   2.583  10.947  -3.008  0.1721 -0.2490 -0.3915
   48TAL   C239 7127   2.474  10.963  -2.909  0.9950 -0.2137  0.1011
   48TAL   C240 7128   2.354  11.035  -2.968 -0.1718 -0.5244  0.7836
    1HTM     C1 7129   3.178   6.283   7.771 -0.0304  0.3113 -0.2722
    1HTM     C2 7130   3.135   6.168   7.711 -0.0604  0.1135  0.1206
    1HTM     C3 7131   3.183   6.152   7.576 -0.2582 -0.2475  0.0910
    1HTM     C4 7132   3.261   6.255   7.533 -0.3790 -0.3251 -0.3246
    1HTM     S1 7133   3.282   6.381   7.661 -0.2513  0.0548 -0.7138
    2TAL     C5 7134   3.155   6.023   7.504 -1.2845  0.4437 -0.0655
    2TAL     C6 7135   3.018   5.995   7.445 -0.1374 -0.5584 -1.0172
    2TAL     C7 7136   2.967   6.078   7.331 -0.0003  1.0354  1.0353
    2TAL     C8 7137   2.825   6.081   7.285 -0.3128  0.3350 -1.0096
    2TAL     C9 7138   2.731   5.981   7.331  0.0920  1.1732  0.6600
    2TAL    C10 7139   2.612   5.976   7.235 -0.1500 -0.2882  0.4923
    3HTM    C11 7140   3.332   6.264   7.409  0.0199  0.1897 -0.1645
    3HTM    C12 7141   3.277   6.262   7.284  0.0921 -0.2730 -0.1926
    3HTM    C13 7142   3.374   6.259   7.178  0.1569 -0.3548 -0.1320
    3HTM    C14 7143   3.503   6.260   7.221  0.1338  0.0454 -0.0578
    3HTM     S2 7144   3.512   6.263   7.401  0.0278  0.5607 -0.0588
    4TAL    C15 7145   3.340   6.278   7.031 -0.4499  0.3762  0.2563
    4TAL    C16 7146   3.290   6.415   6.977 -0.3032 -0.5844 -0.9505
    4TAL    C17 7147   3.328   6.428   6.823 -0.0659  0.7367 -1.3110
    4TAL    C18 7148   3.485   6.460   6.804 -0.1745 -0.1935 -0.8112
    4TAL    C19 7149   3.523   6.596   6.864  0.1615 -0.5560 -0.2324
    4TAL    C20 7150   3.635   6.680   6.788 -0.6551 -0.3440 -0.1950
    5HTM    C21 7151   3.628   6.259   7.151  0.0396  0.0163 -0.6015
    5HTM    C22 7152   3.656   6.196   7.034  0.7287  0.2941 -0.5947
    5HTM    C23 7153   3.793   6.210   6.992  0.8900  0.7143  0.0451
    5HTM    C24 7154   3.869   6.284   7.077  0.3240  0.7571  0.5263
    5HTM     S3 7155   3.773   6.343   7.218 -0.4628  0.2660  0.2060
    6TAL    C25 7156   3.846   6.136   6.865  0.2226 -0.2555  0.6878
    6TAL    C26 7157   3.748   6.044   6.791  0.7776 -0.2313  0.1587
    6TAL    C27 7158   3.823   6.020   6.663  0.3249 -0.2443 -0.3418
    6TAL    C28 7159   3.758   6.015   6.531  0.4071  0.2262  1.1623
    6TAL    C29 7160   3.651   5.904   6.529 -0.4185 -0.0221 -0.7685
    6TAL    C30 7161   3.567   5.902   6.417 -0.1206 -0.3562 -0.4490
    7HTM    C31 7162   4.005   6.332   7.060  0.3222  0.2229  0.2415
    7HTM    C32 7163   4.118   6.311   7.133  0.6411  0.3554 -0.2010
    7HTM    C33 7164   4.233   6.381   7.083  0.4323  0.2636 -0.8230
    7HTM    C34 7165   4.209   6.454   6.971 -0.0459  0.0614 -0.8549
    7HTM     S4 7166   4.036   6.441   6.919 -0.2712 -0.0297 -0.0958
    8TAL    C35 7167   4.359   6.362   7.166  0.6248 -0.3403  1.5999
    8TAL    C36 7168   4.373   6.485   7.249  0.3866  0.1896 -0.6033
    8TAL    C37 7169   4.495   6.506   7.336 -0.2181  0.1028  0.3605
    8TAL    C38 7170   4.619   6.540   7.260 -0.0636  0.3498  0.6414
    8TAL    C39 7171   4.730   6.439   7.228  0.3624  0.2453  0.1892
    8TAL    C40 7172   4.775   6.341   7.330  1.3321  1.6076  0.9587
    9HTM    C41 7173   4.299   6.535   6.889 -0.3813  0.5264  0.2190
    9HTM    C42 7174   4.313   6.517   6.754 -0.8188  0.5816  0.1616
    9HTM    C43 7175   4.399   6.615   6.692 -0.6313  0.3175  0.0054
    9HTM    C44 7176   4.451   6.706   6.779 -0.0509  0.0609 -0.0562
    9HTM     S5 7177   4.394   6.677   6.947  0.3066  0.1335  0.0792
   10TAL    C45 7178   4.445   6.595   6.546 -0.2702 -1.1609 -0.3178
   10TAL    C46 7179   4.413   6.700   6.438 -0.1351 -0.9412 -0.0852
   10TAL    C47 7180   4.268   6.746   6.408  0.4873  0.9898 -0.6973
   10TAL    C48 7181   4.158   6.649   6.350  0.4870 -0.6299 -0.3292
   10TAL    C49 7182   4.149   6.587   6.209  0.7194 -1.1772  0.1431
   10TAL    C50 7183   4.268   6.511   6.177 -0.8381  0.4741  0.4644
   11HTM    C51 7184   4.514   6.833   6.746  0.4499 -0.1635  0.4432
   11HTM    C52 7185   4.453   6.953   6.764  0.5339 -0.1636  0.7359
   11HTM    C53 7186   4.527   7.064   6.711  0.3088 -0.1572  0.4299
   11HTM    C54 7187   4.645   7.029   6.652  0.0530 -0.1521 -0.0957
   11HTM     S6 7188   4.671   6.850   6.659  0.0769 -0.1551 -0.2464
   12TAL    C55 7189   4.479   7.201   6.746 -0.0984 -0.3173  0.0764
   12TAL    C56 7190   4.363   7.266   6.676 -0.4605 -0.0760 -0.4209
   12TAL    C57 7191   4.324   7.411   6.726  0.0924 -0.0932  0.4860
   12TAL    C58 7192   4.421   7.520   6.715 -0.4612  1.5408 -1.2966
   12TAL    C59 7193   4.496   7.559   6.596  0.5064  0.1889 -0.4017
   12TAL    C60 7194   4.409   7.605   6.482  0.6092  0.2094  0.7271
   13HTM    C61 7195   4.745   7.106   6.584 -0.1640  0.4411  0.2838
   13HTM    C62 7196   4.730   7.215   6.504  0.0012  0.8569  0.8129
   13HTM    C63 7197   4.855   7.276   6.465  0.1148  0.5398  0.6781
   13HTM    C64 7198   4.965   7.212   6.515  0.0362 -0.1177  0.0460
   13HTM     S7 7199   4.919   7.070   6.616 -0.1890 -0.3895 -0.4313
   14TAL    C65 7200   4.871   7.395   6.378  0.0942  1.0605  0.4075
   14TAL    C66 7201   4.756   7.468   6.304 -0.4897 -0.9373  0.3589
   14TAL    C67 7202   4.645   7.388   6.228 -0.5429 -0.2438 -0.5882
   14TAL    C68 7203   4.575   7.472   6.123 -1.0610  0.0944 -0.0069
   14TAL    C69 7204   4.445   7.429   6.067  0.4646 -0.0456  0.4514
   14TAL    C70 7205   4.429   7.285   6.033 -0.9572  0.2658 -0.6827
   15HTM    C71 7206   5.110   7.221   6.495  0.0506 -0.3910 -0.0293
   15HTM    C72 7207   5.194   7.327   6.506  0.3853 -0.6651  0.0994
   15HTM    C73 7208   5.326   7.302   6.455  0.2878 -0.9940  0.0051
   15HTM    C74 7209   5.343   7.177   6.405 -0.1212 -0.9709 -0.1954
   15HTM     S8 7210   5.192   7.079   6.419 -0.4172 -0.5283 -0.2814
   16TAL    C75 7211   5.432   7.413   6.445  0.0469 -0.2809 -0.2048
   16TAL    C76 7212   5.401   7.524   6.341 -0.1768  0.0669 -0.2289
   16TAL    C77 7213   5.499   7.634   6.361  0.6585 -1.0293 -0.3207
   16TAL    C78 7214   5.456   7.739   6.258 -0.4752  0.3473  0.0914
   16TAL    C79 7215   5.510   7.873   6.246 -0.3476 -0.5392  0.3079
   16TAL    C80 7216   5.439   7.978   6.318  0.4667  0.2084 -0.1356
   17HTM    C81 7217   5.464   7.123   6.352 -0.1981  0.6583  0.0874
   17HTM    C82 7218   5.523   7.028   6.430 -0.2239  0.7985  0.2794
   17HTM    C83 7219   5.664   7.013   6.406 -0.2775  0.5296  0.1208
   17HTM    C84 7220   5.713   7.097   6.310 -0.2926  0.1846 -0.1922
   17HTM     S9 7221   5.583   7.202   6.242 -0.2397  0.1722 -0.3118
   18TAL    C85 7222   5.748   6.921   6.494 -0.4144  0.6856 -0.7687
   18TAL    C86 7223   5.763   6.968   6.647  0.4646 -0.0038  0.2482
   18TAL    C87 7224   5.841   7.091   6.649 -1.1079  0.7731 -0.2100
   18TAL    C88 7225   5.889   7.142   6.789 -0.1602 -0.3267 -0.1795
   18TAL    C89 7226   5.982   7.273   6.778  1.0738  0.5728 -0.0535
   18TAL    C90 7227   6.100   7.267   6.676 -0.5601  0.5257 -0.4508
   19HTM    C91 7228   5.853   7.111   6.260 -0.0854 -0.3907 -0.3619
   19HTM    C92 7229   5.934   7.021   6.198 -0.0975 -0.2205 -0.6297
   19HTM    C93 7230   6.059   7.077   6.153 -0.0856 -0.1048 -0.4551
   19HTM    C94 7231   6.073   7.210   6.180 -0.0645 -0.1864 -0.0540
   19HTM    S10 7232   5.928   7.275   6.266 -0.0576 -0.4176  0.1355
   20TAL    C95 7233   6.180   6.999   6.086 -0.6094 -0.4319 -0.2540
   20TAL    C96 7234   6.179   6.846   6.086  0.4729  0.0993  0.6882
   20TAL    C97 7235   6.293   6.787   6.010 -0.6452  0.5045  0.7809
   20TAL    C98 7236   6.328   6.808   5.860 -1.5336 -0.4659 -0.9225
   20TAL    C99 7237   6.245   6.727   5.763  0.1500  0.9667  0.4735
   20TAL   C100 7238   6.277   6.761   5.612 -0.5692 -0.0179 -0.9654
   21HTM   C101 7239   6.189   7.285   6.174 -1.0526  0.9771  0.0100
   21HTM   C102 7240   6.238   7.343   6.287 -1.1095  1.1193 -0.0367
   21HTM   C103 7241   6.333   7.448   6.263 -0.5214  0.5840 -0.1187
   21HTM   C104 7242   6.356   7.471   6.130 -0.0160  0.0336 -0.1342
   21HTM    S11 7243   6.260   7.361   6.026 -0.2454  0.1496 -0.0461
   22TAL   C105 7244   6.394   7.518   6.387  0.4426  0.8583 -0.9900
   22TAL   C106 7245   6.543   7.472   6.414 -0.2433 -0.0606  0.2445
   22TAL   C107 7246   6.566   7.324   6.408  0.7609 -0.0220 -0.3209
   22TAL   C108 7247   6.515   7.218   6.510 -0.6155 -0.5346 -1.3579
   22TAL   C109 7248   6.597   7.247   6.637  0.2828  1.3189 -0.5124
   22TAL   C110 7249   6.624   7.117   6.721 -0.6606  0.0731 -0.0647
   23HTM   C111 7250   6.442   7.566   6.072 -0.0652  0.3453 -0.3865
   23HTM   C112 7251   6.455   7.578   5.936 -0.5405  0.8701 -0.3961
   23HTM   C113 7252   6.506   7.705   5.894 -0.5000  0.9663 -0.0665
   23HTM   C114 7253   6.532   7.791   5.996  0.0062  0.5147  0.1944
   23HTM    S12 7254   6.493   7.717   6.156  0.4748 -0.0716  0.0430
   24TAL   C115 7255   6.525   7.735   5.748 -0.3055 -0.0662 -0.5222
   24TAL   C116 7256   6.409   7.702   5.657  0.1405 -0.3544 -0.4112
   24TAL   C117 7257   6.433   7.712   5.510  1.8302  0.4617  1.0352
   24TAL   C118 7258   6.523   7.595   5.459 -0.1851 -0.1912 -0.5799
   24TAL   C119 7259   6.641   7.628   5.372 -0.6116 -0.4495  0.4281
   24TAL   C120 7260   6.637   7.675   5.223  0.6108 -0.2759  0.2833
   25HTM   C121 7261   6.574   7.923   5.995  0.1592 -0.2202 -0.2102
   25HTM   C122 7262   6.670   7.984   6.070  0.6459 -0.6530 -0.4755
   25HTM   C123 7263   6.692   8.122   6.035  0.8763 -0.6320 -0.2539
   25HTM   C124 7264   6.612   8.166   5.934  0.5649 -0.1829  0.1804
   25HTM    S13 7265   6.502   8.036   5.875 -0.0480  0.2514  0.3443
   26TAL   C125 7266   6.792   8.205   6.116 -0.2801 -0.5278  0.2297
   26TAL   C126 7267   6.916   8.147   6.186  0.1648  1.1066  0.3652
   26TAL   C127 7268   7.033   8.076   6.107  0.7619 -0.0605 -0.0752
   26TAL   C128 7269   7.067   8.121   5.966  0.7416 -0.6431 -0.2009
   26TAL   C129 7270   7.175   8.040   5.903  0.3851  1.4530  0.6449
   26TAL   C130 7271   7.240   8.098   5.769 -0.1068 -0.2599 -0.1312
   27HTM   C131 7272   6.602   8.296   5.875  0.5129  0.2359 -0.5510
   27HTM   C132 7273   6.488   8.349   5.823  0.4417  0.0379 -0.5988
   27HTM   C133 7274   6.496   8.491   5.798  0.1130  0.1035 -0.3415
   27HTM   C134 7275   6.616   8.545   5.832 -0.0663  0.3521 -0.0975
   27HTM    S14 7276   6.729   8.421   5.898  0.1679  0.5230 -0.1742
   28TAL   C135 7277   6.386   8.558   5.738 -0.8713 -0.7105 -0.3920
   28TAL   C136 7278   6.280   8.627   5.824 -0.9167 -0.7048  0.0599
   28TAL   C137 7279   6.170   8.706   5.752  0.2024  0.5532  0.1101
   28TAL   C138 7280   6.074   8.644   5.646 -0.0842  0.0490  0.7099
   28TAL   C139 7281   5.958   8.583   5.722  0.2277  0.4638 -0.7501
   28TAL   C140 7282   5.876   8.485   5.652  0.1612  0.4825 -0.0001
   29HTM   C141 7283   6.666   8.685   5.837  0.1382 -0.3317 -1.0773
   29HTM   C142 7284   6.768   8.720   5.920  0.6093 -0.7138 -1.4834
   29HTM   C143 7285   6.788   8.863   5.930  0.6384 -0.7548 -0.9130
   29HTM   C144 7286   6.700   8.935   5.855  0.1892 -0.4041 -0.0717
   29HTM    S15 7287   6.585   8.829   5.765 -0.3088  0.0083  0.0663
   30TAL   C145 7288   6.902   8.901   6.028 -0.6825 -0.2277 -0.2486
   30TAL   C146 7289   6.907   8.887   6.179  0.7288 -1.0213 -0.2296
   30TAL   C147 7290   6.830   8.780   6.268  0.8054  0.0778  0.6093
   30TAL   C148 7291   6.813   8.814   6.410 -0.2571 -0.2778 -0.2721
   30TAL   C149 7292   6.929   8.781   6.507  0.5648 -0.1643 -0.2043
   30TAL   C150 7293   6.968   8.639   6.517  0.7034  0.5874 -0.7070
   31HTM   C151 7294   6.685   9.082   5.837 -0.4979 -0.4873 -0.1432
   31HTM   C152 7295   6.618   9.146   5.737 -0.4377 -0.5372 -0.2154
   31HTM   C153 7296   6.641   9.288   5.733 -0.4532 -0.5357 -0.2584
   31HTM   C154 7297   6.726   9.333   5.830 -0.5251 -0.4852 -0.2186
   31HTM    S16 7298   6.784   9.198   5.934 -0.5794 -0.4345 -0.1231
   32TAL   C155 7299   6.555   9.353   5.632  0.1626  0.2044 -0.2727
   32TAL   C156 7300   6.605   9.341   5.491  0.4621 -0.4054  1.7267
   32TAL   C157 7301   6.744   9.373   5.431 -0.0142 -0.2572 -1.5515
   32TAL   C158 7302   6.731   9.515   5.383  0.0717  0.0775  0.0627
   32TAL   C159 7303   6.836   9.587   5.291 -0.0028 -0.1637  0.5703
   32TAL   C160 7304   6.981   9.595   5.343  0.0488 -0.6635  0.1451
   33HTM   C161 7305   6.773   9.461   5.862  0.8611 -0.6665  0.2847
   33HTM   C162 7306   6.809   9.562   5.777  1.0996 -0.9170  0.0832
   33HTM   C163 7307   6.848   9.683   5.844  0.7358 -0.6585 -0.1650
   33HTM   C164 7308   6.842   9.675   5.980  0.2197 -0.2109 -0.1528
   33HTM    S17 7309   6.787   9.513   6.034  0.1529 -0.0798  0.1756
   34TAL   C165 7310   6.893   9.807   5.774  0.3222 -0.6585  1.4126
   34TAL   C166 7311   6.823   9.894   5.668  0.3766  1.0355 -0.3477
   34TAL   C167 7312   6.689   9.959   5.689 -0.6738 -0.5382  0.0635
   34TAL   C168 7313   6.567   9.871   5.720  0.0326  0.9527  0.2946
   34TAL   C169 7314   6.525   9.755   5.622 -0.2924 -0.6030  0.0832
   34TAL   C170 7315   6.465   9.824   5.495  0.5630 -0.3834  0.2495
   35HTM   C171 7316   6.861   9.770   6.091  0.0156  0.0013  0.3327
   35HTM   C172 7317   6.794   9.774   6.209 -0.0229  0.2143  0.3037
   35HTM   C173 7318   6.832   9.884   6.294 -0.3066  0.5767 -0.0341
   35HTM   C174 7319   6.928   9.964   6.240 -0.4844  0.6400 -0.2628
   35HTM    S18 7320   6.979   9.905   6.077 -0.3061  0.2437 -0.0677
   36TAL   C175 7321   6.745   9.907   6.419  0.1408  0.0016  0.4254
   36TAL   C176 7322   6.783   9.818   6.545 -0.2373  0.1349  0.4586
   36TAL   C177 7323   6.698   9.865   6.658 -0.4403 -0.0225  0.1953
   36TAL   C178 7324   6.767   9.965   6.753  0.2980 -1.4422 -0.3893
   36TAL   C179 7325   6.672  10.002   6.870 -0.7727 -1.0014  0.3411
   36TAL   C180 7326   6.745  10.093   6.967 -1.4069  0.4241  0.1384
   37HTM   C181 7327   6.987  10.082   6.299 -0.1305 -0.4593 -0.6691
   37HTM   C182 7328   6.920  10.196   6.331 -0.8359 -0.8616 -0.6734
   37HTM   C183 7329   7.006  10.306   6.366 -1.5175 -0.4680 -0.1867
   37HTM   C184 7330   7.139  10.276   6.361 -1.3318  0.2344  0.1889
   37HTM    S19 7331   7.166  10.105   6.310 -0.2736  0.4550 -0.0451
   38TAL   C185 7332   6.950  10.443   6.411 -1.5977 -0.3619  0.8984
   38TAL   C186 7333   6.830  10.492   6.333  0.1660 -0.4857 -0.5190
   38TAL   C187 7334   6.703  10.527   6.426 -0.1702  0.3157  0.3984
   38TAL   C188 7335   6.672  10.445   6.554  0.6681  0.2051  0.0951
   38TAL   C189 7336   6.523  10.425   6.560  0.9547  0.6721 -1.3380
   38TAL   C190 7337   6.476  10.422   6.712  0.0574  0.5480  0.1987
   39HTM   C191 7338   7.256  10.359   6.372 -0.0557 -0.0469 -0.0598
   39HTM   C192 7339   7.263  10.449   6.474 -0.0305 -0.0226 -0.0829
   39HTM   C193 7340   7.395  10.503   6.494 -0.0709  0.1499 -0.2725
   39HTM   C194 7341   7.489  10.454   6.408 -0.1270  0.2573 -0.3943
   39HTM    S20 7342   7.417  10.335   6.293 -0.1332  0.1479 -0.2775
   40TAL   C195 7343   7.423  10.596   6.616  0.6952  0.3426  0.3730
   40TAL   C196 7344   7.407  10.744   6.579  0.5427  0.6398  0.0680
   40TAL   C197 7345   7.378  10.835   6.702  0.8064 -1.0402  0.5320
   40TAL   C198 7346   7.367  10.991   6.688  0.2545  0.4613 -0.2288
   40TAL   C199 7347   7.508  11.035   6.662 -0.5965  0.6453  1.3697
   40TAL   C200 7348   7.515  11.180   6.621  0.0137 -0.7146  0.2449
   41HTM   C201 7349   7.633  10.487   6.400  0.3328  0.0698 -0.3431
   41HTM   C202 7350   7.707  10.527   6.293  0.6890  0.0249 -0.1191
   41HTM   C203 7351   7.849  10.524   6.316  0.6317 -0.3780  0.2100
   41HTM   C204 7352   7.884  10.482   6.441  0.2317 -0.6402  0.2370
   41HTM    S21 7353   7.738  10.443   6.540 -0.1063 -0.3968 -0.1543
   42TAL   C205 7354   7.960  10.570   6.216  0.5985 -0.0127  0.1809
   42TAL   C206 7355   7.948  10.710   6.164 -0.0214  1.1719  0.8188
   42TAL   C207 7356   8.060  10.727   6.065  0.4572 -1.7850 -0.7547
   42TAL   C208 7357   8.044  10.873   6.034  0.8021  0.1041 -0.1632
   42TAL   C209 7358   8.094  10.937   5.903 -0.8201  0.6687  0.2833
   42TAL   C210 7359   8.024  11.078   5.901  0.2539  0.1471 -0.0321
   43HTM   C211 7360   8.024  10.464   6.485  0.2827 -0.1839  0.9624
   43HTM   C212 7361   8.096  10.539   6.574  0.4954 -0.5351  1.0936
   43HTM   C213 7362   8.233  10.499   6.586  0.6065 -0.4042  0.3737
   43HTM   C214 7363   8.267  10.392   6.507  0.4785  0.0468 -0.3063
   43HTM    S22 7364   8.126  10.335   6.411  0.2054  0.3436 -0.0884
   44TAL   C215 7365   8.337  10.583   6.666 -0.1419  0.0431 -1.1326
   44TAL   C216 7366   8.287  10.716   6.742 -0.1291  0.7879 -0.5590
   44TAL   C217 7367   8.303  10.852   6.670 -0.1813  0.4865 -0.3413
   44TAL   C218 7368   8.439  10.885   6.604 -0.8298  0.4825  0.0044
   44TAL   C219 7369   8.459  11.018   6.537  0.3547 -0.0821  1.4977
   44TAL   C220 7370   8.513  11.122   6.632  0.3650  0.2793  0.1297
   45HTM   C221 7371   8.386  10.317   6.489  0.4220  0.4632 -0.0481
   45HTM   C222 7372   8.405  10.225   6.389  0.3037  0.4637 -0.0714
   45HTM   C223 7373   8.526  10.148   6.404  0.1752  0.2639 -0.0607
   45HTM   C224 7374   8.599  10.180   6.515  0.1955  0.1112 -0.0293
   45HTM    S23 7375   8.520  10.312   6.610  0.3798  0.2085 -0.0106
   46TAL   C225 7376   8.584  10.061   6.295  1.2716 -0.7236 -0.0126
   46TAL   C226 7377   8.687  10.107   6.206  0.1070 -0.0352  0.7924
   46TAL   C227 7378   8.644  10.206   6.099 -0.7320 -0.4455 -0.0385
   46TAL   C228 7379   8.521  10.187   6.002 -0.9031 -0.2413 -0.7174
   46TAL   C229 7380   8.411  10.294   6.006  0.8987 -0.2922 -0.6709
   46TAL   C230 7381   8.287  10.305   5.906 -0.8846  0.4340  0.4402
   47HTM   C231 7382   8.718  10.125   6.581  0.6955 -0.2705 -0.0004
   47HTM   C232 7383   8.847  10.169   6.576  0.9153 -0.8778  0.0985
   47HTM   C233 7384   8.939  10.090   6.653  0.4344 -1.1590  0.3936
   47HTM   C234 7385   8.880   9.984   6.716 -0.1521 -0.7662  0.5196
   47HTM    S24 7386   8.703   9.978   6.684 -0.1427 -0.0047  0.2735
   48TAL   C235 7387   9.087  10.133   6.670  0.6778 -0.1681 -0.0064
   48TAL   C236 7388   9.126  10.277   6.640  0.1661 -0.1478  0.5272
   48TAL   C237 7389   9.269  10.321   6.644 -0.1859  0.0649  0.8355
   48TAL   C238 7390   9.335  10.334   6.775 -0.3398 -0.1731 -0.6401
   48TAL   C239 7391   9.460  10.423   6.789 -0.1834 -0.1820 -1.3426
   48TAL   C240 7392   9.578  10.410   6.706 -0.2040  1.6452 -0.0901
    1HTM     C1 7393   2.877   6.160   5.220  0.4229  0.0587 -0.4388
    1HTM     C2 7394   2.962   6.263   5.249 -0.0772  0.2424  0.4394
    1HTM     C3 7395   3.065   6.227   5.344 -0.8113  0.3976  1.3224
    1HTM     C4 7396   3.058   6.098   5.387 -0.8709  0.3321  1.1176
    1HTM     S1 7397   2.921   6.010   5.310  0.0021  0.0675 -0.2170
    2TAL     C5 7398   3.190   6.317   5.365  0.3467  0.1012 -0.5204
    2TAL     C6 7399   3.218   6.452   5.313 -0.0275 -0.4514 -0.8036
    2TAL     C7 7400   3.228   6.466   5.163 -0.5577  0.7972  0.2731
    2TAL     C8 7401   3.185   6.596   5.104 -0.7957  0.9388 -0.8284
    2TAL     C9 7402   3.139   6.582   4.963 -0.1367 -0.5041  0.3130
    2TAL    C10 7403   3.241   6.581   4.854  0.5487 -0.4151  0.3635
    3HTM    C11 7404   3.140   6.025   5.484 -0.3104  0.4728  0.6320
    3HTM    C12 7405   3.114   5.895   5.518 -0.4442  0.5403  0.7939
    3HTM    C13 7406   3.226   5.827   5.578 -0.3341  0.3346  0.3655
    3HTM    C14 7407   3.337   5.905   5.590 -0.1164  0.1101 -0.1229
    3HTM     S2 7408   3.309   6.072   5.526 -0.0329  0.1415 -0.0796
    4TAL    C15 7409   3.201   5.689   5.636 -0.4563  0.6728 -0.0161
    4TAL    C16 7410   3.285   5.584   5.561  0.0487 -0.3760 -0.6946
    4TAL    C17 7411   3.191   5.465   5.522  0.4567 -0.3066  0.4344
    4TAL    C18 7412   3.194   5.436   5.370  0.0502  0.5788 -0.3723
    4TAL    C19 7413   3.136   5.294   5.376  0.0547 -0.0533  1.4696
    4TAL    C20 7414   3.177   5.208   5.259  0.0439 -0.5060 -0.1886
    5HTM    C21 7415   3.457   5.887   5.682 -0.0301  0.4732 -0.1791
    5HTM    C22 7416   3.503   5.788   5.763 -0.6582  0.1944 -0.1510
    5HTM    C23 7417   3.630   5.818   5.825 -0.6812 -0.4032  0.2018
    5HTM    C24 7418   3.681   5.940   5.790 -0.0705 -0.5803  0.4428
    5HTM     S3 7419   3.571   6.027   5.676  0.5859 -0.0013  0.2413
    6TAL    C25 7420   3.711   5.711   5.890 -0.2674  0.2471 -1.0902
    6TAL    C26 7421   3.668   5.648   6.027  0.0552 -0.8689 -0.5292
    6TAL    C27 7422   3.779   5.572   6.107 -0.0451 -0.6160 -0.3060
    6TAL    C28 7423   3.755   5.511   6.237  0.2944  0.2202 -1.3105
    6TAL    C29 7424   3.879   5.428   6.281  0.0033  1.5020  0.4447
    6TAL    C30 7425   3.891   5.301   6.213  0.0228  0.3659 -0.5975
    7HTM    C31 7426   3.791   6.011   5.852  0.1750 -0.5605  0.0737
    7HTM    C32 7427   3.846   6.130   5.814 -0.1096 -0.6113 -0.5273
    7HTM    C33 7428   3.960   6.168   5.893  0.0605 -0.1389 -0.9884
    7HTM    C34 7429   3.991   6.080   5.992  0.4747  0.2719 -0.7391
    7HTM     S4 7430   3.878   5.939   5.992  0.6838  0.0931  0.1042
    8TAL    C35 7431   4.024   6.300   5.839 -0.1546  0.9100 -0.5810
    8TAL    C36 7432   3.947   6.398   5.737  0.1453  0.1627  0.0818
    8TAL    C37 7433   4.033   6.498   5.666 -0.7383  0.2165 -0.5157
    8TAL    C38 7434   3.999   6.508   5.516  0.3576  0.7863  0.2972
    8TAL    C39 7435   4.057   6.636   5.458 -0.9929  0.0348 -0.5836
    8TAL    C40 7436   4.211   6.631   5.459 -0.7149  0.4175  0.6419
    9HTM    C41 7437   4.091   6.082   6.097 -0.0341  0.1869  0.1413
    9HTM    C42 7438   4.071   6.085   6.231  0.0348  0.6193  0.1433
    9HTM    C43 7439   4.193   6.089   6.308  0.0803  0.5449  0.0747
    9HTM    C44 7440   4.306   6.089   6.231  0.0463  0.0558  0.0207
    9HTM     S5 7441   4.266   6.083   6.055 -0.0468 -0.3519  0.0522
   10TAL    C45 7442   4.185   6.086   6.466 -0.8970  0.2933 -0.8962
   10TAL    C46 7443   4.133   5.966   6.551  0.5624  1.2030 -0.1311
   10TAL    C47 7444   4.120   5.814   6.490 -1.2131 -1.1279  0.2467
   10TAL    C48 7445   4.081   5.709   6.586  0.5203  0.3950 -0.1864
   10TAL    C49 7446   4.105   5.567   6.534 -1.3740 -0.0730  0.7139
   10TAL    C50 7447   4.049   5.459   6.625  0.6840 -0.1816  0.7869
   11HTM    C51 7448   4.446   6.089   6.264 -0.4619 -0.0526  0.6198
   11HTM    C52 7449   4.538   6.183   6.227 -0.6113  0.1550  0.7697
   11HTM    C53 7450   4.673   6.149   6.264 -0.5139  0.1495  0.4162
   11HTM    C54 7451   4.684   6.030   6.329 -0.2902 -0.0621 -0.0035
   11HTM     S6 7452   4.523   5.950   6.348 -0.1845 -0.2724  0.0154
   12TAL    C55 7453   4.780   6.243   6.216 -1.3446 -0.1934  1.0548
   12TAL    C56 7454   4.779   6.391   6.254  0.1547  0.0966 -0.9641
   12TAL    C57 7455   4.806   6.488   6.141  0.3849 -0.6014  0.9601
   12TAL    C58 7456   4.782   6.639   6.157  1.2350 -0.7342 -0.9767
   12TAL    C59 7457   4.851   6.704   6.278 -0.3713 -0.0808  0.4141
   12TAL    C60 7458   4.865   6.852   6.293 -0.0780  0.1792 -1.0651
   13HTM    C61 7459   4.805   5.970   6.382  0.0806  0.2836 -0.4902
   13HTM    C62 7460   4.841   5.953   6.512 -0.0064  0.8562 -0.3870
   13HTM    C63 7461   4.982   5.931   6.532 -0.0451  0.7569 -0.2148
   13HTM    C64 7462   5.054   5.931   6.416  0.0124  0.1085 -0.1869
   13HTM     S7 7463   4.948   5.960   6.272  0.1208 -0.4313 -0.3771
   14TAL    C65 7464   5.032   5.896   6.672  0.0186 -1.1416 -0.1950
   14TAL    C66 7465   5.143   5.991   6.729  0.8269 -0.0060  0.6238
   14TAL    C67 7466   5.207   5.937   6.857 -0.2152 -0.0669  0.3764
   14TAL    C68 7467   5.327   6.020   6.902 -0.8772 -0.0388  0.7646
   14TAL    C69 7468   5.298   6.062   7.044 -0.0950  0.0030  0.9418
   14TAL    C70 7469   5.413   6.144   7.103  0.2762 -0.3170 -0.3607
   15HTM    C71 7470   5.192   5.918   6.386 -0.4366 -0.2854  0.0875
   15HTM    C72 7471   5.288   6.013   6.400 -0.3512 -0.4874  0.9619
   15HTM    C73 7472   5.418   5.971   6.353 -0.2006 -0.4600  1.3479
   15HTM    C74 7473   5.420   5.844   6.303 -0.1713 -0.2370  0.7676
   15HTM     S8 7474   5.257   5.767   6.311 -0.3330 -0.0428 -0.3197
   16TAL    C75 7475   5.533   6.070   6.373  0.7541  0.3835  1.2518
   16TAL    C76 7476   5.536   6.145   6.514  0.5676 -0.4935  0.2145
   16TAL    C77 7477   5.633   6.264   6.522 -0.3472 -0.5958 -0.5061
   16TAL    C78 7478   5.624   6.389   6.435  1.5562  0.5398  1.1436
   16TAL    C79 7479   5.489   6.463   6.415 -0.2731  0.3671  0.9535
   16TAL    C80 7480   5.525   6.600   6.388 -0.6012  0.1650  0.3980
   17HTM    C81 7481   5.526   5.773   6.240 -0.4432  0.4931 -0.0063
   17HTM    C82 7482   5.649   5.739   6.287 -0.8715 -0.4330  0.4930
   17HTM    C83 7483   5.739   5.692   6.185 -0.8080 -1.1419  0.8607
   17HTM    C84 7484   5.685   5.691   6.060 -0.3312 -0.7563  0.6417
   17HTM     S9 7485   5.514   5.749   6.062  0.0777  0.5418 -0.0511
   18TAL    C85 7486   5.882   5.647   6.226  0.2283 -0.0648  0.1872
   18TAL    C86 7487   5.974   5.750   6.286 -0.1306 -0.4342 -0.4427
   18TAL    C87 7488   6.114   5.693   6.314  1.4526  0.7765 -0.4862
   18TAL    C88 7489   6.203   5.665   6.189  0.1738  0.6854 -1.0536
   18TAL    C89 7490   6.339   5.631   6.243 -0.4701  0.9834 -0.2002
   18TAL    C90 7491   6.445   5.620   6.142 -0.6314  1.0636 -0.3137
   19HTM    C91 7492   5.733   5.635   5.939 -0.1250  0.1065 -0.2513
   19HTM    C92 7493   5.863   5.607   5.908 -0.1556 -0.0662 -0.2254
   19HTM    C93 7494   5.884   5.571   5.770 -0.2072 -0.2996 -0.1742
   19HTM    C94 7495   5.769   5.573   5.695 -0.2160 -0.3047 -0.1610
   19HTM    S10 7496   5.626   5.619   5.795 -0.1592 -0.0131 -0.2126
   20TAL    C95 7497   6.016   5.532   5.702  0.2312 -0.8395 -0.5125
   20TAL    C96 7498   6.148   5.491   5.774 -0.0453  0.0391  0.2702
   20TAL    C97 7499   6.154   5.403   5.895 -1.1149  0.3012  0.5033
   20TAL    C98 7500   6.284   5.335   5.930  0.5761  0.0780  0.0500
   20TAL    C99 7501   6.386   5.287   5.821  0.3101  0.2667 -0.8896
   20TAL   C100 7502   6.504   5.258   5.919 -1.0934  0.3886  0.4743
   21HTM   C101 7503   5.746   5.561   5.555 -0.4475 -0.5670  0.6783
   21HTM   C102 7504   5.807   5.485   5.460 -0.5550 -0.7465  0.7521
   21HTM   C103 7505   5.736   5.482   5.335 -0.3371 -0.4070  0.6150
   21HTM   C104 7506   5.620   5.555   5.335 -0.0636  0.0317  0.4366
   21HTM    S11 7507   5.593   5.635   5.494 -0.0601  0.0498  0.4283
   22TAL   C105 7508   5.786   5.392   5.218  0.5944  0.6426 -0.2858
   22TAL   C106 7509   5.749   5.415   5.069  0.0132  0.2448 -0.1576
   22TAL   C107 7510   5.783   5.298   4.986 -0.0216  0.4947  0.8639
   22TAL   C108 7511   5.808   5.334   4.843  0.0403  0.1957 -0.4902
   22TAL   C109 7512   5.783   5.213   4.746  0.9913 -0.0456 -0.2006
   22TAL   C110 7513   5.843   5.235   4.615  0.3566  0.9662 -0.0450
   23HTM   C111 7514   5.502   5.557   5.249  0.1161  0.0455  0.1084
   23HTM   C112 7515   5.397   5.470   5.251  0.0160  0.1692  0.4606
   23HTM   C113 7516   5.296   5.500   5.153 -0.2578  0.2613  0.7688
   23HTM   C114 7517   5.323   5.610   5.077 -0.3664  0.2079  0.6517
   23HTM    S12 7518   5.481   5.684   5.123 -0.1294  0.0358  0.1390
   24TAL   C115 7519   5.182   5.401   5.138  0.7721  0.1201 -1.2177
   24TAL   C116 7520   5.218   5.260   5.090 -0.3717 -1.1385 -0.1547
   24TAL   C117 7521   5.180   5.220   4.948  0.4765  0.3026  0.1737
   24TAL   C118 7522   5.217   5.087   4.889  0.1795  0.4017  1.1415
   24TAL   C119 7523   5.364   5.055   4.902 -0.4710 -0.2398 -0.6411
   24TAL   C120 7524   5.467   5.141   4.838 -0.4382  0.3523  0.0385
   25HTM   C121 7525   5.251   5.658   4.965 -0.1562  0.5030 -0.2040
   25HTM   C122 7526   5.284   5.774   4.902 -0.3681  0.5051 -0.3135
   25HTM   C123 7527   5.185   5.820   4.807 -0.4640  0.2501 -0.3371
   25HTM   C124 7528   5.076   5.738   4.799 -0.3250  0.0535 -0.2457
   25HTM    S13 7529   5.090   5.597   4.910 -0.0604  0.1762 -0.1218
   26TAL   C125 7530   5.209   5.953   4.742 -0.5279  0.2612  0.4157
   26TAL   C126 7531   5.347   5.996   4.678  0.2289 -0.4579  0.3144
   26TAL   C127 7532   5.373   5.945   4.546 -0.0192 -0.0518  0.6352
   26TAL   C128 7533   5.488   5.998   4.468 -0.9660  0.7917 -0.2753
   26TAL   C129 7534   5.623   6.002   4.543  0.9553  1.4046 -0.2062
   26TAL   C130 7535   5.733   5.954   4.451  0.7607  0.3214  0.5662
   27HTM   C131 7536   4.951   5.734   4.721 -0.9498  0.6357  0.3886
   27HTM   C132 7537   4.838   5.662   4.745 -1.0663  0.6437 -0.1073
   27HTM   C133 7538   4.741   5.668   4.639 -0.4046  0.2658 -0.7421
   27HTM   C134 7539   4.781   5.744   4.533  0.2166 -0.0305 -0.7300
   27HTM    S14 7540   4.945   5.815   4.560  0.0123  0.1464  0.0902
   28TAL   C135 7541   4.613   5.586   4.632 -0.2115 -0.3083 -0.9310
   28TAL   C136 7542   4.597   5.439   4.677 -0.6143  0.8956  0.4400
   28TAL   C137 7543   4.713   5.337   4.676  0.3162  0.6581  1.2496
   28TAL   C138 7544   4.685   5.253   4.549  0.4102 -0.5523 -0.9675
   28TAL   C139 7545   4.789   5.293   4.441  0.4285 -0.0294 -0.0775
   28TAL   C140 7546   4.753   5.212   4.310  0.2933 -0.9788  0.5029
   29HTM   C141 7547   4.706   5.808   4.434  0.3511  0.0458  0.1860
   29HTM   C142 7548   4.700   5.943   4.416  0.1169  0.0300  0.1370
   29HTM   C143 7549   4.620   5.982   4.303 -0.1031 -0.1398  0.2303
   29HTM   C144 7550   4.566   5.878   4.234 -0.0369 -0.2534  0.3506
   29HTM    S15 7551   4.610   5.720   4.309  0.3114 -0.1542  0.3553
   30TAL   C145 7552   4.603   6.129   4.263 -0.3274  0.0965 -0.4661
   30TAL   C146 7553   4.603   6.229   4.383 -0.7200  0.1487  0.1019
   30TAL   C147 7554   4.657   6.369   4.350  0.2674 -1.2421  0.4621
   30TAL   C148 7555   4.606   6.449   4.224 -0.4807  0.7591 -0.2458
   30TAL   C149 7556   4.710   6.552   4.188 -0.3481  0.6917  0.3440
   30TAL   C150 7557   4.786   6.522   4.056 -1.5547  0.3413  0.6226
   31HTM   C151 7558   4.481   5.867   4.119  0.3606  0.7419 -0.0597
   31HTM   C152 7559   4.409   5.759   4.079  0.4683  0.5829  0.1696
   31HTM   C153 7560   4.329   5.783   3.961  0.4059  0.2686  0.1461
   31HTM   C154 7561   4.341   5.909   3.911  0.2506  0.1881 -0.1010
   31HTM    S16 7562   4.455   6.009   4.010  0.1707  0.5054 -0.3251
   32TAL   C155 7563   4.254   5.668   3.897  0.5367  0.0777  0.5599
   32TAL   C156 7564   4.240   5.533   3.942  0.4436 -0.6833  0.0434
   32TAL   C157 7565   4.122   5.509   4.034  0.3485 -0.0875 -0.2485
   32TAL   C158 7566   4.069   5.356   4.057 -0.7926 -0.6491  1.0370
   32TAL   C159 7567   4.154   5.274   4.153  0.6736  0.8421 -0.7203
   32TAL   C160 7568   4.078   5.151   4.202  1.2149  0.2914  0.1402
   33HTM   C161 7569   4.276   5.967   3.795 -0.0937 -0.1029  0.5772
   33HTM   C162 7570   4.246   5.915   3.673  0.3884  0.0865  0.3762
   33HTM   C163 7571   4.173   6.005   3.588  0.8366  0.2666  0.1706
   33HTM   C164 7572   4.146   6.125   3.646  0.6965  0.2146  0.2150
   33HTM    S17 7573   4.212   6.134   3.814 -0.0181 -0.0683  0.5221
   34TAL   C165 7574   4.144   5.976   3.437  0.1284 -0.2583 -0.0921
   34TAL   C166 7575   4.256   6.026   3.338  0.9648 -0.1353 -0.3174
   34TAL   C167 7576   4.193   6.106   3.220  0.8395  0.0528 -0.9610
   34TAL   C168 7577   4.302   6.163   3.130  0.2291 -0.0969  0.2862
   34TAL   C169 7578   4.236   6.242   3.017 -0.0886 -0.5049  0.4614
   34TAL   C170 7579   4.350   6.287   2.918 -0.1370  0.7229 -0.4038
   35HTM   C171 7580   4.088   6.243   3.602 -0.2505  0.0086 -0.0372
   35HTM   C172 7581   3.976   6.242   3.523 -0.7433 -0.2617  0.6496
   35HTM   C173 7582   3.899   6.363   3.532 -0.7331 -0.2637  0.7752
   35HTM   C174 7583   3.951   6.456   3.617 -0.2325  0.0050  0.1841
   35HTM    S18 7584   4.104   6.397   3.693  0.2687  0.2836 -0.5829
   36TAL   C175 7585   3.775   6.367   3.444 -0.3513  0.8466  0.1536
   36TAL   C176 7586   3.781   6.393   3.289 -0.7795  0.0061 -0.1786
   36TAL   C177 7587   3.652   6.354   3.206  0.9017  0.8333 -0.6194
   36TAL   C178 7588   3.666   6.355   3.057  1.0789  0.1900  0.3327
   36TAL   C179 7589   3.782   6.269   3.004  0.4312  0.0046  1.0763
   36TAL   C180 7590   3.771   6.122   3.023  0.5846 -1.0116  0.8284
   37HTM   C181 7591   3.881   6.581   3.648  0.3774 -0.0954 -0.0922
   37HTM   C182 7592   3.747   6.599   3.660  0.3561 -0.3834  0.1271
   37HTM   C183 7593   3.710   6.733   3.699  0.1379 -0.4973  0.3214
   37HTM   C184 7594   3.816   6.817   3.715 -0.0073 -0.2965  0.2502
   37HTM    S19 7595   3.973   6.732   3.684  0.1215  0.0549 -0.0703
   38TAL   C185 7596   3.563   6.782   3.702  0.6392  0.3658  0.5078
   38TAL   C186 7597   3.458   6.703   3.763  0.0819  1.1400 -0.3513
   38TAL   C187 7598   3.336   6.775   3.803  0.0733  0.0956  1.1478
   38TAL   C188 7599   3.206   6.701   3.852 -0.7146  0.4691 -0.7463
   38TAL   C189 7600   3.211   6.649   4.004 -0.3164  0.1146 -0.0927
   38TAL   C190 7601   3.088   6.557   4.030  0.7414  1.1190 -0.5279
   39HTM   C191 7602   3.809   6.963   3.735 -1.1857  0.2101 -0.8750
   39HTM   C192 7603   3.734   7.041   3.818 -1.8278  0.2391 -1.4637
   39HTM   C193 7604   3.779   7.178   3.826 -1.6928  0.1678 -0.9353
   39HTM   C194 7605   3.889   7.204   3.749 -0.9477  0.0845  0.0564
   39HTM    S20 7606   3.944   7.057   3.660 -0.3542  0.0894  0.4024
   40TAL   C195 7607   3.724   7.276   3.922 -0.7411  0.3713 -0.8317
   40TAL   C196 7608   3.574   7.286   3.918  0.0694  1.0653  0.3032
   40TAL   C197 7609   3.508   7.372   4.032 -1.1603  0.0069  0.2858
   40TAL   C198 7610   3.360   7.362   4.055  0.3939 -0.4601  0.2565
   40TAL   C199 7611   3.277   7.429   3.944  0.4135 -0.0558 -0.6265
   40TAL   C200 7612   3.140   7.399   3.970  0.3869  0.3364  0.5780
   41HTM   C201 7613   3.964   7.325   3.713 -0.1409  0.3360  0.3704
   41HTM   C202 7614   3.920   7.445   3.666 -0.2204  0.3382  0.4494
   41HTM   C203 7615   4.025   7.533   3.622 -0.3037  0.2524  0.0688
   41HTM   C204 7616   4.150   7.480   3.636 -0.2878  0.1848 -0.3002
   41HTM    S21 7617   4.144   7.314   3.707 -0.1654  0.2248 -0.1949
   42TAL   C205 7618   4.004   7.675   3.581  0.0437 -1.3129  0.0801
   42TAL   C206 7619   3.963   7.793   3.680  0.4820 -0.0948 -0.3609
   42TAL   C207 7620   3.826   7.777   3.752 -0.0191 -0.5972  0.6012
   42TAL   C208 7621   3.708   7.744   3.654  0.2341 -1.2577  0.0723
   42TAL   C209 7622   3.589   7.679   3.722 -0.4563  0.6142 -0.6962
   42TAL   C210 7623   3.494   7.646   3.611 -0.5034  0.1669 -0.2013
   43HTM   C211 7624   4.285   7.542   3.618  0.4865  0.0948  0.4785
   43HTM   C212 7625   4.400   7.518   3.688  0.8537  0.3932 -0.0101
   43HTM   C213 7626   4.514   7.588   3.636  0.5080  0.5008 -0.6561
   43HTM   C214 7627   4.487   7.665   3.527 -0.1229  0.2843 -0.6602
   43HTM    S22 7628   4.313   7.655   3.480 -0.3308 -0.0750  0.1581
   44TAL   C215 7629   4.646   7.562   3.708 -0.0832  0.0172 -0.4385
   44TAL   C216 7630   4.671   7.438   3.797 -0.3470  0.2146 -0.9332
   44TAL   C217 7631   4.823   7.431   3.843  0.9403  0.8678  0.7606
   44TAL   C218 7632   4.861   7.288   3.908  0.0470 -0.5721  0.1065
   44TAL   C219 7633   4.983   7.293   4.002  0.2635 -0.3381  0.0091
   44TAL   C220 7634   5.123   7.329   3.946  0.1888 -0.2801 -0.7936
   45HTM   C221 7635   4.585   7.760   3.462 -0.1687  0.3411  0.1444
   45HTM   C222 7636   4.552   7.851   3.366  0.0042  0.6900  0.4107
   45HTM   C223 7637   4.661   7.939   3.330  0.2602  0.4002  0.4637
   45HTM   C224 7638   4.776   7.915   3.398  0.2826 -0.1698  0.2377
   45HTM    S23 7639   4.757   7.779   3.515 -0.0201 -0.3865 -0.0617
   46TAL   C225 7640   4.641   8.056   3.225 -0.2622  0.1052 -0.8543
   46TAL   C226 7641   4.536   8.164   3.256  0.2201 -0.0806  0.2028
   46TAL   C227 7642   4.486   8.259   3.148  0.1166 -0.6414  0.3436
   46TAL   C228 7643   4.566   8.359   3.065 -0.2848  0.0767  0.2316
   46TAL   C229 7644   4.507   8.435   2.952 -0.5151 -0.3077  1.2580
   46TAL   C230 7645   4.442   8.572   2.973  0.2373  0.9162  0.3868
   47HTM   C231 7646   4.875   8.012   3.402 -0.5119 -0.1753 -0.1370
   47HTM   C232 7647   4.987   8.011   3.323 -1.1998  0.3326 -1.1680
   47HTM   C233 7648   5.084   8.112   3.357 -1.1694  0.5331 -1.8132
   47HTM   C234 7649   5.046   8.190   3.462 -0.4585  0.1785 -1.2743
   47HTM    S24 7650   4.884   8.142   3.526  0.2333 -0.4416  0.1007
   48TAL   C235 7651   5.219   8.114   3.283  0.4359  0.3701 -0.6646
   48TAL   C236 7652   5.332   8.230   3.316  0.1306  0.6807  1.0543
   48TAL   C237 7653   5.302   8.359   3.239  0.5337  0.1039 -0.2262
   48TAL   C238 7654   5.254   8.339   3.084 -0.1992  1.5368 -0.9135
   48TAL   C239 7655   5.277   8.435   2.972  0.3415 -0.3085  0.2449
   48TAL   C240 7656   5.415   8.498   2.959  0.2058 -1.1164  0.7487
    1HTM     C1 7657   4.618   0.149   4.282 -0.4397 -0.3639  0.4416
    1HTM     C2 7658   4.639   0.237   4.385  0.1292 -0.1395  0.1435
    1HTM     C3 7659   4.591   0.370   4.357  0.5637 -0.0373 -0.1278
    1HTM     C4 7660   4.535   0.384   4.234  0.3262 -0.1839 -0.0365
    1HTM     S1 7661   4.537   0.229   4.142 -0.4711 -0.4644  0.4027
    2TAL     C5 7662   4.609   0.486   4.449  0.2904  0.2199 -0.4486
    2TAL     C6 7663   4.513   0.496   4.562  0.2155  0.2555  0.4029
    2TAL     C7 7664   4.485   0.630   4.623 -0.3623  0.3100  0.6705
    2TAL     C8 7665   4.382   0.636   4.728  0.6743  0.8588 -0.0413
    2TAL     C9 7666   4.298   0.761   4.738 -1.1121  0.4241 -0.1103
    2TAL    C10 7667   4.207   0.803   4.615 -1.5317  0.1053 -0.3986
    3HTM    C11 7668   4.469   0.491   4.167  0.1275  0.1206 -0.1017
    3HTM    C12 7669   4.419   0.603   4.228  0.5453  0.3031 -0.0896
    3HTM    C13 7670   4.361   0.697   4.136  0.8099  0.4893 -0.0693
    3HTM    C14 7671   4.366   0.657   4.005  0.5939  0.4486 -0.0660
    3HTM     S2 7672   4.445   0.496   3.989  0.0350  0.1700 -0.0882
    4TAL    C15 7673   4.319   0.823   4.205  0.5944 -0.9098 -0.2542
    4TAL    C16 7674   4.390   0.957   4.190 -0.0055  0.1600  0.0962
    4TAL    C17 7675   4.536   0.936   4.162  0.0310 -0.0314  0.1950
    4TAL    C18 7676   4.617   1.058   4.124  0.2382  0.2821  0.7858
    4TAL    C19 7677   4.592   1.117   3.982  0.0858 -0.6000 -0.1991
    4TAL    C20 7678   4.683   1.056   3.875 -0.4849  0.4438  0.7927
    5HTM    C21 7679   4.299   0.710   3.887 -0.1746 -0.0836  0.1236
    5HTM    C22 7680   4.196   0.671   3.807  0.2365 -0.4677 -0.2277
    5HTM    C23 7681   4.171   0.761   3.697  0.2903 -0.5715 -0.3248
    5HTM    C24 7682   4.256   0.868   3.693 -0.0800 -0.2666 -0.0475
    5HTM     S3 7683   4.373   0.864   3.830 -0.5286  0.1789  0.3610
    6TAL    C25 7684   4.059   0.733   3.590 -1.1420 -0.3314  0.3220
    6TAL    C26 7685   3.995   0.600   3.552 -0.0743 -0.9797  0.2274
    6TAL    C27 7686   3.844   0.623   3.550 -0.9616  0.7823  0.4407
    6TAL    C28 7687   3.768   0.498   3.504  0.2345 -0.4207 -1.3117
    6TAL    C29 7688   3.619   0.520   3.550 -0.0817  0.3802 -0.0054
    6TAL    C30 7689   3.565   0.386   3.557 -0.8300  0.6174  0.4300
    7HTM    C31 7690   4.275   0.966   3.587 -0.7966  0.2299 -0.1080
    7HTM    C32 7691   4.206   0.989   3.471 -0.4176  0.2817 -0.3270
    7HTM    C33 7692   4.259   1.097   3.393 -0.0622  0.2138 -0.1828
    7HTM    C34 7693   4.369   1.157   3.448 -0.1704  0.1103  0.1462
    7HTM     S4 7694   4.413   1.080   3.605 -0.7338  0.0903  0.3007
    8TAL    C35 7695   4.172   1.148   3.279 -0.1422 -0.8027 -0.2306
    8TAL    C36 7696   4.083   1.267   3.326  1.4064  0.3573 -0.6037
    8TAL    C37 7697   4.018   1.314   3.199  0.6855 -0.8228  0.5786
    8TAL    C38 7698   3.887   1.399   3.222  0.0700  0.0115  0.8903
    8TAL    C39 7699   3.872   1.490   3.335 -0.4601  0.2505  0.5627
    8TAL    C40 7700   3.737   1.551   3.340  0.6229  0.0085  0.6509
    9HTM    C41 7701   4.447   1.268   3.408  1.1259 -0.0628  0.1662
    9HTM    C42 7702   4.581   1.277   3.427  1.1746  0.4647 -0.3498
    9HTM    C43 7703   4.640   1.398   3.377  0.5795  0.5004 -0.9763
    9HTM    C44 7704   4.549   1.482   3.318  0.0771  0.0002 -0.9380
    9HTM     S5 7705   4.382   1.414   3.324  0.3185 -0.5592 -0.1010
   10TAL    C45 7706   4.775   1.432   3.414 -0.5602  1.0896  0.4799
   10TAL    C46 7707   4.824   1.557   3.480  0.7737  0.3961  0.6494
   10TAL    C47 7708   4.771   1.575   3.627  1.1558  0.2207 -0.1875
   10TAL    C48 7709   4.826   1.473   3.728  1.0084 -0.8588  0.4627
   10TAL    C49 7710   4.967   1.480   3.769 -0.3516  0.9611 -1.0034
   10TAL    C50 7711   4.986   1.369   3.864 -0.9931  0.5107  0.2344
   11HTM    C51 7712   4.549   1.608   3.258  0.6328 -0.1024  0.9160
   11HTM    C52 7713   4.552   1.632   3.124  0.8655 -0.4778  0.8516
   11HTM    C53 7714   4.555   1.772   3.090  0.7108 -0.5667  0.4630
   11HTM    C54 7715   4.555   1.855   3.198  0.3606 -0.2591  0.2313
   11HTM     S6 7716   4.551   1.762   3.352  0.1973  0.1702  0.4876
   12TAL    C55 7717   4.556   1.818   2.943 -0.5856 -0.8566  0.2098
   12TAL    C56 7718   4.525   1.736   2.818 -1.0030  0.7922  0.0207
   12TAL    C57 7719   4.393   1.659   2.803 -0.9578 -0.4615 -0.0431
   12TAL    C58 7720   4.385   1.596   2.676 -0.1416  0.3066  0.4604
   12TAL    C59 7721   4.246   1.529   2.650 -0.1905  0.2008 -1.3179
   12TAL    C60 7722   4.151   1.643   2.608  0.5072 -0.4974  0.3051
   13HTM    C61 7723   4.548   1.998   3.209  0.5918 -0.0475  0.0267
   13HTM    C62 7724   4.575   2.064   3.326  0.4557 -0.1714  0.1291
   13HTM    C63 7725   4.570   2.208   3.313 -0.3947 -0.1574  0.4793
   13HTM    C64 7726   4.540   2.251   3.187 -0.9071 -0.0228  0.6438
   13HTM     S7 7727   4.515   2.113   3.074 -0.3508  0.0977  0.3671
   14TAL    C65 7728   4.597   2.310   3.428 -0.3445  0.0048  0.4322
   14TAL    C66 7729   4.492   2.353   3.525  0.4089  0.4525 -0.4410
   14TAL    C67 7730   4.422   2.237   3.610 -0.4684  0.4359 -0.1490
   14TAL    C68 7731   4.370   2.261   3.752 -0.9215 -0.0527  0.0045
   14TAL    C69 7732   4.457   2.342   3.846  0.3409  0.2533  0.0390
   14TAL    C70 7733   4.436   2.292   3.985 -0.2326  0.7073 -0.7796
   15HTM    C71 7734   4.533   2.385   3.127  0.3511 -0.4908 -0.0544
   15HTM    C72 7735   4.638   2.469   3.104  0.4112 -0.6067 -0.2081
   15HTM    C73 7736   4.601   2.590   3.036  0.4592 -0.6040 -0.2297
   15HTM    C74 7737   4.468   2.598   3.007  0.4355 -0.4860 -0.0924
   15HTM     S8 7738   4.379   2.452   3.064  0.3502 -0.3683  0.0763
   16TAL    C75 7739   4.717   2.679   3.003  0.0507 -0.3216  0.2894
   16TAL    C76 7740   4.750   2.805   3.089 -0.7568 -0.4230  0.2392
   16TAL    C77 7741   4.842   2.877   2.993  0.0273 -0.1445 -0.6972
   16TAL    C78 7742   4.779   3.014   2.963 -1.0677 -0.7443 -0.1386
   16TAL    C79 7743   4.893   3.085   2.868 -0.3820 -0.3681  0.3864
   16TAL    C80 7744   4.855   3.224   2.809  0.1548 -0.1117 -0.9759
   17HTM    C81 7745   4.410   2.696   2.918 -0.7205 -0.2862 -0.0533
   17HTM    C82 7746   4.285   2.749   2.935 -0.8266 -0.4537 -0.3000
   17HTM    C83 7747   4.252   2.853   2.841 -0.6615 -0.2855 -0.1724
   17HTM    C84 7748   4.352   2.880   2.752 -0.4296  0.0103  0.1717
   17HTM     S9 7749   4.496   2.775   2.780 -0.4015  0.1000  0.3626
   18TAL    C85 7750   4.115   2.913   2.841  0.3087 -0.5401 -1.1522
   18TAL    C86 7751   4.074   2.955   2.982 -0.1559 -0.3977 -0.5178
   18TAL    C87 7752   4.161   3.065   3.058  0.9231  0.4704 -0.3987
   18TAL    C88 7753   4.160   3.213   3.012  0.8664 -0.1901 -0.0006
   18TAL    C89 7754   4.285   3.299   3.038  0.2891  0.6889  0.5111
   18TAL    C90 7755   4.289   3.431   2.953 -0.5964  1.0459  0.2930
   19HTM    C91 7756   4.366   2.977   2.646 -0.2757 -0.5132 -0.7223
   19HTM    C92 7757   4.449   3.086   2.642 -0.3735 -0.4305 -0.5128
   19HTM    C93 7758   4.422   3.176   2.534 -0.7139 -0.0345 -0.1045
   19HTM    C94 7759   4.318   3.137   2.454 -0.8759  0.1849 -0.0025
   19HTM    S10 7760   4.246   2.982   2.511 -0.6089 -0.0941 -0.4177
   20TAL    C95 7761   4.515   3.306   2.522 -0.3096  0.0548 -0.7111
   20TAL    C96 7762   4.486   3.416   2.617  0.5387  0.0908 -0.8811
   20TAL    C97 7763   4.369   3.490   2.557  0.2495 -0.0526 -0.6048
   20TAL    C98 7764   4.309   3.630   2.605  0.1498 -0.4347  0.0183
   20TAL    C99 7765   4.407   3.753   2.638 -0.4456  0.5709  1.0858
   20TAL   C100 7766   4.521   3.757   2.733 -0.4384 -0.5928 -0.4420
   21HTM   C101 7767   4.248   3.199   2.340 -0.1482 -0.2727 -0.4823
   21HTM   C102 7768   4.251   3.329   2.300 -0.2238 -0.2565 -0.4353
   21HTM   C103 7769   4.157   3.360   2.195 -0.2998 -0.2542 -0.3667
   21HTM   C104 7770   4.083   3.253   2.155 -0.2820 -0.2686 -0.3614
   21HTM    S11 7771   4.126   3.104   2.247 -0.1670 -0.2864 -0.4432
   22TAL   C105 7772   4.146   3.501   2.158 -1.0610  0.4897  0.6945
   22TAL   C106 7773   4.111   3.604   2.271 -0.8182 -0.3779  1.1440
   22TAL   C107 7774   3.977   3.612   2.342  0.0901  0.0155  0.2763
   22TAL   C108 7775   3.849   3.583   2.262  0.8985  0.3468 -0.1327
   22TAL   C109 7776   3.802   3.685   2.160  0.2870  1.2868  0.7250
   22TAL   C110 7777   3.717   3.639   2.047 -0.3521  0.7401  1.0178
   23HTM   C111 7778   3.972   3.254   2.067  0.1715 -0.8117 -0.4516
   23HTM   C112 7779   3.849   3.202   2.092  0.1158 -0.8215 -0.7334
   23HTM   C113 7780   3.755   3.219   1.985  0.1928 -0.3240 -0.7276
   23HTM   C114 7781   3.806   3.284   1.877  0.3072  0.0653 -0.4415
   23HTM    S12 7782   3.979   3.330   1.903  0.3268 -0.1682 -0.1549
   24TAL   C115 7783   3.620   3.164   1.986  0.0879 -0.3312 -0.2108
   24TAL   C116 7784   3.606   3.030   2.065 -0.0202  0.6448 -0.3029
   24TAL   C117 7785   3.461   2.974   2.069  0.2213  0.6280 -0.9155
   24TAL   C118 7786   3.386   3.014   2.202  0.2977  0.3947 -1.0823
   24TAL   C119 7787   3.232   2.958   2.198 -0.2047 -0.0525  1.1328
   24TAL   C120 7788   3.211   2.805   2.213  0.1634  0.2855 -0.0703
   25HTM   C121 7789   3.750   3.340   1.760  0.5680 -0.4261 -0.2476
   25HTM   C122 7790   3.794   3.457   1.706  0.2673 -0.0303  0.3483
   25HTM   C123 7791   3.707   3.511   1.605 -0.1160  0.5242  0.9637
   25HTM   C124 7792   3.596   3.436   1.582 -0.1077  0.5511  0.8369
   25HTM    S13 7793   3.593   3.289   1.686  0.3888 -0.1271 -0.0765
   26TAL   C125 7794   3.714   3.647   1.561 -0.5405 -1.3264 -0.4144
   26TAL   C126 7795   3.838   3.732   1.504 -0.1261  0.0218 -0.4726
   26TAL   C127 7796   3.819   3.881   1.481 -0.1646 -0.3483  0.0590
   26TAL   C128 7797   3.689   3.941   1.423 -0.9379  0.3318 -0.8520
   26TAL   C129 7798   3.661   3.901   1.276 -0.2626 -0.4886  0.4634
   26TAL   C130 7799   3.512   3.903   1.239  0.7959  0.4602 -0.0880
   27HTM   C131 7800   3.487   3.456   1.491  0.2562  0.1971  0.2141
   27HTM   C132 7801   3.469   3.402   1.367  0.2751  0.0412  0.2797
   27HTM   C133 7802   3.357   3.457   1.295  0.2127 -0.1346  0.2401
   27HTM   C134 7803   3.290   3.554   1.364  0.1461 -0.1128  0.1443
   27HTM    S14 7804   3.363   3.583   1.526  0.1572  0.1334  0.0964
   28TAL   C135 7805   3.316   3.403   1.157  0.0083 -0.9941 -0.0501
   28TAL   C136 7806   3.411   3.324   1.064 -0.5916 -0.5571  0.9092
   28TAL   C137 7807   3.379   3.184   1.019 -0.2029  0.7637 -0.1481
   28TAL   C138 7808   3.242   3.166   0.938 -0.3713 -0.0143 -0.3885
   28TAL   C139 7809   3.256   3.180   0.784  0.5870 -1.0222 -0.7624
   28TAL   C140 7810   3.202   3.314   0.735  0.3654 -0.1556 -0.3846
   29HTM   C141 7811   3.163   3.621   1.328  0.6491  0.4882  0.6997
   29HTM   C142 7812   3.132   3.672   1.205  1.4452  0.6159  0.5416
   29HTM   C143 7813   3.007   3.744   1.202  1.3425  0.4210 -0.2425
   29HTM   C144 7814   2.943   3.748   1.322  0.4683  0.1446 -0.6823
   29HTM    S15 7815   3.036   3.661   1.450 -0.2992  0.1089 -0.1360
   30TAL   C145 7816   2.962   3.804   1.063  0.1254 -0.3006 -0.6668
   30TAL   C146 7817   2.926   3.680   0.985 -0.1303 -0.3736  0.2944
   30TAL   C147 7818   2.839   3.715   0.868  1.2093  0.3257  0.7079
   30TAL   C148 7819   2.804   3.589   0.774  0.1220 -0.1281 -0.0573
   30TAL   C149 7820   2.720   3.594   0.644  1.1541 -1.0227 -0.1001
   30TAL   C150 7821   2.570   3.636   0.656  0.3351  0.3031 -0.2591
   31HTM   C151 7822   2.822   3.818   1.359  0.3706  0.1815 -0.1421
   31HTM   C152 7823   2.746   3.755   1.453  0.4203 -0.4188 -0.4889
   31HTM   C153 7824   2.609   3.802   1.456  0.3458 -0.6487 -0.3177
   31HTM   C154 7825   2.582   3.899   1.365  0.2393 -0.2236  0.1596
   31HTM    S16 7826   2.727   3.941   1.267  0.2247  0.5055  0.4321
   32TAL   C155 7827   2.528   3.759   1.578  0.4827 -0.3464  0.2473
   32TAL   C156 7828   2.452   3.640   1.526  0.0353  0.1903  0.4028
   32TAL   C157 7829   2.326   3.635   1.605 -0.5609  0.4514  0.3086
   32TAL   C158 7830   2.212   3.552   1.554  0.3911 -0.1701 -0.2760
   32TAL   C159 7831   2.098   3.640   1.493  0.5633 -0.0936  0.8877
   32TAL   C160 7832   1.968   3.579   1.520 -0.0520  0.6036  0.4756
   33HTM   C161 7833   2.461   3.980   1.346 -0.1335  0.7277 -0.0212
   33HTM   C162 7834   2.455   4.100   1.281 -0.1449  0.7881  0.0909
   33HTM   C163 7835   2.322   4.152   1.267 -0.1682  0.6956 -0.0291
   33HTM   C164 7836   2.226   4.071   1.321 -0.1745  0.5648 -0.2325
   33HTM    S17 7837   2.297   3.923   1.395 -0.1513  0.5480 -0.2889
   34TAL   C165 7838   2.313   4.278   1.186 -0.7840 -0.9749 -0.5232
   34TAL   C166 7839   2.317   4.288   1.038 -0.6142  0.2421 -0.1704
   34TAL   C167 7840   2.397   4.179   0.959 -0.5868  1.1136  0.4122
   34TAL   C168 7841   2.554   4.188   0.956  0.2884 -0.1098  0.2841
   34TAL   C169 7842   2.603   4.104   0.836 -0.1000 -0.2297 -0.1030
   34TAL   C170 7843   2.761   4.116   0.812  0.5342  0.2060 -0.6362
   35HTM   C171 7844   2.078   4.088   1.338 -0.1595 -0.1408 -0.2327
   35HTM   C172 7845   1.991   4.007   1.404 -0.0298  0.2564  0.4424
   35HTM   C173 7846   1.859   4.063   1.418  0.0509  0.4232  0.5443
   35HTM   C174 7847   1.846   4.187   1.362 -0.0174  0.1532 -0.0531
   35HTM    S18 7848   2.000   4.243   1.287 -0.1902 -0.3364 -0.7965
   36TAL   C175 7849   1.740   3.988   1.489  0.1937 -0.6339  0.7623
   36TAL   C176 7850   1.746   3.867   1.578  0.7305  0.3994  0.1982
   36TAL   C177 7851   1.832   3.893   1.700 -0.3364 -0.5528  0.3333
   36TAL   C178 7852   1.865   3.779   1.795  0.4865  0.4051 -0.2651
   36TAL   C179 7853   1.739   3.736   1.864 -0.8469  0.3772 -1.2165
   36TAL   C180 7854   1.711   3.597   1.925  0.6912 -0.6958  0.2013
   37HTM   C181 7855   1.722   4.270   1.340 -0.4817  0.2957  0.3053
   37HTM   C182 7856   1.612   4.259   1.419 -0.3142  0.9069  0.6425
   37HTM   C183 7857   1.523   4.372   1.410  0.0789  1.2171  0.6014
   37HTM   C184 7858   1.566   4.470   1.325  0.2111  0.8423  0.2327
   37HTM    S19 7859   1.723   4.426   1.248 -0.1534  0.0625 -0.0935
   38TAL   C185 7860   1.410   4.394   1.509  0.5926 -1.1019  0.4850
   38TAL   C186 7861   1.364   4.274   1.581 -0.4054 -0.2088  0.4131
   38TAL   C187 7862   1.305   4.307   1.719  0.2074 -0.2202  0.4522
   38TAL   C188 7863   1.292   4.187   1.813 -0.7151 -0.5493  0.5269
   38TAL   C189 7864   1.423   4.147   1.872  0.3602  0.0509 -0.3894
   38TAL   C190 7865   1.396   4.024   1.958  0.3299 -0.4481 -0.0986
   39HTM   C191 7866   1.521   4.600   1.280 -0.0712 -0.2650  0.2334
   39HTM   C192 7867   1.404   4.630   1.216 -0.0450 -0.2697  0.1836
   39HTM   C193 7868   1.373   4.771   1.214  0.1757 -0.2241 -0.2165
   39HTM   C194 7869   1.466   4.848   1.277  0.3178 -0.1848 -0.4720
   39HTM    S20 7870   1.601   4.749   1.344  0.1827 -0.2023 -0.2250
   40TAL   C195 7871   1.233   4.818   1.164 -0.7556  0.4823  0.4601
   40TAL   C196 7872   1.182   4.766   1.030  0.2276 -0.1485 -0.4751
   40TAL   C197 7873   1.272   4.755   0.914 -0.3074  0.2804  0.3278
   40TAL   C198 7874   1.199   4.709   0.780 -0.3591  0.0135  0.0125
   40TAL   C199 7875   1.099   4.591   0.768 -0.1009  0.0483  0.1138
   40TAL   C200 7876   1.147   4.471   0.842 -0.1936  0.0906 -0.5602
   41HTM   C201 7877   1.483   4.997   1.291  0.4648  0.2758 -0.1916
   41HTM   C202 7878   1.504   5.094   1.197  1.2991  0.3693  0.0777
   41HTM   C203 7879   1.543   5.221   1.253  1.2753  0.1892  0.5119
   41HTM   C204 7880   1.551   5.221   1.389  0.4229 -0.0416  0.5737
   41HTM    S21 7881   1.510   5.059   1.458 -0.4226 -0.0496  0.0844
   42TAL   C205 7882   1.600   5.345   1.174  0.2092  0.0154 -0.9636
   42TAL   C206 7883   1.660   5.315   1.034 -0.2225 -0.9654 -0.6746
   42TAL   C207 7884   1.585   5.251   0.915 -0.3352  1.2025 -0.5543
   42TAL   C208 7885   1.501   5.340   0.836 -0.1764 -0.5156  0.9729
   42TAL   C209 7886   1.468   5.271   0.694  0.6278 -0.0641 -0.0432
   42TAL   C210 7887   1.342   5.343   0.621 -0.4262  0.8974  0.0276
   43HTM   C211 7888   1.585   5.333   1.480 -0.2002 -0.2522 -0.1150
   43HTM   C212 7889   1.696   5.365   1.553 -0.1379 -0.2320 -0.2192
   43HTM   C213 7890   1.685   5.489   1.624 -0.0062 -0.1202 -0.3919
   43HTM   C214 7891   1.565   5.552   1.606  0.0320 -0.0553 -0.4193
   43HTM    S22 7892   1.457   5.458   1.497 -0.0965 -0.1309 -0.2278
   44TAL   C215 7893   1.797   5.559   1.708 -0.0348 -0.1952  0.7237
   44TAL   C216 7894   1.944   5.511   1.693  0.6880 -0.2128 -0.7598
   44TAL   C217 7895   2.047   5.585   1.780  1.1118  0.5540 -0.0771
   44TAL   C218 7896   2.149   5.677   1.704 -0.2833  0.6691 -0.3103
   44TAL   C219 7897   2.090   5.796   1.635  0.7671 -0.3092 -0.1395
   44TAL   C220 7898   2.005   5.897   1.716 -0.7542 -0.3470 -0.0009
   45HTM   C221 7899   1.523   5.695   1.635  0.0190 -0.3955  1.2433
   45HTM   C222 7900   1.393   5.729   1.659  0.1089 -0.6344  2.1450
   45HTM   C223 7901   1.376   5.867   1.697  0.0876 -0.5674  1.8969
   45HTM   C224 7902   1.492   5.938   1.703 -0.0186 -0.2775  0.8059
   45HTM    S23 7903   1.634   5.835   1.659 -0.1005 -0.0648  0.0011
   46TAL   C225 7904   1.244   5.929   1.724 -0.2324 -0.8274  0.2708
   46TAL   C226 7905   1.167   5.851   1.832  0.0949 -0.7459  0.6812
   46TAL   C227 7906   1.168   5.894   1.977  0.4040 -0.5853 -0.7650
   46TAL   C228 7907   1.161   6.045   2.016 -1.0227 -0.0034 -1.0698
   46TAL   C229 7908   1.199   6.063   2.164 -0.5209 -0.5692 -0.2315
   46TAL   C230 7909   1.180   6.210   2.201  1.0648  0.5691  0.3948
   47HTM   C231 7910   1.523   6.073   1.755  0.1543 -0.0044 -0.3460
   47HTM   C232 7911   1.612   6.103   1.853  0.7299  0.2511 -0.9326
   47HTM   C233 7912   1.604   6.240   1.899  0.6348  0.2282 -0.8801
   47HTM   C234 7913   1.509   6.313   1.835 -0.0133 -0.0447 -0.2534
   47HTM    S24 7914   1.421   6.215   1.711 -0.5581 -0.2961  0.3234
   48TAL   C235 7915   1.680   6.270   2.020 -0.3707  0.4136 -0.7255
   48TAL   C236 7916   1.661   6.418   2.079  0.1835  0.5992 -0.4634
   48TAL   C237 7917   1.681   6.404   2.234  1.1721 -0.9173  0.1096
   48TAL   C238 7918   1.601   6.509   2.310  0.2271 -0.0133 -0.5869
   48TAL   C239 7919   1.569   6.479   2.460  0.0733 -0.1479  0.8856
   48TAL   C240 7920   1.546   6.607   2.524  0.0423  0.4789 -0.2345
    1HTM     C1 7921   9.684   2.369   0.265  0.3401 -0.0272 -0.3017
    1HTM     C2 7922   9.736   2.304   0.373  0.5224  0.2798 -0.1996
    1HTM     C3 7923   9.637   2.240   0.455  0.6888  0.2277 -0.0386
    1HTM     C4 7924   9.509   2.257   0.411  0.6328 -0.1190 -0.0180
    1HTM     S1 7925   9.504   2.356   0.260  0.3641 -0.4090 -0.2018
    2TAL     C5 7926   9.666   2.145   0.568 -0.4271  0.5003  0.1794
    2TAL     C6 7927   9.676   2.210   0.709 -0.4330  0.8855  0.6793
    2TAL     C7 7928   9.669   2.110   0.831  0.4748  0.5250  0.2599
    2TAL     C8 7929   9.574   1.990   0.806  0.4044 -0.4733  0.7436
    2TAL     C9 7930   9.532   1.928   0.928 -1.0676 -0.1871 -0.0065
    2TAL    C10 7931   9.432   1.817   0.887 -0.2301 -0.1847 -0.1275
    3HTM    C11 7932   9.379   2.183   0.446 -0.2281 -0.0505  0.1097
    3HTM    C12 7933   9.272   2.165   0.363 -0.0517 -0.4892 -0.0309
    3HTM    C13 7934   9.153   2.122   0.432 -0.0277 -0.7597 -0.1551
    3HTM    C14 7935   9.169   2.107   0.566 -0.1856 -0.5273 -0.1092
    3HTM     S2 7936   9.338   2.147   0.617 -0.3790  0.0558  0.0960
    4TAL    C15 7937   9.023   2.110   0.357 -0.1975 -0.0725 -0.1673
    4TAL    C16 7938   8.999   2.152   0.202 -0.3535  0.2535 -1.9981
    4TAL    C17 7939   9.073   2.075   0.099  1.0930  1.0019 -0.3221
    4TAL    C18 7940   9.056   2.132  -0.039 -1.3967  0.2451  0.4099
    4TAL    C19 7941   9.098   2.281  -0.049 -0.2306 -0.0805  0.2596
    4TAL    C20 7942   9.034   2.349  -0.160  0.2868 -0.0913  0.2317
    5HTM    C21 7943   9.082   2.070   0.666  0.6962 -0.3018 -0.5296
    5HTM    C22 7944   8.946   2.063   0.658  0.7041 -0.1168 -0.8525
    5HTM    C23 7945   8.883   2.021   0.780  0.3450  0.1236 -0.9539
    5HTM    C24 7946   8.970   1.997   0.882  0.0632  0.1217 -0.7084
    5HTM     S3 7947   9.141   2.024   0.830  0.2309 -0.1859 -0.3272
    6TAL    C25 7948   8.731   2.027   0.794  0.2484  0.3986  0.7776
    6TAL    C26 7949   8.657   1.895   0.757  0.2252 -0.2560 -0.5307
    6TAL    C27 7950   8.660   1.851   0.610  1.2711  0.6866  1.1586
    6TAL    C28 7951   8.574   1.933   0.516  0.1008  0.8318 -0.7570
    6TAL    C29 7952   8.660   1.960   0.384 -0.3423 -0.7885  1.4535
    6TAL    C30 7953   8.599   2.060   0.294  0.1529  0.3393 -0.2783
    7HTM    C31 7954   8.955   1.948   1.020 -0.3487  0.3547  0.2209
    7HTM    C32 7955   8.944   2.020   1.136 -0.3457  0.1675  0.3389
    7HTM    C33 7956   8.934   1.939   1.254 -0.1721 -0.0249  0.2229
    7HTM    C34 7957   8.937   1.805   1.229 -0.0438  0.0156  0.0164
    7HTM     S4 7958   8.953   1.771   1.053 -0.1317  0.3021 -0.0482
    8TAL    C35 7959   8.911   2.002   1.388  0.2368 -0.0605  0.7270
    8TAL    C36 7960   8.806   2.108   1.406  0.6760 -0.1510  0.8932
    8TAL    C37 7961   8.827   2.193   1.522  0.2512  0.5817  0.2832
    8TAL    C38 7962   8.771   2.333   1.531  0.2200 -0.0055  0.5351
    8TAL    C39 7963   8.785   2.386   1.670 -0.5596 -0.2103 -0.1865
    8TAL    C40 7964   8.789   2.542   1.670 -0.0844  0.3264 -0.5271
    9HTM    C41 7965   8.899   1.693   1.314  0.4316 -0.1644  0.3992
    9HTM    C42 7966   8.844   1.581   1.261  0.6878 -0.0997 -0.0159
    9HTM    C43 7967   8.797   1.487   1.360  0.5636 -0.4044 -0.3586
    9HTM    C44 7968   8.817   1.528   1.488  0.2125 -0.7014 -0.2048
    9HTM     S5 7969   8.897   1.690   1.494  0.0105 -0.6187  0.3894
   10TAL    C45 7970   8.735   1.352   1.321  0.3990 -0.2799  0.4074
   10TAL    C46 7971   8.608   1.371   1.236 -0.4560  0.4351  0.2608
   10TAL    C47 7972   8.482   1.412   1.310 -0.4440  0.7201 -0.5034
   10TAL    C48 7973   8.359   1.353   1.241 -0.0219  0.0608 -1.1027
   10TAL    C49 7974   8.226   1.415   1.259  0.3377  0.4919 -0.0235
   10TAL    C50 7975   8.168   1.374   1.389  0.0960  0.1817  1.0889
   11HTM    C51 7976   8.797   1.456   1.608 -1.5791  0.1732 -0.7882
   11HTM    C52 7977   8.891   1.450   1.706 -1.0514  0.3504 -1.2731
   11HTM    C53 7978   8.846   1.385   1.826 -0.2642  0.1483 -1.0749
   11HTM    C54 7979   8.717   1.341   1.819 -0.1920 -0.1831 -0.4388
   11HTM     S6 7980   8.643   1.378   1.660 -1.1195 -0.2661 -0.0377
   12TAL    C55 7981   8.939   1.355   1.949  0.5896 -0.6162 -0.8182
   12TAL    C56 7982   9.084   1.345   1.942 -0.5884  0.6913 -0.8636
   12TAL    C57 7983   9.147   1.240   1.857 -0.0640  1.1026  0.0455
   12TAL    C58 7984   9.287   1.189   1.896 -0.1984 -1.4393 -0.5556
   12TAL    C59 7985   9.308   1.139   2.038 -0.0704 -0.9997 -1.0926
   12TAL    C60 7986   9.328   0.994   2.069  0.1443 -0.0894 -0.6331
   13HTM    C61 7987   8.636   1.274   1.921  0.5772  0.5014  0.0138
   13HTM    C62 7988   8.549   1.171   1.897  0.7691  0.4257 -0.3746
   13HTM    C63 7989   8.469   1.135   2.011  0.7741 -0.1026 -0.5323
   13HTM    C64 7990   8.495   1.210   2.122  0.5857 -0.4298 -0.2641
   13HTM     S7 7991   8.623   1.333   2.090  0.3859 -0.0934  0.2121
   14TAL    C65 7992   8.355   1.038   2.004 -0.2986  0.3863  0.4129
   14TAL    C66 7993   8.267   1.014   1.878 -0.2619  0.1222 -0.2891
   14TAL    C67 7994   8.345   0.995   1.755 -0.1214  0.3631 -0.4115
   14TAL    C68 7995   8.265   1.017   1.624  0.4134  0.6221  0.0162
   14TAL    C69 7996   8.355   1.029   1.504  0.7529 -0.0887 -0.0968
   14TAL    C70 7997   8.281   0.996   1.376 -0.6122 -0.0822  0.4569
   15HTM    C71 7998   8.449   1.189   2.262  0.0126 -0.0177  0.0622
   15HTM    C72 7999   8.332   1.232   2.317 -0.1969 -0.4665 -0.0238
   15HTM    C73 8000   8.322   1.208   2.459 -0.3927 -0.8908 -0.1081
   15HTM    C74 8001   8.432   1.146   2.512 -0.3321 -0.7655 -0.0863
   15HTM     S8 8002   8.557   1.114   2.386 -0.0212 -0.0967  0.0435
   16TAL    C75 8003   8.196   1.228   2.536 -1.2938 -0.8215  0.6631
   16TAL    C76 8004   8.135   1.359   2.523 -0.1775 -0.1252  0.1196
   16TAL    C77 8005   8.202   1.477   2.595  0.4172  0.9060  0.5909
   16TAL    C78 8006   8.206   1.461   2.753 -0.1489 -1.4889 -0.3533
   16TAL    C79 8007   8.068   1.476   2.821  0.6604  0.6264 -0.5831
   16TAL    C80 8008   8.108   1.373   2.939 -0.1537  0.3190 -0.0813
   17HTM    C81 8009   8.458   1.097   2.642  0.4859 -0.5455 -0.2156
   17HTM    C82 8010   8.472   1.174   2.753  0.7031 -0.3128 -0.4011
   17HTM    C83 8011   8.490   1.098   2.874  0.4444 -0.0735 -0.2087
   17HTM    C84 8012   8.490   0.963   2.855  0.0304 -0.1237  0.1232
   17HTM     S9 8013   8.466   0.922   2.681 -0.0659 -0.4799  0.2196
   18TAL    C85 8014   8.516   1.173   2.996 -1.3180 -0.0476 -0.4106
   18TAL    C86 8015   8.655   1.240   3.025  0.9368 -0.3773  0.6208
   18TAL    C87 8016   8.765   1.146   3.074 -0.2358 -0.7499 -0.0503
   18TAL    C88 8017   8.728   1.104   3.225  0.6810  1.0984  0.5613
   18TAL    C89 8018   8.754   1.210   3.325 -0.0810 -1.0527 -0.2586
   18TAL    C90 8019   8.671   1.184   3.449 -0.8791  0.8391  0.8718
   19HTM    C91 8020   8.500   0.856   2.949  0.3906  0.2050  1.1359
   19HTM    C92 8021   8.609   0.788   2.996  0.3459  0.2198  1.2602
   19HTM    C93 8022   8.575   0.675   3.080  0.2439 -0.2010  0.6663
   19HTM    C94 8023   8.441   0.658   3.096  0.2110 -0.5366  0.0891
   19HTM    S10 8024   8.346   0.782   3.007  0.3066 -0.3458  0.2521
   20TAL    C95 8025   8.681   0.601   3.156  0.0015 -0.5285  0.2325
   20TAL    C96 8026   8.776   0.687   3.242  0.2106  0.8174  0.7463
   20TAL    C97 8027   8.805   0.623   3.379  0.4754 -0.3996  0.1260
   20TAL    C98 8028   8.912   0.703   3.453 -0.5611  0.3467 -0.5881
   20TAL    C99 8029   8.978   0.643   3.572 -0.0914 -0.7045 -0.3655
   20TAL   C100 8030   9.101   0.704   3.633  0.9283  0.0877 -0.4173
   21HTM   C101 8031   8.352   0.547   3.136  0.2489  0.3071 -0.6747
   21HTM   C102 8032   8.218   0.554   3.159  0.2086  0.3233 -0.9047
   21HTM   C103 8033   8.164   0.434   3.219  0.0813  0.3085 -1.0483
   21HTM   C104 8034   8.257   0.337   3.242  0.0243  0.2810 -0.9278
   21HTM    S11 8035   8.421   0.389   3.189  0.1275  0.2717 -0.6212
   22TAL   C105 8036   8.021   0.399   3.265 -0.6068  0.3649  1.2620
   22TAL   C106 8037   7.908   0.505   3.300  0.1130  0.3221 -0.4863
   22TAL   C107 8038   7.942   0.631   3.390 -0.3203 -0.6894  0.2350
   22TAL   C108 8039   7.992   0.622   3.536 -0.5757  0.8846 -0.0556
   22TAL   C109 8040   7.920   0.535   3.633 -0.1295  0.3543 -0.4607
   22TAL   C110 8041   7.993   0.516   3.765 -0.3548  0.3692 -0.1641
   23HTM   C111 8042   8.236   0.217   3.321  0.1176  0.1957  0.1911
   23HTM   C112 8043   8.186   0.098   3.275  0.5627  0.0057  0.1857
   23HTM   C113 8044   8.157   0.003   3.379  0.7725 -0.0490  0.1943
   23HTM   C114 8045   8.186   0.049   3.504  0.4878  0.0993  0.2060
   23HTM    S12 8046   8.251   0.217   3.501 -0.0724  0.3213  0.2074
   24TAL   C115 8047   8.078  -0.120   3.330  0.2616  0.0360  0.5419
   24TAL   C116 8048   7.953  -0.096   3.250  0.9357  0.0759 -0.6009
   24TAL   C117 8049   7.856   0.002   3.297  0.5321 -0.6229  0.5972
   24TAL   C118 8050   7.766   0.021   3.175 -1.1554 -0.3280 -0.0786
   24TAL   C119 8051   7.651   0.114   3.200 -0.1112  0.5933  0.4240
   24TAL   C120 8052   7.551   0.136   3.076 -1.2141 -0.1832 -1.0258
   25HTM   C121 8053   8.142  -0.008   3.627  0.2953  0.2561  0.0713
   25HTM   C122 8054   8.173  -0.135   3.663 -0.0525  0.1523  0.0114
   25HTM   C123 8055   8.141  -0.166   3.801 -0.6540 -0.0021 -0.1584
   25HTM   C124 8056   8.085  -0.061   3.868 -0.7642 -0.0158 -0.2279
   25HTM    S13 8057   8.069   0.085   3.763 -0.1125  0.1667 -0.0833
   26TAL   C125 8058   8.144  -0.316   3.839  0.0953 -0.3232  0.0854
   26TAL   C126 8059   8.275  -0.387   3.862 -0.3063 -0.4127  0.0746
   26TAL   C127 8060   8.387  -0.287   3.928 -0.0287  0.8729  0.2337
   26TAL   C128 8061   8.523  -0.365   3.921 -0.2986 -0.8894  0.0305
   26TAL   C129 8062   8.644  -0.275   3.955 -0.6248 -0.4246 -0.5543
   26TAL   C130 8063   8.650  -0.233   4.107 -0.3996 -0.4036 -0.0756
   27HTM   C131 8064   8.044  -0.051   4.006 -0.1234  0.0190  0.2825
   27HTM   C132 8065   8.097   0.029   4.103  0.2694  0.0114  0.0809
   27HTM   C133 8066   8.076  -0.020   4.237  0.6013  0.1209  0.1757
   27HTM   C134 8067   8.007  -0.138   4.242  0.4613  0.2120  0.4497
   27HTM    S14 8068   7.964  -0.196   4.077 -0.1047  0.1660  0.6105
   28TAL   C135 8069   8.133   0.037   4.358  1.0353  0.1474  0.5302
   28TAL   C136 8070   8.259   0.101   4.342 -1.2283  0.4474 -0.7904
   28TAL   C137 8071   8.321   0.134   4.473 -0.1948 -0.7487 -0.2747
   28TAL   C138 8072   8.355   0.017   4.571 -0.8161 -0.4464  0.0261
   28TAL   C139 8073   8.410   0.066   4.700 -0.4047 -0.1073 -0.0044
   28TAL   C140 8074   8.377  -0.017   4.823 -0.1750 -0.0318  0.2268
   29HTM   C141 8075   8.004  -0.238   4.335 -0.3421 -0.4536 -0.0128
   29HTM   C142 8076   8.014  -0.373   4.316 -1.1446 -0.5629  0.2583
   29HTM   C143 8077   8.004  -0.450   4.438 -1.3216 -0.2427  0.4494
   29HTM   C144 8078   7.987  -0.374   4.549 -0.6539  0.1105  0.3239
   29HTM    S15 8079   7.981  -0.198   4.510  0.2574  0.0660 -0.0484
   30TAL   C145 8080   8.010  -0.599   4.418  0.2989 -0.1992 -0.0415
   30TAL   C146 8081   8.158  -0.653   4.390 -0.1879  0.5802  0.0899
   30TAL   C147 8082   8.196  -0.803   4.415  0.7747  0.9070 -0.8736
   30TAL   C148 8083   8.178  -0.873   4.551 -0.6603 -0.0591 -0.3865
   30TAL   C149 8084   8.091  -1.005   4.563  0.0096  0.4128 -0.1869
   30TAL   C150 8085   8.026  -1.008   4.700  0.8222  0.2062  0.6077
   31HTM   C151 8086   7.979  -0.408   4.681  0.0173  0.0863 -0.3813
   31HTM   C152 8087   7.890  -0.489   4.744 -0.4538  0.4082 -0.6260
   31HTM   C153 8088   7.911  -0.499   4.886 -0.8897  0.3378 -0.5634
   31HTM   C154 8089   8.017  -0.426   4.931 -0.7508 -0.0372 -0.2714
   31HTM    S16 8090   8.099  -0.338   4.797 -0.0534 -0.3335 -0.0508
   32TAL   C155 8091   7.827  -0.586   4.986 -0.0437  0.0885  0.2425
   32TAL   C156 8092   7.679  -0.573   5.019  0.1522  0.0213  0.8383
   32TAL   C157 8093   7.650  -0.535   5.161 -0.1958 -0.9746  0.4415
   32TAL   C158 8094   7.509  -0.557   5.197  0.8130  0.6526 -0.2774
   32TAL   C159 8095   7.456  -0.708   5.181  0.3304 -0.4487 -0.1078
   32TAL   C160 8096   7.511  -0.820   5.268  0.0451 -0.5399 -0.2038
   33HTM   C161 8097   8.071  -0.399   5.062 -0.0776  0.2252  0.0462
   33HTM   C162 8098   8.202  -0.401   5.102 -0.0181  0.8636 -0.1014
   33HTM   C163 8099   8.221  -0.377   5.243  0.0134  0.7904 -0.0933
   33HTM   C164 8100   8.104  -0.358   5.311 -0.0223  0.0965  0.0605
   33HTM    S17 8101   7.961  -0.368   5.201 -0.0984 -0.5231  0.2078
   34TAL   C165 8102   8.360  -0.399   5.301  0.3742  0.2137 -0.2331
   34TAL   C166 8103   8.414  -0.531   5.361 -0.0150 -0.1652  0.1856
   34TAL   C167 8104   8.372  -0.661   5.281  0.2115  0.1133  0.4012
   34TAL   C168 8105   8.440  -0.672   5.149  0.1552  1.0849  0.1043
   34TAL   C169 8106   8.355  -0.780   5.066 -0.1176  0.2537 -0.0857
   34TAL   C170 8107   8.389  -0.780   4.915  0.3282  0.2618 -0.8547
   35HTM   C171 8108   8.078  -0.313   5.446 -0.0001  0.4121 -0.1197
   35HTM   C172 8109   7.981  -0.223   5.479  0.2768  0.6554  0.0483
   35HTM   C173 8110   7.966  -0.204   5.621  0.5214  0.6399  0.0768
   35HTM   C174 8111   8.052  -0.278   5.696  0.4310  0.3851 -0.0696
   35HTM    S18 8112   8.159  -0.380   5.593  0.0267  0.1429 -0.2560
   36TAL   C175 8113   7.866  -0.123   5.689  0.1456 -0.7681 -0.2551
   36TAL   C176 8114   7.884   0.023   5.702  0.4590 -0.8652  0.0651
   36TAL   C177 8115   8.016   0.077   5.756  0.2292  0.3093 -0.3691
   36TAL   C178 8116   8.039   0.043   5.908 -0.3863 -0.2191 -0.0467
   36TAL   C179 8117   8.150   0.099   5.985  0.4712 -0.6904 -0.0730
   36TAL   C180 8118   8.146   0.057   6.140 -0.5082 -0.0617  0.8678
   37HTM   C181 8119   8.053  -0.307   5.839  0.3405  0.1831  0.7447
   37HTM   C182 8120   8.162  -0.301   5.920  0.1078 -0.6301  1.1387
   37HTM   C183 8121   8.139  -0.352   6.053 -0.4961 -1.2617  0.8068
   37HTM   C184 8122   8.012  -0.396   6.073 -0.7240 -0.9304  0.1600
   37HTM    S19 8123   7.910  -0.377   5.925 -0.1891  0.2139 -0.0823
   38TAL   C185 8124   8.253  -0.365   6.153 -0.2854 -1.0206 -0.5304
   38TAL   C186 8125   8.269  -0.246   6.247  0.5563  0.3822 -0.2368
   38TAL   C187 8126   8.396  -0.271   6.329  0.8840 -0.8776 -0.1919
   38TAL   C188 8127   8.441  -0.144   6.400  0.2207  0.1431 -1.1427
   38TAL   C189 8128   8.593  -0.158   6.433  0.8576 -0.0857  0.1448
   38TAL   C190 8129   8.638  -0.026   6.490  0.3272  1.2953  0.7569
   39HTM   C191 8130   7.947  -0.426   6.201 -0.0306  0.2254  0.6813
   39HTM   C192 8131   7.832  -0.375   6.253 -0.0030  0.2220  0.7468
   39HTM   C193 8132   7.793  -0.436   6.378 -0.0546  0.0570  0.6509
   39HTM   C194 8133   7.879  -0.533   6.421 -0.1217 -0.0645  0.5123
   39HTM    S20 8134   8.016  -0.555   6.307 -0.1249  0.0199  0.4921
   40TAL   C195 8135   7.679  -0.371   6.461  0.4843  0.0801 -0.5471
   40TAL   C196 8136   7.557  -0.356   6.377  0.4648  0.0042  0.5326
   40TAL   C197 8137   7.433  -0.295   6.443  0.7576  0.4167  1.2859
   40TAL   C198 8138   7.435  -0.144   6.481 -0.4569  1.3974  0.0825
   40TAL   C199 8139   7.377  -0.026   6.410  0.6712 -0.8006  0.2414
   40TAL   C200 8140   7.236  -0.006   6.455  0.0066 -0.5432 -0.1388
   41HTM   C201 8141   7.864  -0.614   6.542  0.1389 -0.0761  0.1075
   41HTM   C202 8142   7.758  -0.693   6.576  0.3327 -0.4270 -0.0885
   41HTM   C203 8143   7.760  -0.735   6.714  0.3614 -0.6509 -0.1566
   41HTM   C204 8144   7.866  -0.688   6.784  0.1896 -0.4706 -0.0128
   41HTM    S21 8145   7.974  -0.587   6.682 -0.0235 -0.0010  0.2218
   42TAL   C205 8146   7.657  -0.831   6.773  1.1418 -0.1524 -0.4238
   42TAL   C206 8147   7.621  -0.952   6.700  0.1390 -0.7071  0.8244
   42TAL   C207 8148   7.497  -1.029   6.771 -0.6247  0.5189  0.7739
   42TAL   C208 8149   7.438  -1.144   6.697  0.4511  0.3073  0.0810
   42TAL   C209 8150   7.513  -1.223   6.585  0.8606  0.4180  0.5223
   42TAL   C210 8151   7.424  -1.326   6.507 -0.7047  0.0574  0.2252
   43HTM   C211 8152   7.902  -0.711   6.920 -0.5406 -0.2589 -0.0152
   43HTM   C212 8153   7.941  -0.620   7.014  0.1787 -0.0970 -0.4547
   43HTM   C213 8154   7.986  -0.680   7.137  0.6518  0.1254 -0.5157
   43HTM   C214 8155   7.982  -0.816   7.137  0.2929  0.1333 -0.1225
   43HTM    S22 8156   7.920  -0.880   6.980 -0.6776 -0.1418  0.3589
   44TAL   C215 8157   8.042  -0.590   7.251  0.4482 -0.8354 -0.3011
   44TAL   C216 8158   7.977  -0.444   7.241 -0.5807 -0.9988  0.8248
   44TAL   C217 8159   8.009  -0.363   7.366 -0.0958 -1.2329 -0.1082
   44TAL   C218 8160   7.907  -0.345   7.482  0.1241  0.5270  0.5033
   44TAL   C219 8161   7.869  -0.480   7.550  0.0002  0.4234  0.4923
   44TAL   C220 8162   7.727  -0.517   7.521  0.1147  0.2171 -0.0755
   45HTM   C221 8163   8.015  -0.928   7.232  0.4922  0.0833  0.6171
   45HTM   C222 8164   8.118  -0.941   7.321  0.7627 -0.1409  0.2761
   45HTM   C223 8165   8.120  -1.067   7.389  0.7913 -0.1955  0.1745
   45HTM   C224 8166   8.019  -1.151   7.353  0.5429 -0.0132  0.4383
   45HTM    S23 8167   7.912  -1.076   7.229  0.2506  0.2441  0.8385
   46TAL   C225 8168   8.245  -1.102   7.473  1.0628  0.7199 -0.3050
   46TAL   C226 8169   8.236  -1.095   7.625  0.8493 -0.1839 -0.4774
   46TAL   C227 8170   8.226  -0.956   7.688  0.1523 -0.5552 -0.7555
   46TAL   C228 8171   8.348  -0.898   7.768 -1.4450 -0.6765 -0.1546
   46TAL   C229 8172   8.483  -0.898   7.697 -0.7349  0.6888 -0.5698
   46TAL   C230 8173   8.506  -0.828   7.568 -0.7414  0.2286  0.0400
   47HTM   C231 8174   8.027  -1.292   7.370  0.0580  0.8949  0.1063
   47HTM   C232 8175   8.059  -1.379   7.271  1.0858  1.2631  0.0848
   47HTM   C233 8176   8.049  -1.517   7.309  1.4241  1.1222 -0.3167
   47HTM   C234 8177   8.010  -1.535   7.439  0.6541  0.6468 -0.6011
   47HTM    S24 8178   7.982  -1.378   7.522 -0.5667  0.3380 -0.3823
   48TAL   C235 8179   8.053  -1.649   7.233 -0.1288 -0.7036  1.0963
   48TAL   C236 8180   7.998  -1.649   7.095  0.5895  0.3099 -0.3457
   48TAL   C237 8181   8.055  -1.767   7.020 -0.4091  1.0597 -0.0751
   48TAL   C238 8182   7.988  -1.784   6.886 -0.5776 -1.3640 -0.2965
   48TAL   C239 8183   7.905  -1.904   6.845  0.3619  0.0749 -0.0069
   48TAL   C240 8184   7.991  -2.033   6.841  0.5604  0.6309 -0.8535
    1HTM     C1 8185   4.045   8.407   2.801  0.3685  0.0670  0.0184
    1HTM     C2 8186   4.005   8.282   2.837  0.2741  0.0000 -0.3121
    1HTM     C3 8187   3.989   8.265   2.979 -0.0767 -0.2642 -0.3806
    1HTM     C4 8188   4.017   8.377   3.051 -0.2495 -0.3986 -0.1023
    1HTM     S1 8189   4.066   8.514   2.945  0.0191 -0.2008  0.2707
    2TAL     C5 8190   3.924   8.140   3.040  0.3213 -0.3497  0.0233
    2TAL     C6 8191   3.834   8.051   2.952 -0.7089 -0.4735 -0.6649
    2TAL     C7 8192   3.697   8.114   2.933 -0.5048  0.4354 -0.2446
    2TAL     C8 8193   3.600   8.010   2.910  0.8833 -0.4631 -0.8294
    2TAL     C9 8194   3.459   8.056   2.887 -0.3804 -0.6417  0.7012
    2TAL    C10 8195   3.367   7.951   2.819 -0.0916  0.5142 -0.8424
    3HTM    C11 8196   4.040   8.396   3.199  0.9178  0.4474  0.3408
    3HTM    C12 8197   4.125   8.479   3.265  1.1333 -0.1097  0.7780
    3HTM    C13 8198   4.109   8.477   3.408  0.9068 -0.5672  0.7510
    3HTM    C14 8199   4.011   8.393   3.451  0.5184 -0.3594  0.2932
    3HTM     S2 8200   3.931   8.308   3.313  0.4079  0.4368 -0.1427
    4TAL    C15 8201   4.198   8.557   3.496 -0.0689 -0.7007  0.0898
    4TAL    C16 8202   4.329   8.489   3.501 -0.9337  0.8004  0.8803
    4TAL    C17 8203   4.417   8.562   3.594  0.1855  0.8485 -0.4869
    4TAL    C18 8204   4.554   8.537   3.551 -0.8027 -0.4221 -0.1201
    4TAL    C19 8205   4.658   8.623   3.619  0.3136  0.9427  0.2042
    4TAL    C20 8206   4.699   8.610   3.767 -0.2254  0.0371 -0.2973
    5HTM    C21 8207   3.947   8.353   3.575  0.3549  1.0615 -0.5302
    5HTM    C22 8208   3.826   8.293   3.594  0.4795  0.7243 -0.7818
    5HTM    C23 8209   3.790   8.280   3.733  0.4171  0.2356 -0.8402
    5HTM    C24 8210   3.882   8.330   3.819  0.2449  0.1997 -0.6331
    5HTM     S3 8211   4.024   8.398   3.731  0.1475  0.7854 -0.3460
    6TAL    C25 8212   3.649   8.228   3.764  1.6382 -0.3408  0.1689
    6TAL    C26 8213   3.527   8.262   3.666 -0.4623  0.2090 -0.3995
    6TAL    C27 8214   3.387   8.218   3.694  0.3360 -0.0813 -0.8946
    6TAL    C28 8215   3.319   8.292   3.821  0.8549 -0.0767  0.4940
    6TAL    C29 8216   3.167   8.246   3.831 -1.7406  0.0730  1.2498
    6TAL    C30 8217   3.136   8.107   3.884 -0.5968  0.1098  0.2195
    7HTM    C31 8218   3.894   8.334   3.967  0.2888  0.4864 -0.0317
    7HTM    C32 8219   4.011   8.334   4.036  0.1615  0.1817  0.1872
    7HTM    C33 8220   3.994   8.322   4.179 -0.1127 -0.1874  0.1273
    7HTM    C34 8221   3.863   8.314   4.218 -0.1944 -0.1643 -0.1372
    7HTM     S4 8222   3.751   8.319   4.077  0.0705  0.3295 -0.3327
    8TAL    C35 8223   4.111   8.351   4.270 -0.2903 -0.3140  0.5124
    8TAL    C36 8224   4.199   8.230   4.303  0.4736  0.9562 -0.0644
    8TAL    C37 8225   4.132   8.124   4.384 -1.6501  0.6868  0.9730
    8TAL    C38 8226   4.179   7.976   4.384  0.6336 -0.2813 -0.1321
    8TAL    C39 8227   4.117   7.885   4.280  0.0270 -0.0123 -0.2221
    8TAL    C40 8228   3.962   7.877   4.255 -0.6813 -0.5673 -0.0540
    9HTM    C41 8229   3.804   8.280   4.340  0.1000 -0.0713  0.3135
    9HTM    C42 8230   3.736   8.167   4.375  0.5063 -0.2835  0.4271
    9HTM    C43 8231   3.714   8.154   4.516  0.6585 -0.2847  0.4518
    9HTM    C44 8232   3.764   8.258   4.589  0.3681 -0.0734  0.3568
    9HTM     S5 8233   3.845   8.380   4.484 -0.1238  0.1453  0.2282
   10TAL    C45 8234   3.643   8.031   4.581 -0.4616  0.1858  0.6322
   10TAL    C46 8235   3.722   7.904   4.577  0.3934 -0.1272  0.8791
   10TAL    C47 8236   3.647   7.778   4.636  0.4252  0.1737 -0.4666
   10TAL    C48 8237   3.609   7.769   4.799 -0.3311 -0.1538  0.8800
   10TAL    C49 8238   3.715   7.846   4.882 -1.6289 -0.7097  0.4139
   10TAL    C50 8239   3.836   7.772   4.927 -0.4769  0.8495  0.0319
   11HTM    C51 8240   3.755   8.283   4.737 -0.7558 -0.1065  0.2969
   11HTM    C52 8241   3.798   8.208   4.842 -0.4719  0.1907  0.3982
   11HTM    C53 8242   3.773   8.267   4.971 -0.0843  0.5751  0.3008
   11HTM    C54 8243   3.711   8.388   4.964 -0.0727  0.5708  0.1251
   11HTM     S6 8244   3.679   8.437   4.793 -0.5542  0.0779  0.0688
   12TAL    C55 8245   3.824   8.195   5.100  0.5297  0.1830 -0.1138
   12TAL    C56 8246   3.988   8.160   5.098  1.0265  0.4219  0.6183
   12TAL    C57 8247   4.084   8.266   5.048 -0.2308  0.0014  0.7019
   12TAL    C58 8248   4.097   8.391   5.140 -0.9275 -0.3996 -0.0750
   12TAL    C59 8249   4.183   8.512   5.104 -0.8967  2.1294 -0.1237
   12TAL    C60 8250   4.274   8.570   5.209  0.0144  0.6576 -0.5517
   13HTM    C61 8251   3.662   8.476   5.061 -0.3343 -0.3701  0.2382
   13HTM    C62 8252   3.532   8.518   5.069 -0.3179 -0.3901  0.6529
   13HTM    C63 8253   3.496   8.571   5.198  0.1212 -0.2847  0.7358
   13HTM    C64 8254   3.598   8.569   5.289  0.4395 -0.1846  0.3845
   13HTM     S7 8255   3.749   8.500   5.217  0.2076 -0.2155 -0.0820
   14TAL    C65 8256   3.358   8.638   5.213 -0.3192  0.2496  0.6703
   14TAL    C66 8257   3.236   8.614   5.120 -0.7053 -0.3136  0.3332
   14TAL    C67 8258   3.188   8.470   5.119 -1.4879  0.8097  0.2170
   14TAL    C68 8259   3.092   8.456   5.002 -0.9713  0.9172  1.3308
   14TAL    C69 8260   3.010   8.325   4.988 -0.6735  0.0149  1.0656
   14TAL    C70 8261   2.887   8.333   5.067  0.1552  0.6653 -0.4958
   15HTM    C71 8262   3.603   8.629   5.419 -0.5198 -0.1765 -0.1193
   15HTM    C72 8263   3.499   8.618   5.507 -0.4170 -0.2460 -0.0052
   15HTM    C73 8264   3.524   8.680   5.634 -0.1717 -0.5612  0.1030
   15HTM    C74 8265   3.647   8.738   5.644 -0.0874 -0.7323  0.0711
   15HTM     S8 8266   3.742   8.719   5.492 -0.3131 -0.5064 -0.0989
   16TAL    C75 8267   3.414   8.669   5.741  0.3897  0.8086 -0.5647
   16TAL    C76 8268   3.301   8.772   5.750  0.3768  0.3800 -0.1665
   16TAL    C77 8269   3.223   8.782   5.619 -0.5717  0.0736 -0.0923
   16TAL    C78 8270   3.069   8.761   5.623  0.4918  0.5504 -0.7271
   16TAL    C79 8271   3.043   8.703   5.488  0.0095 -0.0329  0.1432
   16TAL    C80 8272   2.911   8.627   5.502  0.6530 -0.3818  0.1350
   17HTM    C81 8273   3.718   8.809   5.749  0.0398 -0.4663  0.2973
   17HTM    C82 8274   3.678   8.837   5.877 -0.0272 -0.1798  0.2141
   17HTM    C83 8275   3.783   8.892   5.959 -0.1258  0.2024  0.0865
   17HTM    C84 8276   3.902   8.906   5.894 -0.1339  0.2070  0.0725
   17HTM     S9 8277   3.892   8.850   5.723 -0.0169 -0.2741  0.2205
   18TAL    C85 8278   3.759   8.962   6.093 -0.0048 -0.1761 -1.6699
   18TAL    C86 8279   3.670   8.891   6.200 -0.5576  0.6476 -0.0562
   18TAL    C87 8280   3.716   8.754   6.242 -0.5579 -0.1884 -0.3567
   18TAL    C88 8281   3.608   8.656   6.299  0.4547  0.8059 -0.3428
   18TAL    C89 8282   3.498   8.608   6.199 -0.5639  0.2022  0.0541
   18TAL    C90 8283   3.415   8.494   6.256  0.3130  0.7368  0.2151
   19HTM    C91 8284   4.027   8.955   5.946 -0.5246 -0.0771  0.4174
   19HTM    C92 8285   4.119   9.008   5.861 -0.9090 -0.4389 -0.2389
   19HTM    C93 8286   4.234   9.063   5.927 -0.6377 -0.0718 -0.9930
   19HTM    C94 8287   4.230   9.052   6.063 -0.0462  0.5698 -0.9116
   19HTM    S10 8288   4.079   8.971   6.118  0.2159  0.7615  0.1318
   20TAL    C95 8289   4.332   9.137   5.850 -0.2218 -0.2063  0.9118
   20TAL    C96 8290   4.299   9.282   5.865 -0.6427  0.6214 -0.4435
   20TAL    C97 8291   4.397   9.376   5.794  1.3332  0.1928  0.3003
   20TAL    C98 8292   4.527   9.412   5.858 -0.7774 -0.5694 -0.3168
   20TAL    C99 8293   4.625   9.457   5.750  0.3435 -0.4395 -0.5128
   20TAL   C100 8294   4.760   9.412   5.784  0.8254  0.5193  0.7235
   21HTM   C101 8295   4.331   9.087   6.170  0.7168  0.0535 -0.6517
   21HTM   C102 8296   4.398   8.990   6.239  1.2810  0.0153 -1.2481
   21HTM   C103 8297   4.510   9.040   6.314  1.1100  0.1769 -1.0995
   21HTM   C104 8298   4.528   9.175   6.303  0.4152  0.3392 -0.3893
   21HTM    S11 8299   4.403   9.250   6.196 -0.0807  0.2994  0.1507
   22TAL   C105 8300   4.610   8.942   6.391  0.0954 -0.2808 -0.3903
   22TAL   C106 8301   4.574   8.883   6.529  0.1919  0.2815  0.5842
   22TAL   C107 8302   4.667   8.760   6.583 -0.2642  0.1696  0.1639
   22TAL   C108 8303   4.649   8.632   6.495 -0.3874  0.4050  0.5269
   22TAL   C109 8304   4.706   8.511   6.565 -0.2961  0.3320  0.4872
   22TAL   C110 8305   4.841   8.461   6.520  0.5976 -0.2638  0.6431
   23HTM   C111 8306   4.630   9.266   6.362  0.1483  0.0904 -0.1445
   23HTM   C112 8307   4.696   9.370   6.304  0.1414  0.1009 -0.1336
   23HTM   C113 8308   4.783   9.440   6.395  0.0504  0.1674 -0.0979
   23HTM   C114 8309   4.783   9.389   6.521 -0.0119  0.2082 -0.0813
   23HTM    S12 8310   4.672   9.248   6.536  0.0397  0.1647 -0.1103
   24TAL   C115 8311   4.860   9.571   6.365  0.7314  0.6851 -1.0274
   24TAL   C116 8312   4.979   9.560   6.273 -0.0771  0.1953  1.0313
   24TAL   C117 8313   5.022   9.684   6.197  0.5220  0.5539  0.9509
   24TAL   C118 8314   5.063   9.810   6.271 -1.3719 -0.7532  1.2341
   24TAL   C119 8315   5.148   9.784   6.392  0.0964 -0.1565  0.2689
   24TAL   C120 8316   5.198   9.898   6.466  0.0098  0.1223 -0.0193
   25HTM   C121 8317   4.839   9.439   6.646 -0.2838 -0.5777  0.1975
   25HTM   C122 8318   4.761   9.473   6.752 -0.4979 -0.8013  0.1159
   25HTM   C123 8319   4.837   9.507   6.870 -0.7091 -0.3707  0.1315
   25HTM   C124 8320   4.972   9.498   6.854 -0.6558  0.1811  0.2250
   25HTM    S13 8321   5.015   9.446   6.687 -0.3323  0.2000  0.3011
   26TAL   C125 8322   4.757   9.545   6.997  0.2007  0.3658 -0.3201
   26TAL   C126 8323   4.832   9.594   7.126 -0.2797  0.2570  0.1357
   26TAL   C127 8324   4.770   9.593   7.266  0.9271 -0.9267  1.0537
   26TAL   C128 8325   4.727   9.452   7.308 -0.0675  1.1580  0.6476
   26TAL   C129 8326   4.680   9.456   7.448  0.2978 -0.5792 -0.8979
   26TAL   C130 8327   4.635   9.319   7.509 -0.0765  0.4358  0.4652
   27HTM   C131 8328   5.089   9.516   6.940 -0.3485  0.4309 -0.1011
   27HTM   C132 8329   5.151   9.413   7.005 -0.2298  0.4671 -0.1587
   27HTM   C133 8330   5.252   9.456   7.098 -0.0851  0.5205 -0.3395
   27HTM   C134 8331   5.267   9.592   7.104 -0.0935  0.5253 -0.4199
   27HTM    S14 8332   5.153   9.676   6.992 -0.2862  0.4619 -0.2723
   28TAL   C135 8333   5.339   9.356   7.173  0.9260 -0.2842 -0.0139
   28TAL   C136 8334   5.478   9.330   7.125 -0.4987  0.3074 -0.6039
   28TAL   C137 8335   5.558   9.208   7.200  0.4311 -0.4015 -0.6456
   28TAL   C138 8336   5.624   9.254   7.334  0.2883 -0.5492  1.0053
   28TAL   C139 8337   5.724   9.371   7.334 -0.9628 -0.3541 -0.8208
   28TAL   C140 8338   5.730   9.442   7.473  0.2291 -0.0400 -0.3077
   29HTM   C141 8339   5.346   9.667   7.203  0.1296 -0.2087 -0.1727
   29HTM   C142 8340   5.389   9.642   7.330  0.5199 -0.4849 -0.3545
   29HTM   C143 8341   5.456   9.754   7.392  0.8899 -0.6855 -0.3879
   29HTM   C144 8342   5.464   9.864   7.311  0.7818 -0.5626 -0.2317
   29HTM    S15 8343   5.387   9.835   7.151  0.1998 -0.1806 -0.0287
   30TAL   C145 8344   5.523   9.749   7.531 -0.8851 -0.2477  0.9738
   30TAL   C146 8345   5.428   9.784   7.649  0.3651  0.7850  0.3606
   30TAL   C147 8346   5.499   9.773   7.770 -0.2727  0.6434 -1.1634
   30TAL   C148 8347   5.411   9.805   7.894  0.6355  0.4606  0.0969
   30TAL   C149 8348   5.459   9.738   8.026  0.4149 -1.4348  0.5399
   30TAL   C150 8349   5.350   9.753   8.132 -0.5681  0.7819  0.0735
   31HTM   C151 8350   5.530   9.999   7.336 -0.1330  0.3722  0.3670
   31HTM   C152 8351   5.474  10.107   7.397  0.2198  0.5504  0.3822
   31HTM   C153 8352   5.562  10.221   7.405  0.4050  0.4498 -0.1098
   31HTM   C154 8353   5.685  10.200   7.351  0.1930  0.1949 -0.4999
   31HTM    S16 8354   5.700  10.033   7.284 -0.2600  0.0611 -0.2745
   32TAL   C155 8355   5.521  10.334   7.493  0.3254  0.0536  0.3399
   32TAL   C156 8356   5.413  10.415   7.445  0.5670 -0.7909  0.8652
   32TAL   C157 8357   5.409  10.534   7.525 -0.2859  0.2033  0.2456
   32TAL   C158 8358   5.337  10.644   7.450 -0.5578  0.5192 -0.7937
   32TAL   C159 8359   5.417  10.771   7.407 -0.2249  0.3093 -0.3722
   32TAL   C160 8360   5.341  10.896   7.422  0.0616 -0.5301  0.1805
   33HTM   C161 8361   5.809  10.266   7.390  0.3986 -0.0440  0.3741
   33HTM   C162 8362   5.910  10.224   7.470  0.9583 -0.2664 -0.4197
   33HTM   C163 8363   6.020  10.317   7.480  1.0399 -0.3042 -0.9267
   33HTM   C164 8364   6.002  10.430   7.407  0.5421 -0.1105 -0.5197
   33HTM    S17 8365   5.844  10.428   7.319 -0.0729  0.1365  0.5436
   34TAL   C165 8366   6.149  10.269   7.537 -0.2301  0.2894 -0.7219
   34TAL   C166 8367   6.255  10.231   7.431 -0.8830  0.3097 -0.6335
   34TAL   C167 8368   6.253  10.110   7.330  0.4393  0.6428  0.3965
   34TAL   C168 8369   6.379  10.059   7.271 -0.3829 -0.5589  0.3741
   34TAL   C169 8370   6.375   9.954   7.159  0.1130  0.2511 -1.1892
   34TAL   C170 8371   6.298   9.826   7.172  0.1650  0.1369  1.3994
   35HTM   C171 8372   6.079  10.553   7.398  0.0297  0.1158  0.0236
   35HTM   C172 8373   6.100  10.617   7.280  0.3119 -0.0636 -0.0242
   35HTM   C173 8374   6.196  10.724   7.289  0.2534 -0.0177  0.0523
   35HTM   C174 8375   6.247  10.742   7.414 -0.0729  0.1968  0.1586
   35HTM    S18 8376   6.178  10.624   7.531 -0.3342  0.3586  0.1702
   36TAL   C175 8377   6.241  10.806   7.166 -0.3166  0.2821  0.5487
   36TAL   C176 8378   6.335  10.734   7.064 -0.6177  0.3715 -0.5493
   36TAL   C177 8379   6.367  10.826   6.956  0.0672 -0.3798  0.1062
   36TAL   C178 8380   6.463  10.956   6.969 -0.1499  0.5210  0.0536
   36TAL   C179 8381   6.588  10.948   7.048 -0.6408 -1.1460  1.4057
   36TAL   C180 8382   6.654  11.092   7.027  0.1676 -0.3050 -1.1241
   37HTM   C181 8383   6.357  10.838   7.451  0.1090  0.3956 -0.3254
   37HTM   C182 8384   6.488  10.807   7.472 -0.0200  0.3610  0.5244
   37HTM   C183 8385   6.573  10.922   7.485 -0.0465  0.3394  0.8955
   37HTM   C184 8386   6.507  11.041   7.475  0.0625  0.3575  0.3288
   37HTM    S19 8387   6.331  11.016   7.447  0.2082  0.4036 -0.7258
   38TAL   C185 8388   6.727  10.902   7.495 -0.8439  0.7956  0.2794
   38TAL   C186 8389   6.802  10.768   7.472 -0.7310 -0.7533  0.8145
   38TAL   C187 8390   6.782  10.702   7.333 -0.5412  0.4472  0.1291
   38TAL   C188 8391   6.829  10.559   7.311 -0.5853  0.1104 -0.1611
   38TAL   C189 8392   6.773  10.483   7.197 -0.0379  0.2703  1.1953
   38TAL   C190 8393   6.613  10.466   7.182  0.5691 -0.1857  0.3278
   39HTM   C191 8394   6.562  11.180   7.483  0.2478  0.7348 -0.2511
   39HTM   C192 8395   6.529  11.283   7.400  0.9887  0.7638 -0.5269
   39HTM   C193 8396   6.588  11.409   7.438  1.1405  0.6274 -0.3068
   39HTM   C194 8397   6.667  11.401   7.549  0.5155  0.4943  0.1365
   39HTM    S20 8398   6.672  11.234   7.615 -0.3198  0.5314  0.3122
   40TAL   C195 8399   6.553  11.523   7.341  0.5887 -0.0622 -0.0769
   40TAL   C196 8400   6.632  11.537   7.206  0.4675 -0.3753 -0.5686
   40TAL   C197 8401   6.559  11.623   7.110  1.3410 -0.7060 -0.6195
   40TAL   C198 8402   6.652  11.617   6.992  0.5104 -0.8757  0.7869
   40TAL   C199 8403   6.623  11.683   6.857  0.1850 -0.9706 -0.0399
   40TAL   C200 8404   6.767  11.708   6.799  0.5857 -0.3345 -0.8971
   41HTM   C201 8405   6.748  11.507   7.601 -0.0324 -0.1137  0.0862
   41HTM   C202 8406   6.802  11.513   7.726  0.0169 -0.0059  0.0606
   41HTM   C203 8407   6.888  11.626   7.747  0.0052  0.0261 -0.0633
   41HTM   C204 8408   6.899  11.708   7.638 -0.0528 -0.0573 -0.1320
   41HTM    S21 8409   6.802  11.646   7.499 -0.0979 -0.1837 -0.0450
   42TAL   C205 8410   6.940  11.657   7.881 -0.0863 -0.7486  0.1910
   42TAL   C206 8411   6.866  11.613   8.001  0.1416  1.0446 -0.0504
   42TAL   C207 8412   6.903  11.661   8.142 -0.0489  0.5334  0.7572
   42TAL   C208 8413   6.909  11.804   8.164 -0.5308  0.4371 -0.1192
   42TAL   C209 8414   6.921  11.832   8.321 -0.1064 -0.5252  0.4623
   42TAL   C210 8415   6.953  11.982   8.350 -0.5809 -0.5405  0.3607
   43HTM   C211 8416   6.972  11.837   7.614  0.5541  0.0423 -0.0203
   43HTM   C212 8417   7.073  11.901   7.681  0.8589 -0.0192 -0.4191
   43HTM   C213 8418   7.099  12.034   7.633  0.8720 -0.1017 -0.6428
   43HTM   C214 8419   7.019  12.072   7.530  0.5774 -0.1031 -0.4145
   43HTM    S22 8420   6.902  11.942   7.485  0.2578  0.0005  0.1047
   44TAL   C215 8421   7.185  12.133   7.723  0.8315 -0.5645  0.8602
   44TAL   C216 8422   7.121  12.175   7.856  0.7097  0.5022 -0.3858
   44TAL   C217 8423   7.178  12.304   7.930  0.3195  1.0082  0.2218
   44TAL   C218 8424   7.155  12.307   8.078 -0.6114  0.6656  0.2302
   44TAL   C219 8425   7.277  12.382   8.150  0.4489  1.1888  0.3157
   44TAL   C220 8426   7.298  12.346   8.291 -0.4265  0.1534 -1.4828
   45HTM   C221 8427   6.989  12.195   7.464 -0.0345  0.4074  1.1946
   45HTM   C222 8428   6.876  12.218   7.391 -0.2488  0.1555  1.4390
   45HTM   C223 8429   6.874  12.348   7.328 -0.2820 -0.1709  0.7465
   45HTM   C224 8430   6.984  12.423   7.354 -0.0927 -0.1678 -0.0260
   45HTM    S23 8431   7.101  12.336   7.460  0.1438  0.2507  0.0619
   46TAL   C225 8432   6.773  12.375   7.224 -0.1721 -0.8939 -0.5192
   46TAL   C226 8433   6.634  12.420   7.278 -0.3671  0.9012  0.1469
   46TAL   C227 8434   6.545  12.442   7.157 -0.1577 -0.1002  0.1557
   46TAL   C228 8435   6.397  12.435   7.185  0.4660 -0.2543  0.4470
   46TAL   C229 8436   6.352  12.545   7.292  0.7897  0.0965  0.0340
   46TAL   C230 8437   6.199  12.566   7.301 -1.0954  0.3752  0.2820
   47HTM   C231 8438   7.032  12.551   7.297 -0.3834  0.7955 -0.0777
   47HTM   C232 8439   6.991  12.621   7.187 -0.6006  1.2627  0.2919
   47HTM   C233 8440   7.051  12.751   7.176 -0.3443  1.1680  0.5351
   47HTM   C234 8441   7.137  12.781   7.277  0.0685  0.6286  0.3514
   47HTM    S24 8442   7.150  12.646   7.395  0.1661  0.1951 -0.1471
   48TAL   C235 8443   7.015  12.832   7.049 -0.6002 -0.1035 -0.8493
   48TAL   C236 8444   7.092  12.965   7.030 -0.0031  0.0020  0.9878
   48TAL   C237 8445   7.022  13.067   6.922  0.6413  0.3885  0.2886
   48TAL   C238 8446   6.867  13.084   6.927 -0.1800  0.0197  0.0017
   48TAL   C239 8447   6.794  13.202   6.986  0.1256  0.6210 -0.2873
   48TAL   C240 8448   6.646  13.190   7.022  0.2848  0.0204  0.1980
    1HTM     C1 8449   2.053   0.298   7.338 -0.2954 -0.3174 -0.2339
    1HTM     C2 8450   2.167   0.296   7.262 -0.3329 -0.4014 -0.2880
    1HTM     C3 8451   2.286   0.268   7.338 -0.2391  0.1169 -0.2429
    1HTM     C4 8452   2.264   0.250   7.471 -0.1300  0.5961 -0.1544
    1HTM     S1 8453   2.089   0.266   7.512 -0.1374  0.4286 -0.1209
    2TAL     C5 8454   2.434   0.272   7.288  0.9515  0.0992  0.3158
    2TAL     C6 8455   2.450   0.335   7.155  0.2818  0.4664  0.1016
    2TAL     C7 8456   2.592   0.381   7.109  1.4968  0.1855  0.2823
    2TAL     C8 8457   2.671   0.470   7.200  0.4493  0.3540  0.3309
    2TAL     C9 8458   2.815   0.495   7.163  1.0144  2.1172  0.8458
    2TAL    C10 8459   2.895   0.544   7.288  0.6145 -0.4631  0.2982
    3HTM    C11 8460   2.357   0.234   7.588 -0.0332  0.7106  0.0788
    3HTM    C12 8461   2.339   0.122   7.664 -0.3223  1.0222  0.4767
    3HTM    C13 8462   2.456   0.084   7.739 -0.4046  0.9614  0.5739
    3HTM    C14 8463   2.563   0.167   7.721 -0.1782  0.6035  0.2501
    3HTM     S2 8464   2.524   0.300   7.605  0.1592  0.3132 -0.2063
    4TAL    C15 8465   2.481  -0.037   7.840  1.1661 -0.2468 -0.0916
    4TAL    C16 8466   2.490  -0.160   7.750  0.3478 -0.2856  0.5133
    4TAL    C17 8467   2.539  -0.283   7.839  0.4999  0.0926 -0.6071
    4TAL    C18 8468   2.550  -0.415   7.760  0.4466 -0.0013  0.4819
    4TAL    C19 8469   2.606  -0.549   7.828 -0.9425  0.6347 -0.7875
    4TAL    C20 8470   2.749  -0.535   7.878 -1.5220  0.5854  1.4139
    5HTM    C21 8471   2.699   0.162   7.765 -0.0431 -0.1088  0.0061
    5HTM    C22 8472   2.770   0.072   7.838 -0.0997 -0.2244 -0.0817
    5HTM    C23 8473   2.908   0.109   7.858 -0.0852 -0.3128 -0.0160
    5HTM    C24 8474   2.942   0.227   7.800 -0.0176 -0.2648  0.1219
    5HTM     S3 8475   2.801   0.303   7.716  0.0335 -0.1028  0.1800
    6TAL    C25 8476   3.000   0.012   7.924 -0.5068 -0.8083 -0.4530
    6TAL    C26 8477   2.948  -0.118   7.983  0.2823 -0.1025  0.0546
    6TAL    C27 8478   3.005  -0.244   7.915 -1.0522  0.6359  0.0607
    6TAL    C28 8479   3.145  -0.294   7.958  0.3393  0.4211  0.1188
    6TAL    C29 8480   3.162  -0.333   8.107 -1.3068  0.0221  0.9649
    6TAL    C30 8481   3.302  -0.403   8.128 -0.1820 -1.1022  0.6032
    7HTM    C31 8482   3.060   0.301   7.796 -0.2676 -0.0526 -0.6154
    7HTM    C32 8483   3.165   0.319   7.880 -0.8649  0.1593  0.1035
    7HTM    C33 8484   3.263   0.413   7.831 -0.6033  0.1806  0.6524
    7HTM    C34 8485   3.232   0.466   7.710  0.1935 -0.0151  0.3519
    7HTM     S4 8486   3.076   0.401   7.647  0.6790 -0.2431 -0.6555
    8TAL    C35 8487   3.390   0.451   7.920  0.1511 -0.2193 -0.3968
    8TAL    C36 8488   3.515   0.366   7.926  0.2827  0.4189 -0.7272
    8TAL    C37 8489   3.523   0.224   7.972 -0.4113  0.6087  0.1079
    8TAL    C38 8490   3.429   0.179   8.081  0.8883  0.6767  0.1211
    8TAL    C39 8491   3.398   0.031   8.068  0.8235  0.2133 -0.3150
    8TAL    C40 8492   3.319  -0.006   8.193 -0.4245 -0.3339  0.1936
    9HTM    C41 8493   3.321   0.534   7.620 -0.0142  0.1898  0.0338
    9HTM    C42 8494   3.307   0.520   7.485  0.5769 -0.3357  0.0169
    9HTM    C43 8495   3.395   0.604   7.408  0.9121 -0.6332  0.0757
    9HTM    C44 8496   3.477   0.681   7.484  0.5765 -0.3345  0.1372
    9HTM     S5 8497   3.449   0.655   7.661 -0.1948  0.3510  0.1258
   10TAL    C45 8498   3.360   0.615   7.262 -0.3310 -0.1214  0.5517
   10TAL    C46 8499   3.461   0.542   7.162 -0.7682  1.4164 -0.3230
   10TAL    C47 8500   3.557   0.427   7.216  1.0784 -0.6557 -1.2021
   10TAL    C48 8501   3.601   0.319   7.120  0.1721 -0.2944 -0.3390
   10TAL    C49 8502   3.677   0.196   7.169 -1.0167 -0.3762  0.2096
   10TAL    C50 8503   3.786   0.226   7.268  0.3962  0.3209 -0.3301
   11HTM    C51 8504   3.589   0.766   7.439  0.2206  0.2261 -0.2687
   11HTM    C52 8505   3.712   0.788   7.495  0.3376  0.0814 -0.4652
   11HTM    C53 8506   3.799   0.869   7.413  0.2766  0.0377 -0.5736
   11HTM    C54 8507   3.743   0.908   7.295  0.1130  0.1492 -0.4597
   11HTM     S6 8508   3.574   0.845   7.278  0.0228  0.3192 -0.2048
   12TAL    C55 8509   3.922   0.939   7.449 -0.3447 -0.1671 -0.4497
   12TAL    C56 8510   3.911   0.998   7.585 -0.2629 -0.0175 -0.3108
   12TAL    C57 8511   3.883   0.933   7.720  0.3635 -0.4156  0.1064
   12TAL    C58 8512   3.955   0.819   7.768  0.2486 -0.3694  0.2724
   12TAL    C59 8513   3.881   0.776   7.892 -0.9391  0.5922 -0.1352
   12TAL    C60 8514   3.884   0.628   7.881  0.2672 -0.0326 -0.6094
   13HTM    C61 8515   3.794   0.986   7.183 -0.1983 -0.1511 -0.3402
   13HTM    C62 8516   3.868   0.928   7.084  0.0896 -0.1374 -0.1358
   13HTM    C63 8517   3.926   1.022   6.992  0.2934 -0.1295 -0.0010
   13HTM    C64 8518   3.896   1.152   7.020  0.1607 -0.1370 -0.1029
   13HTM     S7 8519   3.792   1.166   7.167 -0.2349 -0.1549 -0.3790
   14TAL    C65 8520   3.984   0.964   6.875  0.1933  0.8176  0.2748
   14TAL    C66 8521   4.102   0.879   6.878 -0.1807 -0.6598 -0.5801
   14TAL    C67 8522   4.244   0.921   6.920  0.4596  0.6733 -0.0907
   14TAL    C68 8523   4.354   0.817   6.943  0.1891  0.7083 -0.0333
   14TAL    C69 8524   4.383   0.715   6.827  0.4204 -0.4462 -0.3462
   14TAL    C70 8525   4.512   0.752   6.751  0.6232  0.2528  0.4831
   15HTM    C71 8526   3.911   1.277   6.940 -0.0723  0.1313  0.1499
   15HTM    C72 8527   3.867   1.400   6.979 -0.2379  0.1172  0.0089
   15HTM    C73 8528   3.912   1.507   6.894 -0.4010  0.0789 -0.1272
   15HTM    C74 8529   3.990   1.466   6.791 -0.3597  0.0638 -0.0900
   15HTM     S8 8530   4.014   1.288   6.792 -0.1099  0.0972  0.1213
   16TAL    C75 8531   3.854   1.638   6.920  0.1181 -0.7767 -1.0944
   16TAL    C76 8532   3.881   1.690   7.066 -0.9041  0.9023 -0.2086
   16TAL    C77 8533   3.901   1.845   7.067  1.0022  0.4303 -0.1723
   16TAL    C78 8534   3.930   1.909   7.205  0.3160 -0.1079 -0.5676
   16TAL    C79 8535   3.920   2.064   7.215 -0.5761 -0.5908  0.7082
   16TAL    C80 8536   3.924   2.108   7.366  0.6138  0.3902  0.1517
   17HTM    C81 8537   4.042   1.550   6.690 -0.6842  0.0143  0.2901
   17HTM    C82 8538   4.002   1.558   6.560 -1.3198  0.3245  0.4933
   17HTM    C83 8539   4.076   1.655   6.483 -1.5724  0.3808  0.3206
   17HTM    C84 8540   4.171   1.721   6.554 -1.1295  0.1136 -0.0143
   17HTM     S9 8541   4.176   1.665   6.726 -0.3530 -0.2326 -0.1383
   18TAL    C85 8542   4.033   1.673   6.336 -0.3281 -0.2690 -0.0771
   18TAL    C86 8543   4.147   1.688   6.227  1.3191 -0.1050  0.1184
   18TAL    C87 8544   4.118   1.750   6.086 -0.1767  0.8404  0.0503
   18TAL    C88 8545   4.245   1.739   5.999  0.1113 -1.2053 -0.9501
   18TAL    C89 8546   4.243   1.826   5.874  0.5814 -0.2781  0.3048
   18TAL    C90 8547   4.134   1.814   5.775 -0.1174 -0.2218 -0.1183
   19HTM    C91 8548   4.267   1.827   6.517 -0.1720 -0.0913  0.4354
   19HTM    C92 8549   4.381   1.806   6.445  0.3349 -0.4262  1.3038
   19HTM    C93 8550   4.473   1.917   6.450  0.4661 -0.5507  1.7179
   19HTM    C94 8551   4.429   2.021   6.526  0.0590 -0.3108  1.1653
   19HTM    S10 8552   4.267   1.988   6.597 -0.5260  0.0941  0.0705
   20TAL    C95 8553   4.611   1.912   6.377 -0.7317 -0.1196 -0.3846
   20TAL    C96 8554   4.681   2.014   6.289 -2.1988 -0.2764  0.3512
   20TAL    C97 8555   4.625   2.038   6.153 -0.3022 -1.3972 -0.3706
   20TAL    C98 8556   4.736   2.141   6.091  0.8817  1.3844 -0.4462
   20TAL    C99 8557   4.707   2.207   5.955 -0.6247 -0.4230  0.4086
   20TAL   C100 8558   4.586   2.300   5.945  0.5222  0.5008 -0.0747
   21HTM   C101 8559   4.483   2.148   6.550 -0.6331  0.3090  0.1932
   21HTM   C102 8560   4.553   2.185   6.660 -1.1867  0.5646  0.4719
   21HTM   C103 8561   4.617   2.313   6.648 -0.8265  0.3771  0.3442
   21HTM   C104 8562   4.595   2.375   6.529  0.0017 -0.0216 -0.0323
   21HTM    S11 8563   4.491   2.275   6.421  0.3939 -0.1922 -0.2562
   22TAL   C105 8564   4.727   2.342   6.740  0.8626 -0.3079  0.5288
   22TAL   C106 8565   4.870   2.278   6.728  0.2779 -1.6338 -0.1443
   22TAL   C107 8566   4.904   2.158   6.821  0.5367 -0.0234 -0.2420
   22TAL   C108 8567   4.933   2.017   6.765  0.8187  0.9309  0.3990
   22TAL   C109 8568   5.012   1.941   6.872 -0.1461 -0.0577  0.6647
   22TAL   C110 8569   5.076   1.808   6.831  0.8455  0.5577 -0.6342
   23HTM   C111 8570   4.642   2.497   6.476  0.0586 -0.0721  0.2099
   23HTM   C112 8571   4.584   2.562   6.371 -0.1091 -0.0792  0.2971
   23HTM   C113 8572   4.638   2.694   6.349 -0.2471 -0.0237  0.2940
   23HTM   C114 8573   4.736   2.730   6.437 -0.1846  0.0255  0.2046
   23HTM    S12 8574   4.769   2.598   6.556  0.0554  0.0055  0.1165
   24TAL   C115 8575   4.603   2.785   6.232  0.0566 -0.3186 -0.0609
   24TAL   C116 8576   4.568   2.709   6.104 -0.8761  0.6729 -0.3587
   24TAL   C117 8577   4.479   2.777   6.002  0.6572 -0.7655  0.6564
   24TAL   C118 8578   4.427   2.693   5.880  0.5427  0.0223  0.2951
   24TAL   C119 8579   4.334   2.776   5.789 -0.1036 -1.0649  0.0419
   24TAL   C120 8580   4.407   2.885   5.718 -0.5467 -0.1249 -0.1712
   25HTM   C121 8581   4.788   2.865   6.468 -0.6758  0.1315 -0.2317
   25HTM   C122 8582   4.818   2.904   6.595 -1.3589  0.2896 -0.1116
   25HTM   C123 8583   4.888   3.029   6.602 -1.1925  0.1868  0.0900
   25HTM   C124 8584   4.911   3.086   6.480 -0.3824 -0.0497  0.1237
   25HTM    S13 8585   4.846   2.985   6.346  0.2378 -0.1617 -0.0983
   26TAL   C125 8586   4.932   3.093   6.743  0.7231  0.6168  1.0028
   26TAL   C126 8587   5.048   3.025   6.797  0.2943  0.5094  0.7770
   26TAL   C127 8588   5.078   3.083   6.931  0.6752  0.2423  0.3411
   26TAL   C128 8589   5.221   3.086   6.988  0.2763 -0.8949  0.6765
   26TAL   C129 8590   5.300   2.954   6.986 -0.0879  0.2174 -0.3719
   26TAL   C130 8591   5.247   2.851   7.078  0.6098 -0.5513 -0.5160
   27HTM   C131 8592   4.979   3.218   6.452 -0.1085  0.5284  0.0124
   27HTM   C132 8593   4.947   3.323   6.372  0.6926  0.6106 -0.2230
   27HTM   C133 8594   5.049   3.424   6.365  1.3598 -0.0452 -0.2356
   27HTM   C134 8595   5.159   3.396   6.439  1.0675 -0.6274 -0.0093
   27HTM    S14 8596   5.143   3.239   6.525 -0.0821 -0.3907  0.2386
   28TAL   C135 8597   5.006   3.555   6.293  0.2384 -0.0587 -1.2178
   28TAL   C136 8598   5.034   3.544   6.143  0.0122  0.3597  0.2429
   28TAL   C137 8599   4.924   3.647   6.073 -0.0305  1.2235  0.5740
   28TAL   C138 8600   4.983   3.704   5.936  0.1508 -0.2866  0.0637
   28TAL   C139 8601   5.106   3.783   5.936  0.0942 -0.6468 -0.6249
   28TAL   C140 8602   5.093   3.928   5.998 -0.1414  0.8528 -0.9888
   29HTM   C141 8603   5.279   3.471   6.452 -0.2965 -0.1192 -0.1906
   29HTM   C142 8604   5.407   3.436   6.422 -0.3977 -0.1270 -0.6322
   29HTM   C143 8605   5.502   3.544   6.437 -0.2964 -0.2114 -0.6618
   29HTM   C144 8606   5.445   3.661   6.478 -0.1176 -0.2680 -0.2430
   29HTM    S15 8607   5.267   3.644   6.501 -0.0631 -0.2187  0.2251
   30TAL   C145 8608   5.653   3.530   6.403  0.6264 -0.6036  0.7203
   30TAL   C146 8609   5.757   3.627   6.357 -0.2034 -0.1267  0.0498
   30TAL   C147 8610   5.757   3.669   6.217  0.9176  0.2631 -0.0126
   30TAL   C148 8611   5.884   3.733   6.151  0.2254  0.2814  0.7571
   30TAL   C149 8612   5.961   3.835   6.226 -0.7526 -0.0917  0.2258
   30TAL   C150 8613   6.071   3.901   6.138  0.3932  0.6651  0.0570
   31HTM   C151 8614   5.500   3.791   6.517  0.7084 -0.2240 -0.0651
   31HTM   C152 8615   5.560   3.888   6.443  0.1614  0.1126 -0.0757
   31HTM   C153 8616   5.569   4.015   6.510 -0.4697  0.1481 -0.0525
   31HTM   C154 8617   5.515   4.015   6.635 -0.4040 -0.1611 -0.0241
   31HTM    S16 8618   5.450   3.853   6.679  0.4668 -0.5241 -0.0246
   32TAL   C155 8619   5.660   4.127   6.447 -0.7521  0.6866 -1.6181
   32TAL   C156 8620   5.632   4.172   6.313  0.4890 -1.0727  0.9719
   32TAL   C157 8621   5.740   4.208   6.214  0.2356 -0.4200 -0.5595
   32TAL   C158 8622   5.813   4.333   6.240  0.5145 -1.0753  0.6621
   32TAL   C159 8623   5.897   4.392   6.118  0.4041  0.5957  0.2426
   32TAL   C160 8624   5.810   4.437   5.999  0.4430 -0.1996  0.2442
   33HTM   C161 8625   5.498   4.123   6.731 -0.7769 -0.5270 -0.3555
   33HTM   C162 8626   5.545   4.251   6.720 -1.2945 -0.3858 -1.0161
   33HTM   C163 8627   5.511   4.335   6.831 -1.1767 -0.1006 -1.1947
   33HTM   C164 8628   5.437   4.272   6.927 -0.5695 -0.0246 -0.6702
   33HTM    S17 8629   5.406   4.100   6.885 -0.0952 -0.3091  0.0960
   34TAL   C165 8630   5.587   4.481   6.850  0.1237  0.9429  0.0742
   34TAL   C166 8631   5.747   4.483   6.858  0.4854  1.2889 -0.0141
   34TAL   C167 8632   5.812   4.365   6.933 -0.3164  0.1663  1.0376
   34TAL   C168 8633   5.865   4.369   7.066  0.2854 -0.3678 -0.3989
   34TAL   C169 8634   5.991   4.459   7.105  0.1356 -0.1326  0.9688
   34TAL   C170 8635   5.977   4.607   7.087  0.1869  0.5053  0.5508
   35HTM   C171 8636   5.377   4.326   7.048 -0.1243 -0.3542  0.0422
   35HTM   C172 8637   5.445   4.407   7.133 -0.0006 -0.1690 -0.2292
   35HTM   C173 8638   5.374   4.434   7.256  0.1160  0.2054 -0.2425
   35HTM   C174 8639   5.252   4.374   7.263  0.0810  0.3059  0.0187
   35HTM    S18 8640   5.217   4.277   7.115 -0.1031 -0.0676  0.3038
   36TAL   C175 8641   5.453   4.510   7.358 -0.1504 -0.6143 -0.6760
   36TAL   C176 8642   5.432   4.655   7.340  0.0739 -0.1434  1.1611
   36TAL   C177 8643   5.521   4.741   7.424 -0.3087  0.0334 -0.0276
   36TAL   C178 8644   5.483   4.887   7.419  0.5585  1.0558  0.6282
   36TAL   C179 8645   5.559   4.948   7.305 -0.1585 -0.0166 -0.1567
   36TAL   C180 8646   5.465   5.011   7.205 -0.0894 -0.4267  0.5760
   37HTM   C181 8647   5.136   4.377   7.366 -0.2393  0.6607 -0.5910
   37HTM   C182 8648   5.148   4.412   7.498 -0.0646  1.0085 -0.6956
   37HTM   C183 8649   5.027   4.392   7.574  0.0670  1.1052 -0.4599
   37HTM   C184 8650   4.923   4.343   7.500 -0.0073  0.8312 -0.1754
   37HTM    S19 8651   4.970   4.317   7.328 -0.2512  0.4264 -0.1836
   38TAL   C185 8652   5.022   4.429   7.728  0.4335  0.0509  1.3696
   38TAL   C186 8653   5.066   4.558   7.784  0.4462  0.0643 -0.1154
   38TAL   C187 8654   5.001   4.689   7.737  0.0583 -0.7772  0.5671
   38TAL   C188 8655   5.021   4.807   7.819  0.2432 -0.7585  0.5567
   38TAL   C189 8656   4.946   4.932   7.757 -0.1382 -0.0545  0.3949
   38TAL   C190 8657   4.943   5.047   7.858  0.7722 -0.4053 -1.1855
   39HTM   C191 8658   4.787   4.311   7.543 -0.0357 -0.2661 -0.4098
   39HTM   C192 8659   4.676   4.324   7.465  0.0397 -0.5112 -0.5597
   39HTM   C193 8660   4.555   4.281   7.529 -0.0639 -0.0414 -0.4350
   39HTM   C194 8661   4.573   4.236   7.657 -0.2182  0.5621 -0.1898
   39HTM    S20 8662   4.747   4.243   7.705 -0.2451  0.5838 -0.0967
   40TAL   C195 8663   4.421   4.290   7.463 -0.3039 -0.3148 -0.1528
   40TAL   C196 8664   4.415   4.263   7.316 -1.0620  0.6260 -0.0949
   40TAL   C197 8665   4.296   4.189   7.289  0.0199  0.8642  0.3652
   40TAL   C198 8666   4.197   4.253   7.187  0.1978 -0.5813  1.0985
   40TAL   C199 8667   4.101   4.353   7.234  0.1566  0.3317  0.9589
   40TAL   C200 8668   4.054   4.450   7.120  0.4053 -0.0210 -0.1360
   41HTM   C201 8669   4.478   4.196   7.760  0.0925  0.0197 -0.0022
   41HTM   C202 8670   4.466   4.234   7.891  0.1484 -0.1398  0.0495
   41HTM   C203 8671   4.343   4.191   7.952  0.2283 -0.3195  0.0857
   41HTM   C204 8672   4.261   4.121   7.869  0.2332 -0.2971  0.0617
   41HTM    S21 8673   4.334   4.103   7.705  0.1368 -0.0450 -0.0091
   42TAL   C205 8674   4.332   4.209   8.100 -0.3208 -0.4984  0.6603
   42TAL   C206 8675   4.278   4.344   8.158 -0.8316 -0.0227  1.3695
   42TAL   C207 8676   4.164   4.425   8.096  0.3653  0.8615 -0.9569
   42TAL   C208 8677   4.214   4.562   8.059 -0.2503 -0.3679  1.2323
   42TAL   C209 8678   4.127   4.671   8.002 -0.1014  0.6725 -0.2800
   42TAL   C210 8679   4.197   4.800   7.975 -0.4916 -0.0696  0.0875
   43HTM   C211 8680   4.134   4.055   7.886 -0.1016 -0.5194 -0.3943
   43HTM   C212 8681   4.027   4.098   7.958  0.2134 -0.3715 -0.0060
   43HTM   C213 8682   3.920   4.001   7.966  0.1937 -0.3096  0.5614
   43HTM   C214 8683   3.945   3.885   7.900 -0.1364 -0.4102  0.6059
   43HTM    S22 8684   4.108   3.888   7.822 -0.4501 -0.5924 -0.0708
   44TAL   C215 8685   3.788   4.036   8.041 -0.5870  0.1551  0.2974
   44TAL   C216 8686   3.703   4.149   7.997 -0.3066 -1.0280 -0.0425
   44TAL   C217 8687   3.684   4.178   7.851  0.6148  0.9770 -0.2844
   44TAL   C218 8688   3.603   4.305   7.825  0.8378  0.2162  0.2218
   44TAL   C219 8689   3.589   4.358   7.678 -0.4200  0.3717  0.7440
   44TAL   C220 8690   3.487   4.473   7.676 -0.3921  1.2144 -0.9086
   45HTM   C221 8691   3.863   3.763   7.900  0.4924 -0.3520 -0.0300
   45HTM   C222 8692   3.853   3.671   7.799  0.9437 -0.7097  0.2424
   45HTM   C223 8693   3.792   3.547   7.840  0.8452 -0.6005  0.4330
   45HTM   C224 8694   3.756   3.544   7.971  0.3189 -0.1595  0.3060
   45HTM    S23 8695   3.796   3.699   8.055 -0.0964  0.1544 -0.0668
   46TAL   C225 8696   3.769   3.429   7.740 -0.7309  0.2827 -0.8366
   46TAL   C226 8697   3.692   3.432   7.610  0.1047 -0.8489 -0.5749
   46TAL   C227 8698   3.814   3.469   7.519  0.2863 -0.6286 -0.4944
   46TAL   C228 8699   3.782   3.501   7.373  0.2813  0.3762 -0.1177
   46TAL   C229 8700   3.920   3.530   7.308 -0.2948 -0.8583 -0.1917
   46TAL   C230 8701   3.917   3.549   7.151  0.0011 -0.4974  0.5517
   47HTM   C231 8702   3.682   3.439   8.037 -0.0858  0.6589  0.0217
   47HTM   C232 8703   3.731   3.326   8.095  0.4174  0.9011  0.0730
   47HTM   C233 8704   3.637   3.258   8.181  0.6808  0.4677  0.0267
   47HTM   C234 8705   3.516   3.320   8.188  0.3785 -0.1050 -0.0600
   47HTM    S24 8706   3.511   3.469   8.087 -0.2673 -0.1415 -0.0899
   48TAL   C235 8707   3.657   3.136   8.256 -0.9516  0.1031 -0.9941
   48TAL   C236 8708   3.796   3.059   8.263 -1.0040 -0.4503  0.1276
   48TAL   C237 8709   3.826   2.960   8.144  0.6442 -0.8056 -0.0514
   48TAL   C238 8710   3.729   2.847   8.127  0.7072 -0.1627 -0.0063
   48TAL   C239 8711   3.764   2.754   8.009 -0.3098  0.2841  0.3163
   48TAL   C240 8712   3.738   2.608   8.021  0.7567  0.1574 -0.1083
    1HTM     C1 8713   0.220   8.318   0.392 -0.9511  0.5319 -0.1371
    1HTM     C2 8714   0.179   8.328   0.262 -0.8032  0.3338 -0.2002
    1HTM     C3 8715   0.130   8.204   0.207  0.0694  0.0362 -0.3441
    1HTM     C4 8716   0.133   8.100   0.294  0.5869  0.0074 -0.3906
    1HTM     S1 8717   0.199   8.150   0.455  0.0077  0.3562 -0.2553
    2TAL     C5 8718   0.070   8.203   0.056 -0.4974  1.1931 -1.8609
    2TAL     C6 8719   0.002   8.323  -0.003 -0.0682 -0.0644  0.6067
    2TAL     C7 8720  -0.136   8.367   0.056 -0.6144  1.2779 -1.0639
    2TAL     C8 8721  -0.259   8.320  -0.022  0.5258 -1.2607  0.1937
    2TAL     C9 8722  -0.297   8.170  -0.032 -0.5029 -0.0747 -0.4470
    2TAL    C10 8723  -0.431   8.168  -0.104  0.4978 -0.3478  0.0634
    3HTM    C11 8724   0.101   7.955   0.281 -0.0457  0.0185 -0.1125
    3HTM    C12 8725   0.175   7.852   0.331 -0.0315 -0.1699 -0.5183
    3HTM    C13 8726   0.111   7.724   0.318 -0.1247 -0.0978 -0.7962
    3HTM    C14 8727  -0.011   7.729   0.259 -0.2098  0.1456 -0.6022
    3HTM     S2 8728  -0.057   7.898   0.214 -0.1789  0.3037 -0.0493
    4TAL    C15 8729   0.158   7.593   0.371 -0.1077 -0.4958 -0.0246
    4TAL    C16 8730   0.289   7.591   0.437 -1.1866 -0.2930 -0.2942
    4TAL    C17 8731   0.303   7.447   0.460  0.8253  1.3255  0.2424
    4TAL    C18 8732   0.417   7.373   0.535 -0.3840 -0.4634 -1.0382
    4TAL    C19 8733   0.559   7.362   0.489 -0.4919 -0.7643  1.4394
    4TAL    C20 8734   0.625   7.492   0.435  0.0338  1.1597 -0.5955
    5HTM    C21 8735  -0.125   7.632   0.251 -0.2713  0.1683  0.0200
    5HTM    C22 8736  -0.242   7.649   0.319  0.0527 -0.9052  0.9102
    5HTM    C23 8737  -0.341   7.548   0.290  0.4888 -1.3975  1.0975
    5HTM    C24 8738  -0.300   7.455   0.200  0.4972 -0.6995  0.3502
    5HTM     S3 8739  -0.131   7.486   0.145 -0.0492  0.6442 -0.6559
    6TAL    C25 8740  -0.473   7.565   0.359 -0.2677 -0.5026  0.8817
    6TAL    C26 8741  -0.472   7.591   0.508 -0.2117  0.5778 -0.5562
    6TAL    C27 8742  -0.492   7.486   0.615  0.6156  0.8851 -1.4124
    6TAL    C28 8743  -0.442   7.348   0.589  0.0322  0.9215  0.1640
    6TAL    C29 8744  -0.286   7.317   0.572 -0.0116 -0.1919 -0.2400
    6TAL    C30 8745  -0.267   7.181   0.511 -0.4075  1.3230 -0.7144
    7HTM    C31 8746  -0.374   7.353   0.125  0.3637 -0.6497  0.3761
    7HTM    C32 8747  -0.446   7.252   0.182  0.1762 -0.7523 -0.0386
    7HTM    C33 8748  -0.505   7.162   0.086 -0.0756 -0.1940 -0.4142
    7HTM    C34 8749  -0.479   7.195  -0.044 -0.0797  0.3343 -0.2861
    7HTM     S4 8750  -0.376   7.343  -0.055  0.2362  0.1663  0.3236
    8TAL    C35 8751  -0.591   7.050   0.144 -0.9812  0.2390 -0.1592
    8TAL    C36 8752  -0.735   7.057   0.189 -0.2378 -0.7963  1.0917
    8TAL    C37 8753  -0.823   7.153   0.106  0.2476  0.1241 -0.5978
    8TAL    C38 8754  -0.851   7.131  -0.045 -0.9588 -0.3707  0.6445
    8TAL    C39 8755  -0.962   7.227  -0.084  0.7052 -0.0867  0.9696
    8TAL    C40 8756  -1.001   7.187  -0.228 -0.1813  0.1934  0.6191
    9HTM    C41 8757  -0.525   7.128  -0.166  0.2286  0.5431 -0.4367
    9HTM    C42 8758  -0.553   6.996  -0.188  0.3972  0.5043 -0.4249
    9HTM    C43 8759  -0.612   6.971  -0.317  0.2558  0.4421 -0.3483
    9HTM    C44 8760  -0.629   7.083  -0.393 -0.0208  0.4337 -0.3013
    9HTM     S5 8761  -0.571   7.230  -0.307 -0.1250  0.5039 -0.3512
   10TAL    C45 8762  -0.642   6.833  -0.380  0.3374  0.1151  0.0870
   10TAL    C46 8763  -0.638   6.705  -0.304 -0.6924  0.2212 -0.3236
   10TAL    C47 8764  -0.758   6.665  -0.221  0.0401  0.5176  0.8649
   10TAL    C48 8765  -0.811   6.741  -0.093 -0.1943  0.6953 -0.1316
   10TAL    C49 8766  -0.959   6.709  -0.057 -0.2380  0.8093 -0.7509
   10TAL    C50 8767  -0.988   6.572   0.007  0.5520 -0.8453  0.5024
   11HTM    C51 8768  -0.664   7.105  -0.532  0.3198  0.5691  0.0295
   11HTM    C52 8769  -0.791   7.120  -0.579  0.3300  0.4960 -0.0196
   11HTM    C53 8770  -0.798   7.147  -0.720  0.3464 -0.0774 -0.1383
   11HTM    C54 8771  -0.675   7.154  -0.780  0.3488 -0.4414 -0.1800
   11HTM     S6 8772  -0.542   7.126  -0.663  0.3303 -0.0858 -0.0718
   12TAL    C55 8773  -0.936   7.151  -0.778 -0.2758 -0.8853 -0.5741
   12TAL    C56 8774  -0.987   7.023  -0.853  0.2163 -1.5644  0.0286
   12TAL    C57 8775  -1.111   7.075  -0.921  1.2169  1.0255  0.7704
   12TAL    C58 8776  -1.171   6.983  -1.035  0.1253  0.0568 -0.5253
   12TAL    C59 8777  -1.166   6.834  -0.995  0.0779  0.3538  0.4197
   12TAL    C60 8778  -1.249   6.783  -0.879  0.2339  1.1916  0.0197
   13HTM    C61 8779  -0.657   7.214  -0.910 -0.4862  0.7602  0.4716
   13HTM    C62 8780  -0.713   7.184  -1.030 -0.2730  0.7392  0.3765
   13HTM    C63 8781  -0.648   7.248  -1.142  0.3181  0.2302  0.4165
   13HTM    C64 8782  -0.543   7.327  -1.107  0.5551 -0.1372  0.5420
   13HTM     S7 8783  -0.517   7.327  -0.928  0.0467  0.1337  0.6197
   14TAL    C65 8784  -0.713   7.241  -1.278  0.2810 -0.3631  0.0223
   14TAL    C66 8785  -0.690   7.109  -1.354  0.0436  0.2819  0.4840
   14TAL    C67 8786  -0.558   7.120  -1.437 -0.3105 -0.5764 -1.8749
   14TAL    C68 8787  -0.507   7.257  -1.497  0.4114  0.7074  0.3696
   14TAL    C69 8788  -0.370   7.267  -1.566  0.9794 -0.2630 -0.7303
   14TAL    C70 8789  -0.349   7.376  -1.654  0.0239 -0.1629 -0.4083
   15HTM    C71 8790  -0.460   7.413  -1.177 -0.2017 -1.2299  0.3027
   15HTM    C72 8791  -0.482   7.522  -1.257 -0.8130 -2.0081 -0.6382
   15HTM    C73 8792  -0.368   7.609  -1.267 -1.2782 -1.4733 -1.4210
   15HTM    C74 8793  -0.260   7.568  -1.195 -1.0207 -0.2874 -1.0766
   15HTM     S8 8794  -0.294   7.413  -1.108 -0.1652  0.2501  0.2731
   16TAL    C75 8795  -0.335   7.729  -1.363  1.1155 -0.6566  0.0565
   16TAL    C76 8796  -0.424   7.760  -1.483 -0.0628  0.1869  0.2663
   16TAL    C77 8797  -0.561   7.801  -1.446  0.0737  0.7598 -0.6194
   16TAL    C78 8798  -0.586   7.905  -1.337 -0.4426 -0.4153 -0.3309
   16TAL    C79 8799  -0.734   7.911  -1.309  0.0397 -0.6737 -1.0267
   16TAL    C80 8800  -0.767   8.033  -1.221 -0.1185  0.5765 -0.4583
   17HTM    C81 8801  -0.119   7.606  -1.173 -0.4716  0.2110 -0.4184
   17HTM    C82 8802  -0.015   7.520  -1.155 -0.9813 -0.3836 -0.2568
   17HTM    C83 8803   0.114   7.584  -1.147 -0.6747 -1.0563  0.5484
   17HTM    C84 8804   0.108   7.720  -1.159  0.0686 -0.9747  1.0004
   17HTM     S9 8805  -0.062   7.777  -1.181  0.4426 -0.0348  0.4401
   18TAL    C85 8806   0.236   7.508  -1.121 -0.3535 -0.2541  0.3492
   18TAL    C86 8807   0.236   7.391  -1.021  1.3987  0.5594  0.2911
   18TAL    C87 8808   0.373   7.318  -0.991 -0.8556 -0.1877  0.6124
   18TAL    C88 8809   0.354   7.233  -0.879 -0.9440  0.1233 -0.8136
   18TAL    C89 8810   0.475   7.136  -0.869  0.1008 -1.1502  0.7882
   18TAL    C90 8811   0.622   7.187  -0.851  1.2875 -0.3350 -0.0778
   19HTM    C91 8812   0.209   7.818  -1.127 -0.0424  0.2464 -0.1279
   19HTM    C92 8813   0.339   7.827  -1.166  0.0119  0.0145 -0.0017
   19HTM    C93 8814   0.400   7.953  -1.135  0.2240 -0.1130  0.1054
   19HTM    C94 8815   0.317   8.041  -1.073  0.3313  0.0216  0.0608
   19HTM    S10 8816   0.153   7.970  -1.048  0.1717  0.3225 -0.1214
   20TAL    C95 8817   0.544   7.983  -1.181 -0.0901  0.1755  0.4876
   20TAL    C96 8818   0.623   7.861  -1.218 -0.3352  0.2228 -0.7556
   20TAL    C97 8819   0.769   7.889  -1.198 -0.0576 -0.4933  0.0902
   20TAL    C98 8820   0.843   7.956  -1.319  0.2666  1.1540 -0.2611
   20TAL    C99 8821   0.822   7.881  -1.455  0.1331  0.3550 -1.0173
   20TAL   C100 8822   0.778   7.990  -1.552 -0.0021  0.0460 -0.3394
   21HTM   C101 8823   0.336   8.173  -1.013  1.1106 -0.7728  0.3627
   21HTM   C102 8824   0.261   8.230  -0.915  0.9031 -1.3316  0.5357
   21HTM   C103 8825   0.314   8.355  -0.866  0.2211 -1.0540  0.5877
   21HTM   C104 8826   0.430   8.393  -0.927 -0.0915 -0.2837  0.4548
   21HTM    S11 8827   0.481   8.273  -1.052  0.4556  0.1546  0.2518
   22TAL   C105 8828   0.251   8.439  -0.758  0.0086 -0.1601  0.8896
   22TAL   C106 8829   0.129   8.370  -0.692  1.0906 -0.1161  0.1718
   22TAL   C107 8830   0.179   8.310  -0.569 -0.4529  1.0138 -1.1255
   22TAL   C108 8831   0.082   8.259  -0.460  0.6657  0.1435  0.6135
   22TAL   C109 8832  -0.010   8.145  -0.519  1.8362 -0.2907  0.5234
   22TAL   C110 8833  -0.118   8.124  -0.405 -0.0449  0.3048 -0.6296
   23HTM   C111 8834   0.502   8.518  -0.923 -0.8925  0.4732 -0.2124
   23HTM   C112 8835   0.573   8.567  -1.028 -1.1597  0.9494 -0.1807
   23HTM   C113 8836   0.657   8.679  -0.995 -0.9016  0.6566  0.1700
   23HTM   C114 8837   0.649   8.716  -0.864 -0.4375 -0.0422  0.4055
   23HTM    S12 8838   0.535   8.611  -0.772 -0.2894 -0.3878  0.2012
   24TAL   C115 8839   0.748   8.733  -1.103 -0.6812 -1.3326  0.6051
   24TAL   C116 8840   0.726   8.718  -1.251  0.0518 -0.6649 -0.3138
   24TAL   C117 8841   0.820   8.819  -1.302 -0.1237 -0.2670  0.0215
   24TAL   C118 8842   0.820   8.849  -1.461 -0.2016 -0.3579 -0.6766
   24TAL   C119 8843   0.719   8.961  -1.485 -0.9941  0.1912  0.7537
   24TAL   C120 8844   0.717   9.022  -1.620 -0.6975  0.4141  0.3237
   25HTM   C121 8845   0.741   8.811  -0.793 -0.0145 -0.5907 -0.6637
   25HTM   C122 8846   0.781   8.799  -0.664 -0.0696 -1.0231 -0.6835
   25HTM   C123 8847   0.883   8.894  -0.626 -0.4444 -0.8116 -0.1853
   25HTM   C124 8848   0.920   8.978  -0.726 -0.6750 -0.2181  0.2148
   25HTM    S13 8849   0.828   8.944  -0.878 -0.4349  0.1223 -0.0088
   26TAL   C125 8850   0.931   8.917  -0.476  1.2632 -0.3355  0.2301
   26TAL   C126 8851   0.982   8.796  -0.398 -0.1959  0.1068 -0.2075
   26TAL   C127 8852   1.081   8.701  -0.462 -0.7350 -0.4933  0.0451
   26TAL   C128 8853   1.220   8.748  -0.523 -0.0805  0.4569 -0.7427
   26TAL   C129 8854   1.320   8.821  -0.439 -0.4730  0.3208  0.0910
   26TAL   C130 8855   1.443   8.868  -0.517  0.0304 -0.3526  0.0488
   27HTM   C131 8856   1.031   9.075  -0.738 -0.2194  0.3895  0.0979
   27HTM   C132 8857   1.079   9.127  -0.854 -0.2646  0.1571 -0.0257
   27HTM   C133 8858   1.201   9.202  -0.839 -0.0333 -0.1557 -0.2885
   27HTM   C134 8859   1.246   9.208  -0.710  0.1881 -0.1617 -0.3652
   27HTM    S14 8860   1.137   9.117  -0.598  0.1213  0.2303 -0.1095
   28TAL   C135 8861   1.260   9.287  -0.954 -0.0601  0.4206 -0.2377
   28TAL   C136 8862   1.190   9.285  -1.092 -0.4336  0.2802 -0.1492
   28TAL   C137 8863   1.283   9.300  -1.207 -0.8260 -0.0025  1.3125
   28TAL   C138 8864   1.226   9.273  -1.352 -0.2811 -0.4834  0.0070
   28TAL   C139 8865   1.327   9.240  -1.453  0.0375  0.1853 -0.2000
   28TAL   C140 8866   1.408   9.352  -1.502 -1.2521 -0.3360  0.1700
   29HTM   C141 8867   1.343   9.284  -0.636 -0.1484 -0.5322 -0.2656
   29HTM   C142 8868   1.377   9.416  -0.645 -0.8256 -0.3409 -0.1469
   29HTM   C143 8869   1.460   9.462  -0.537 -1.3238  0.0799  0.0675
   29HTM   C144 8870   1.489   9.365  -0.445 -1.0265  0.2095  0.1120
   29HTM    S15 8871   1.414   9.207  -0.489 -0.0869 -0.1933 -0.1151
   30TAL   C145 8872   1.521   9.598  -0.536  0.4959  0.9297  1.0229
   30TAL   C146 8873   1.635   9.631  -0.625 -0.4178 -1.8052  0.2927
   30TAL   C147 8874   1.685   9.778  -0.639  0.3974  0.6293  0.7871
   30TAL   C148 8875   1.588   9.875  -0.686  0.7434 -1.0478  1.1869
   30TAL   C149 8876   1.467   9.929  -0.600 -0.6539  0.8917  1.1771
   30TAL   C150 8877   1.352   9.978  -0.687  0.7094 -0.3032 -0.4552
   31HTM   C151 8878   1.556   9.376  -0.321  0.1921 -0.3330  0.0728
   31HTM   C152 8879   1.672   9.318  -0.280 -0.3960 -1.1156  0.7164
   31HTM   C153 8880   1.713   9.358  -0.147 -0.5512 -0.8998  0.7002
   31HTM   C154 8881   1.627   9.445  -0.087 -0.0815  0.0479  0.0440
   31HTM    S16 8882   1.487   9.485  -0.195  0.5986  0.7462 -0.6092
   32TAL   C155 8883   1.835   9.293  -0.107 -0.5449  0.6087 -0.0856
   32TAL   C156 8884   1.918   9.337   0.018  0.3678  0.2001  0.0025
   32TAL   C157 8885   2.052   9.275   0.022  0.4853  0.7302 -0.2956
   32TAL   C158 8886   2.058   9.135   0.074 -1.2052  0.3499  0.3213
   32TAL   C159 8887   2.196   9.095   0.122 -0.1467  0.5641 -0.1985
   32TAL   C160 8888   2.195   8.967   0.211 -0.4970 -0.2225 -0.5225
   33HTM   C161 8889   1.631   9.516   0.038  0.6222 -0.0796 -0.3118
   33HTM   C162 8890   1.648   9.651   0.052  0.2541 -0.0074 -0.5084
   33HTM   C163 8891   1.619   9.699   0.185 -0.3693  0.1924 -0.7110
   33HTM   C164 8892   1.580   9.602   0.271 -0.4765  0.2732 -0.6688
   33HTM    S17 8893   1.576   9.440   0.192  0.2068  0.1013 -0.3677
   34TAL   C165 8894   1.623   9.837   0.241  0.2118 -0.2040 -0.2278
   34TAL   C166 8895   1.529   9.935   0.178 -0.1849 -0.6700  0.6007
   34TAL   C167 8896   1.381   9.916   0.202  0.5356  0.6192 -0.4906
   34TAL   C168 8897   1.323  10.001   0.311  0.9485  0.7380 -0.6113
   34TAL   C169 8898   1.323   9.931   0.446 -0.1825 -0.3497  0.0136
   34TAL   C170 8899   1.257  10.012   0.558  0.0665 -0.9122  0.1550
   35HTM   C171 8900   1.522   9.603   0.407 -0.3397 -0.0542 -0.3541
   35HTM   C172 8901   1.572   9.626   0.531  0.0037 -0.0162 -0.4952
   35HTM   C173 8902   1.471   9.627   0.634  0.2429  0.3195 -0.2589
   35HTM   C174 8903   1.345   9.603   0.588  0.0818  0.5380  0.0625
   35HTM    S18 8904   1.343   9.579   0.410 -0.3880  0.3350  0.0917
   36TAL   C175 8905   1.515   9.670   0.773  0.5847  0.1577  0.2229
   36TAL   C176 8906   1.579   9.567   0.865  1.1592  0.5002  1.5118
   36TAL   C177 8907   1.609   9.599   1.009 -0.4106  0.7369 -0.1267
   36TAL   C178 8908   1.511   9.623   1.119  1.2132  0.3422  0.2336
   36TAL   C179 8909   1.397   9.514   1.152  0.3313  0.1300 -0.2085
   36TAL   C180 8910   1.429   9.361   1.167  0.0511  0.1456  0.0175
   37HTM   C181 8911   1.215   9.614   0.650  0.2201 -0.4021 -0.6556
   37HTM   C182 8912   1.103   9.667   0.593  0.3434 -0.3216 -0.8255
   37HTM   C183 8913   1.000   9.701   0.688  0.3339  0.0186 -0.9532
   37HTM   C184 8914   1.034   9.674   0.818  0.2035  0.1972 -0.8806
   37HTM    S19 8915   1.199   9.603   0.829  0.0815 -0.0516 -0.6435
   38TAL   C185 8916   0.871   9.764   0.651  0.7396  0.0652  0.3322
   38TAL   C186 8917   0.881   9.887   0.566  0.4025  0.0968 -0.7197
   38TAL   C187 8918   0.739   9.924   0.518 -1.2821  0.2466  1.0902
   38TAL   C188 8919   0.668   9.830   0.415  0.0688 -0.6940  0.3440
   38TAL   C189 8920   0.523   9.818   0.436 -0.5861  0.7199 -0.3852
   38TAL   C190 8921   0.447   9.794   0.300  1.0069  0.8892  0.1526
   39HTM   C191 8922   0.950   9.662   0.933 -0.4170  0.1437  0.0901
   39HTM   C192 8923   0.944   9.741   1.043 -0.7265  0.5026 -0.1779
   39HTM   C193 8924   0.876   9.681   1.155 -0.6136  0.6673 -0.0185
   39HTM   C194 8925   0.829   9.556   1.129 -0.2180  0.4339  0.3709
   39HTM    S20 8926   0.868   9.504   0.961  0.0447 -0.0153  0.5681
   40TAL   C195 8927   0.856   9.770   1.278  1.1920 -0.2287  0.0332
   40TAL   C196 8928   0.711   9.817   1.323 -0.0275 -0.1957  0.7294
   40TAL   C197 8929   0.706   9.971   1.310 -0.1051  0.4632  1.0180
   40TAL   C198 8930   0.589  10.040   1.381 -0.2756  0.2461  0.1483
   40TAL   C199 8931   0.436   9.997   1.380 -0.9937 -1.0815  0.6213
   40TAL   C200 8932   0.384   9.990   1.236 -1.0072  1.1101  0.4320
   41HTM   C201 8933   0.742   9.469   1.194  0.2628  0.5279 -0.0239
   41HTM   C202 8934   0.725   9.451   1.328  0.0650  0.8674  0.0001
   41HTM   C203 8935   0.630   9.348   1.361  0.0527  0.9179  0.1204
   41HTM   C204 8936   0.574   9.288   1.253  0.2411  0.6162  0.1881
   41HTM    S21 8937   0.637   9.357   1.098  0.4503  0.2429  0.1045
   42TAL   C205 8938   0.621   9.308   1.511 -0.4357  0.2547 -0.0324
   42TAL   C206 8939   0.677   9.395   1.620  0.1013 -0.0623  0.4804
   42TAL   C207 8940   0.587   9.466   1.720 -0.6002  0.6061 -0.4344
   42TAL   C208 8941   0.658   9.579   1.804 -0.0471  0.1389 -0.8828
   42TAL   C209 8942   0.655   9.716   1.732  0.8561 -0.6593  0.4651
   42TAL   C210 8943   0.517   9.785   1.734 -0.7882 -0.8063 -0.4403
   43HTM   C211 8944   0.484   9.170   1.237  0.4209  0.2446  0.0570
   43HTM   C212 8945   0.459   9.096   1.126 -0.4714  1.0931 -0.3445
   43HTM   C213 8946   0.385   8.975   1.152 -0.9259  1.2648 -0.8057
   43HTM   C214 8947   0.353   8.957   1.284 -0.3803  0.5468 -0.7560
   43HTM    S22 8948   0.415   9.093   1.385  0.7588 -0.4090 -0.1176
   44TAL   C215 8949   0.326   8.893   1.035 -0.0739 -1.4385  0.0478
   44TAL   C216 8950   0.423   8.833   0.934 -0.2003 -0.6451  0.3753
   44TAL   C217 8951   0.352   8.720   0.857 -0.2842 -0.0736 -0.2997
   44TAL   C218 8952   0.407   8.667   0.724  0.2765 -0.8357  0.4662
   44TAL   C219 8953   0.308   8.676   0.608 -0.5418  0.0767 -0.9055
   44TAL   C220 8954   0.381   8.653   0.472  0.1425 -0.2499  0.3933
   45HTM   C221 8955   0.290   8.850   1.353  0.9602  1.0223  0.8163
   45HTM   C222 8956   0.325   8.722   1.382  1.9571  1.4167  1.4509
   45HTM   C223 8957   0.241   8.660   1.481  1.8071  0.9382  1.0287
   45HTM   C224 8958   0.141   8.741   1.527  0.6959  0.1789  0.0722
   45HTM    S23 8959   0.146   8.903   1.448 -0.2546  0.0079 -0.3729
   46TAL   C225 8960   0.261   8.507   1.509 -0.2397 -0.7108  0.4211
   46TAL   C226 8961   0.374   8.426   1.428  1.0619 -0.1011  0.0565
   46TAL   C227 8962   0.344   8.409   1.273 -0.6916  0.5549 -0.9066
   46TAL   C228 8963   0.271   8.283   1.216  1.0507 -0.0490  0.4122
   46TAL   C229 8964   0.330   8.143   1.219  0.0811 -0.4889 -0.2547
   46TAL   C230 8965   0.254   8.033   1.140 -0.6638  0.0848  0.0746
   47HTM   C231 8966   0.042   8.714   1.624 -0.1166 -0.3242  0.3200
   47HTM   C232 8967  -0.076   8.781   1.643 -0.2646 -0.5174  0.0973
   47HTM   C233 8968  -0.144   8.745   1.764 -0.3898 -0.5603  0.0147
   47HTM   C234 8969  -0.079   8.651   1.838 -0.3368 -0.4001  0.1744
   47HTM    S24 8970   0.075   8.600   1.759 -0.1234 -0.1810  0.4437
   48TAL   C235 8971  -0.265   8.821   1.811  0.9454 -0.5186 -0.0924
   48TAL   C236 8972  -0.406   8.765   1.865 -0.7471  1.0668 -0.4524
   48TAL   C237 8973  -0.471   8.659   1.773  0.2520  0.7209 -0.3646
   48TAL   C238 8974  -0.609   8.610   1.817  0.8248  0.6862  0.2919
   48TAL   C239 8975  -0.672   8.525   1.716  0.0252  0.0436  0.4645
   48TAL   C240 8976  -0.807   8.464   1.760 -0.3604  0.5215  0.5685
    1HTM     C1 8977   6.620   3.992   6.196  0.2568  0.5007 -0.5105
    1HTM     C2 8978   6.694   4.014   6.083 -0.0118  1.4335 -0.5229
    1HTM     C3 8979   6.790   4.120   6.096 -0.4168  1.7549 -0.0895
    1HTM     C4 8980   6.790   4.180   6.218 -0.4569  1.0672  0.2534
    1HTM     S1 8981   6.667   4.105   6.328  0.0170 -0.0482  0.0541
    2TAL     C5 8982   6.881   4.152   5.978  0.1534  0.0001  0.5028
    2TAL     C6 8983   6.834   4.268   5.878 -1.1042 -0.0894  0.4022
    2TAL     C7 8984   6.903   4.271   5.744  0.0407  0.3668 -0.5599
    2TAL     C8 8985   6.831   4.357   5.642 -0.4443 -0.0432  0.1701
    2TAL     C9 8986   6.712   4.304   5.558  0.6247 -0.5332 -0.8198
    2TAL    C10 8987   6.695   4.160   5.541 -0.2290  0.4363  0.9126
    3HTM    C11 8988   6.883   4.270   6.278 -0.0795 -0.0835 -0.3506
    3HTM    C12 8989   6.959   4.263   6.391 -0.0628 -0.3086 -0.3756
    3HTM    C13 8990   7.037   4.381   6.417  0.0701 -0.4241 -0.2416
    3HTM    C14 8991   7.020   4.479   6.323  0.1547 -0.2867 -0.1143
    3HTM     S2 8992   6.904   4.428   6.194  0.0725  0.0011 -0.1541
    4TAL    C15 8993   7.145   4.394   6.528 -0.2634 -0.1897  0.0343
    4TAL    C16 8994   7.133   4.291   6.654 -0.2516 -0.9548 -0.0682
    4TAL    C17 8995   7.270   4.247   6.704  0.0841  1.0243  0.1747
    4TAL    C18 8996   7.254   4.143   6.818 -0.0416 -0.1051 -0.8461
    4TAL    C19 8997   7.262   3.994   6.811 -0.0754  0.7730 -0.1041
    4TAL    C20 8998   7.401   3.958   6.765  0.0725 -0.0930  0.5359
    5HTM    C21 8999   7.069   4.619   6.305 -0.8090  0.3033 -0.6903
    5HTM    C22 9000   7.076   4.718   6.399 -0.8872  0.0149 -0.3772
    5HTM    C23 9001   7.143   4.837   6.353 -0.2813 -0.0720  0.2506
    5HTM    C24 9002   7.187   4.829   6.225  0.2586  0.1505  0.4165
    5HTM     S3 9003   7.147   4.669   6.151  0.0421  0.4891 -0.2125
    6TAL    C25 9004   7.173   4.954   6.458  1.0046  0.3596  0.0129
    6TAL    C26 9005   7.151   4.941   6.610 -0.0045  0.0780 -1.1226
    6TAL    C27 9006   7.193   5.073   6.667 -0.7181  0.2662 -0.7058
    6TAL    C28 9007   7.208   5.080   6.822 -0.5256 -0.4961 -1.3794
    6TAL    C29 9008   7.291   5.203   6.875  0.9234  0.4643 -0.6546
    6TAL    C30 9009   7.434   5.168   6.915 -0.8646  1.2034  0.9837
    7HTM    C31 9010   7.282   4.903   6.141 -0.2529  0.2351 -0.1830
    7HTM    C32 9011   7.330   4.866   6.019 -0.7522  0.5772 -0.4871
    7HTM    C33 9012   7.429   4.956   5.966 -0.7446  0.5602 -0.5016
    7HTM    C34 9013   7.457   5.062   6.048 -0.2393  0.2052 -0.2086
    7HTM     S4 9014   7.360   5.055   6.200  0.2698 -0.1379  0.1110
    8TAL    C35 9015   7.509   4.921   5.844 -0.0931 -0.2948  0.0709
    8TAL    C36 9016   7.463   4.920   5.696  0.7686 -0.4274  0.1142
    8TAL    C37 9017   7.375   5.049   5.661 -0.2048  0.6436  0.4281
    8TAL    C38 9018   7.472   5.149   5.600  0.0200 -0.7261 -0.3225
    8TAL    C39 9019   7.373   5.259   5.560 -0.3578 -1.4137 -1.0621
    8TAL    C40 9020   7.414   5.382   5.482  0.3974 -0.1081 -0.3381
    9HTM    C41 9021   7.555   5.174   6.036  0.6520 -0.3524  0.1291
    9HTM    C42 9022   7.621   5.226   5.928  0.7231  0.0136  0.3433
    9HTM    C43 9023   7.710   5.334   5.960  0.3990  0.1752  0.7098
    9HTM    C44 9024   7.712   5.365   6.093  0.0807 -0.0677  0.7751
    9HTM     S5 9025   7.601   5.259   6.188  0.1662 -0.5227  0.3757
   10TAL    C45 9026   7.774   5.418   5.853 -1.1846  0.4377  0.1220
   10TAL    C46 9027   7.699   5.449   5.724  1.0669 -0.4848 -0.5165
   10TAL    C47 9028   7.752   5.556   5.634 -0.0115 -0.0402  0.1445
   10TAL    C48 9029   7.905   5.589   5.638  0.1653  0.2232 -0.0677
   10TAL    C49 9030   7.955   5.694   5.535 -0.0043 -0.2390  0.3325
   10TAL    C50 9031   8.033   5.810   5.599  0.6819 -0.7137 -0.2831
   11HTM    C51 9032   7.803   5.443   6.173  0.1293 -0.1820  0.0433
   11HTM    C52 9033   7.839   5.574   6.173 -0.1739 -0.0950  0.2676
   11HTM    C53 9034   7.937   5.607   6.273 -0.1768 -0.0614  0.2594
   11HTM    C54 9035   7.975   5.501   6.350  0.1243 -0.1228  0.0288
   11HTM     S6 9036   7.890   5.350   6.301  0.4372 -0.2288 -0.1976
   12TAL    C55 9037   7.979   5.758   6.300 -0.7114  0.1265  1.1002
   12TAL    C56 9038   8.134   5.790   6.302 -0.6432 -0.8572 -0.2050
   12TAL    C57 9039   8.190   5.848   6.172 -0.1334  1.2837 -0.4428
   12TAL    C58 9040   8.203   5.765   6.041  0.7303 -0.7340 -0.3304
   12TAL    C59 9041   8.293   5.834   5.933  0.0734 -0.1350  0.1354
   12TAL    C60 9042   8.281   5.731   5.831 -0.4599  0.7263 -0.3729
   13HTM    C61 9043   8.066   5.500   6.462 -0.4963 -0.7170  0.4027
   13HTM    C62 9044   8.197   5.466   6.450 -0.4952 -0.6455  0.2005
   13HTM    C63 9045   8.266   5.458   6.576 -0.1547 -0.0499  0.0612
   13HTM    C64 9046   8.188   5.485   6.684  0.1036  0.3325  0.1567
   13HTM     S7 9047   8.019   5.524   6.634 -0.0643 -0.0326  0.4324
   14TAL    C65 9048   8.418   5.449   6.572 -0.9360  0.3553 -0.0663
   14TAL    C66 9049   8.493   5.585   6.564  1.1415 -0.7072  0.2245
   14TAL    C67 9050   8.630   5.606   6.619 -0.7665 -0.0278 -0.2878
   14TAL    C68 9051   8.687   5.535   6.737 -0.3575  0.1811  0.1685
   14TAL    C69 9052   8.823   5.590   6.779 -0.4745  0.5279 -0.4055
   14TAL    C70 9053   8.883   5.491   6.870 -0.3146  0.3844  0.1854
   15HTM    C71 9054   8.214   5.451   6.824 -0.6158 -0.7258 -0.0501
   15HTM    C72 9055   8.120   5.407   6.913 -0.2422 -1.2027  0.1138
   15HTM    C73 9056   8.170   5.394   7.047 -0.0656 -0.4652  0.1276
   15HTM    C74 9057   8.301   5.429   7.061 -0.3046  0.5741 -0.0257
   15HTM     S8 9058   8.373   5.480   6.904 -0.7752  0.7031 -0.2008
   16TAL    C75 9059   8.080   5.317   7.150 -0.4851 -0.7298 -0.9184
   16TAL    C76 9060   7.983   5.214   7.101  0.1287 -0.2793  0.0798
   16TAL    C77 9061   7.844   5.278   7.094  0.5311  0.0507 -0.0793
   16TAL    C78 9062   7.780   5.335   7.213 -1.2448  1.1133 -0.6906
   16TAL    C79 9063   7.794   5.258   7.348  0.8773 -0.2371  0.2052
   16TAL    C80 9064   7.706   5.300   7.460  0.3280 -0.2483 -0.0376
   17HTM    C81 9065   8.383   5.434   7.181  0.0615  0.6523  0.4926
   17HTM    C82 9066   8.357   5.451   7.314  0.6070  0.3206  0.6491
   17HTM    C83 9067   8.475   5.454   7.397  0.9449  0.0156  0.1862
   17HTM    C84 9068   8.591   5.439   7.327  0.6572  0.1148 -0.3230
   17HTM     S9 9069   8.560   5.420   7.150 -0.0688  0.6048 -0.2572
   18TAL    C85 9070   8.453   5.487   7.544  0.0340 -0.7929  0.8687
   18TAL    C86 9071   8.435   5.363   7.616  0.1900  0.7236 -0.2096
   18TAL    C87 9072   8.387   5.378   7.750 -0.2357  0.9334 -1.6864
   18TAL    C88 9073   8.355   5.252   7.828  0.3096  0.4074  0.5828
   18TAL    C89 9074   8.204   5.228   7.855 -0.8469  0.0425 -0.6426
   18TAL    C90 9075   8.137   5.149   7.746 -0.2989 -0.7092 -0.5485
   19HTM    C91 9076   8.728   5.452   7.379  0.6146 -0.4280 -0.0915
   19HTM    C92 9077   8.780   5.388   7.487  0.6843 -0.4843 -0.1577
   19HTM    C93 9078   8.904   5.444   7.533  0.4241 -0.1415  0.1432
   19HTM    C94 9079   8.947   5.550   7.459  0.1561  0.1761  0.4388
   19HTM    S10 9080   8.833   5.588   7.325  0.2121  0.0662  0.3597
   20TAL    C95 9081   8.968   5.376   7.654 -0.7974 -0.8199 -0.2272
   20TAL    C96 9082   9.101   5.418   7.726 -1.4467  0.0520  0.5246
   20TAL    C97 9083   9.241   5.418   7.651  0.9404 -0.6436  0.0181
   20TAL    C98 9084   9.368   5.416   7.732  0.1577 -1.4703 -0.0334
   20TAL    C99 9085   9.399   5.310   7.829  0.8413  0.0807 -0.1069
   20TAL   C100 9086   9.383   5.365   7.968 -0.5510 -0.0727 -1.1853
   21HTM   C101 9087   9.049   5.648   7.490 -0.1318 -0.0761  0.1295
   21HTM   C102 9088   9.150   5.672   7.401  0.3624 -0.6354  0.5227
   21HTM   C103 9089   9.248   5.765   7.450  0.5040 -0.9135  0.7728
   21HTM   C104 9090   9.223   5.812   7.575  0.1179 -0.5659  0.5704
   21HTM    S11 9091   9.071   5.741   7.642 -0.4589  0.1446  0.0441
   22TAL   C105 9092   9.351   5.823   7.355 -0.4991 -0.1074 -0.4869
   22TAL   C106 9093   9.311   5.870   7.208  0.4865  0.1121 -0.5650
   22TAL   C107 9094   9.213   5.986   7.205  0.2678  0.6544  0.7973
   22TAL   C108 9095   9.206   6.001   7.053 -0.1513  0.9110 -0.6247
   22TAL   C109 9096   9.124   6.099   6.999 -0.5489  0.2050  0.0156
   22TAL   C110 9097   9.102   6.068   6.852 -0.1100 -0.2190  0.0004
   23HTM   C111 9098   9.285   5.914   7.654 -0.0218  0.2645 -0.0279
   23HTM   C112 9099   9.316   5.896   7.786 -0.2756  0.6734  0.0933
   23HTM   C113 9100   9.389   6.006   7.844 -0.6192  0.9710 -0.0330
   23HTM   C114 9101   9.413   6.108   7.757 -0.6273  0.7887 -0.2503
   23HTM    S12 9102   9.345   6.073   7.593 -0.1988  0.2229 -0.3129
   24TAL   C115 9103   9.429   6.007   7.992 -0.2725 -0.2476  0.1603
   24TAL   C116 9104   9.356   6.102   8.090 -0.0347 -0.2438 -0.3888
   24TAL   C117 9105   9.407   6.252   8.119  0.6311  1.1641  1.3482
   24TAL   C118 9106   9.358   6.337   8.232 -1.9123 -0.7960  0.0003
   24TAL   C119 9107   9.358   6.274   8.369 -0.7951 -0.0397 -0.1559
   24TAL   C120 9108   9.316   6.380   8.474 -0.3209 -0.3894  0.5962
   25HTM   C121 9109   9.520   6.205   7.759 -0.1911 -0.2309 -0.8333
   25HTM   C122 9110   9.634   6.200   7.833 -0.3777 -0.3093 -0.5476
   25HTM   C123 9111   9.737   6.290   7.788 -0.3557 -0.0691 -0.0269
   25HTM   C124 9112   9.701   6.365   7.680 -0.1524  0.1926  0.0842
   25HTM    S13 9113   9.533   6.327   7.626  0.0291  0.1557 -0.4645
   26TAL   C125 9114   9.877   6.288   7.853 -0.5347 -0.8604  0.6056
   26TAL   C126 9115   9.919   6.292   7.991  0.1834  0.0753 -1.1113
   26TAL   C127 9116  10.084   6.291   8.004 -0.1192  0.5053  0.6358
   26TAL   C128 9117  10.140   6.364   8.134 -0.0855  0.7727 -0.1450
   26TAL   C129 9118  10.079   6.310   8.262 -0.0731 -0.5057  1.1116
   26TAL   C130 9119  10.127   6.363   8.391 -0.8770  0.4534  0.4761
   27HTM   C131 9120   9.770   6.476   7.606 -0.2914  0.2159 -0.1653
   27HTM   C132 9121   9.768   6.611   7.625 -0.2693  0.3011 -0.7186
   27HTM   C133 9122   9.881   6.679   7.569 -0.0265 -0.0049 -0.6090
   27HTM   C134 9123   9.970   6.597   7.507  0.1365 -0.3233  0.0277
   27HTM    S14 9124   9.917   6.425   7.514 -0.0051 -0.2609  0.5423
   28TAL   C135 9125   9.894   6.826   7.603  0.4256  0.8550 -1.2856
   28TAL   C136 9126   9.889   6.862   7.756  0.4111 -0.6657  0.3767
   28TAL   C137 9127  10.020   6.845   7.837 -0.4449  0.5681 -1.0133
   28TAL   C138 9128  10.004   6.799   7.980  0.3069  0.5374 -0.3636
   28TAL   C139 9129  10.136   6.779   8.048  0.3039 -0.0148 -0.5798
   28TAL   C140 9130  10.109   6.786   8.205  0.7761  0.2296  0.2968
   29HTM   C141 9131  10.090   6.632   7.426  0.5388 -0.0632  0.2789
   29HTM   C142 9132  10.195   6.549   7.400  0.4899 -0.0727  0.1122
   29HTM   C143 9133  10.304   6.613   7.332  0.2741 -0.1491 -0.3119
   29HTM   C144 9134  10.283   6.746   7.306  0.1585 -0.1975 -0.4685
   29HTM    S15 9135  10.122   6.800   7.366  0.3144 -0.1503 -0.0894
   30TAL   C145 9136  10.423   6.534   7.274  1.6786 -0.3235 -0.8040
   30TAL   C146 9137  10.518   6.475   7.357  0.2064  0.1916 -1.1919
   30TAL   C147 9138  10.594   6.563   7.457  0.2727  0.0664 -0.1097
   30TAL   C148 9139  10.691   6.647   7.381  0.2798 -0.8554 -0.2026
   30TAL   C149 9140  10.743   6.775   7.459  0.1927  0.1304  0.4682
   30TAL   C150 9141  10.832   6.750   7.590 -0.3825  0.6258  0.5294
   31HTM   C151 9142  10.367   6.851   7.248  0.3776  0.3959 -0.0181
   31HTM   C152 9143  10.377   6.985   7.275  0.8007  0.3614 -0.0037
   31HTM   C153 9144  10.470   7.054   7.190  0.7862  0.1348 -0.2047
   31HTM   C154 9145  10.531   6.973   7.098  0.3522 -0.0035 -0.3720
   31HTM    S16 9146  10.474   6.802   7.112 -0.0753  0.1430 -0.2883
   32TAL   C155 9147  10.496   7.208   7.200  0.5753 -0.1875 -1.6896
   32TAL   C156 9148  10.550   7.256   7.339  0.5935 -1.0746 -0.5791
   32TAL   C157 9149  10.646   7.163   7.430  0.0961 -0.5750 -0.2725
   32TAL   C158 9150  10.673   7.236   7.561 -0.7260 -0.1289 -0.3172
   32TAL   C159 9151  10.749   7.365   7.560 -0.0113  0.2248  0.3455
   32TAL   C160 9152  10.838   7.392   7.682  0.7906  0.7159 -0.2838
   33HTM   C161 9153  10.619   7.000   6.992 -0.0750  0.3372  0.1919
   33HTM   C162 9154  10.711   6.916   6.937 -0.2901  0.1005  0.1945
   33HTM   C163 9155  10.787   6.974   6.830 -0.3410 -0.1906 -0.0031
   33HTM   C164 9156  10.753   7.104   6.803 -0.1648 -0.1756 -0.1567
   33HTM    S17 9157  10.622   7.162   6.913  0.0810  0.2100 -0.0627
   34TAL   C165 9158  10.900   6.889   6.782  0.7741 -0.8204 -0.9125
   34TAL   C166 9159  10.910   6.868   6.631 -0.4566 -0.0343  0.6691
   34TAL   C167 9160  11.036   6.806   6.574 -2.3223 -0.0085  0.0034
   34TAL   C168 9161  11.078   6.832   6.428  0.0193  0.9907 -0.0029
   34TAL   C169 9162  10.979   6.795   6.329  0.1330  0.0692 -0.3213
   34TAL   C170 9163  11.002   6.862   6.201 -0.0262 -1.1170  1.0528
   35HTM   C171 9164  10.807   7.191   6.704 -0.0674 -0.2849 -0.1442
   35HTM   C172 9165  10.725   7.264   6.624 -0.1508 -0.1522  0.0596
   35HTM   C173 9166  10.796   7.346   6.529 -0.2506 -0.2120 -0.0675
   35HTM   C174 9167  10.931   7.336   6.537 -0.2432 -0.3903 -0.3684
   35HTM    S18 9168  10.981   7.221   6.667 -0.1086 -0.4972 -0.5156
   36TAL   C175 9169  10.729   7.428   6.430  0.8709  0.0412 -0.1939
   36TAL   C176 9170  10.744   7.594   6.430  0.6081  0.9953 -0.1573
   36TAL   C177 9171  10.654   7.640   6.322 -0.9916 -0.8392  1.5214
   36TAL   C178 9172  10.656   7.775   6.262 -0.2104 -0.0096  0.1220
   36TAL   C179 9173  10.561   7.810   6.147 -0.0252  0.2021 -0.0833
   36TAL   C180 9174  10.572   7.960   6.143 -0.5166  0.2064  0.6756
   37HTM   C181 9175  11.042   7.401   6.468 -0.2264 -0.3004 -0.4314
   37HTM   C182 9176  11.152   7.461   6.522 -0.0439 -0.7372 -0.3090
   37HTM   C183 9177  11.253   7.495   6.424  0.1711 -1.0645 -0.2073
   37HTM   C184 9178  11.219   7.462   6.297  0.1526 -0.8776 -0.2519
   37HTM    S19 9179  11.057   7.383   6.289 -0.1402 -0.2687 -0.4276
   38TAL   C185 9180  11.392   7.550   6.469  0.5096 -0.4595 -0.2242
   38TAL   C186 9181  11.422   7.598   6.610 -1.4432  0.3994 -0.3105
   38TAL   C187 9182  11.579   7.571   6.622 -0.2356 -0.5453  0.0095
   38TAL   C188 9183  11.640   7.592   6.761  0.4900  0.7087 -0.0767
   38TAL   C189 9184  11.785   7.548   6.768 -0.2539 -0.3656 -0.0097
   38TAL   C190 9185  11.826   7.522   6.916  1.0297 -0.3438  0.5510
   39HTM   C191 9186  11.300   7.490   6.182  0.0737 -0.0365 -0.0530
   39HTM   C192 9187  11.334   7.403   6.083  0.5107  0.0707 -0.0006
   39HTM   C193 9188  11.423   7.460   5.985  0.7275  0.2614  0.3023
   39HTM   C194 9189  11.457   7.590   6.009  0.4559  0.2998  0.4809
   39HTM    S20 9190  11.378   7.651   6.159 -0.0991  0.0964  0.2787
   40TAL   C195 9191  11.463   7.382   5.861  1.0434 -0.6033 -1.0047
   40TAL   C196 9192  11.522   7.241   5.867  0.1010  1.0046 -0.0328
   40TAL   C197 9193  11.627   7.187   5.971 -0.9408  0.5841  0.0576
   40TAL   C198 9194  11.772   7.244   5.969  0.1366  0.1639  1.1096
   40TAL   C199 9195  11.849   7.221   6.096 -0.1562  0.2861  0.3838
   40TAL   C200 9196  11.864   7.334   6.194  0.5395 -0.3184  0.5050
   41HTM   C201 9197  11.554   7.682   5.949  0.4857 -0.3053  0.5350
   41HTM   C202 9198  11.658   7.649   5.867  0.7811 -0.3495  0.9230
   41HTM   C203 9199  11.734   7.763   5.822  0.5182 -0.3047  0.5815
   41HTM   C204 9200  11.689   7.882   5.869  0.0224 -0.2258 -0.0670
   41HTM    S21 9201  11.544   7.860   5.975 -0.1523 -0.2025 -0.2988
   42TAL   C205 9202  11.847   7.743   5.727  0.9005  1.1308  0.4614
   42TAL   C206 9203  11.983   7.789   5.783 -0.1114 -0.7152 -0.1925
   42TAL   C207 9204  12.118   7.782   5.712 -0.1259 -1.2450  1.0111
   42TAL   C208 9205  12.114   7.832   5.550  0.2259 -0.0574 -1.1940
   42TAL   C209 9206  12.239   7.847   5.468 -0.6150  0.4881  0.1987
   42TAL   C210 9207  12.366   7.757   5.468  0.1652 -0.5192  0.2909
   43HTM   C211 9208  11.725   8.019   5.831 -0.4786 -0.2654 -0.2828
   43HTM   C212 9209  11.816   8.060   5.738 -0.4648 -0.5577 -0.4004
   43HTM   C213 9210  11.813   8.202   5.712 -0.0234 -0.5379 -0.3703
   43HTM   C214 9211  11.719   8.269   5.785  0.2994 -0.2306 -0.2296
   43HTM    S22 9212  11.627   8.157   5.893  0.0692  0.0599 -0.1232
   44TAL   C215 9213  11.892   8.243   5.595 -0.3436 -0.3405  0.9175
   44TAL   C216 9214  12.040   8.266   5.621 -0.0442 -0.3303  0.0830
   44TAL   C217 9215  12.085   8.385   5.714 -0.0090  0.9514  0.6985
   44TAL   C218 9216  12.231   8.447   5.705 -1.2550  0.5558  0.1666
   44TAL   C219 9217  12.302   8.484   5.568  1.4797  0.2498 -0.5003
   44TAL   C220 9218  12.212   8.576   5.487  0.7194  0.2460 -0.5962
   45HTM   C221 9219  11.690   8.416   5.785  1.0084 -0.1570 -0.4856
   45HTM   C222 9220  11.603   8.477   5.870  1.1424 -0.6890  0.0453
   45HTM   C223 9221  11.589   8.618   5.846  0.4912 -0.6835  0.4359
   45HTM   C224 9222  11.664   8.665   5.743 -0.1394 -0.1472  0.2030
   45HTM    S23 9223  11.760   8.532   5.667  0.0418  0.3968 -0.5336
   46TAL   C225 9224  11.498   8.709   5.930  0.1313  0.3103  0.4864
   46TAL   C226 9225  11.410   8.637   6.043  0.1311 -0.5176 -0.4156
   46TAL   C227 9226  11.277   8.592   5.983  0.1722 -0.1792 -0.3859
   46TAL   C228 9227  11.195   8.489   6.073  0.7716 -0.1006  0.5848
   46TAL   C229 9228  11.082   8.414   5.991  0.3372 -0.9086  0.0894
   46TAL   C230 9229  10.985   8.346   6.090  1.1914 -0.7286  0.0715
   47HTM   C231 9230  11.703   8.803   5.705  1.3283  0.3810  0.1800
   47HTM   C232 9231  11.798   8.831   5.612  2.0872  0.4621  0.9545
   47HTM   C233 9232  11.821   8.973   5.594  1.9488  0.4897  0.9912
   47HTM   C234 9233  11.743   9.051   5.674  1.0843  0.4295  0.2446
   47HTM    S24 9234  11.634   8.952   5.778  0.3725  0.3329 -0.5692
   48TAL   C235 9235  11.916   9.043   5.498  0.1905 -0.6980 -0.1401
   48TAL   C236 9236  12.015   8.966   5.410 -0.3384  0.4404 -0.5089
   48TAL   C237 9237  12.149   9.030   5.389 -0.1821  0.8584 -0.3742
   48TAL   C238 9238  12.253   8.918   5.357  0.5171 -0.3910 -0.0613
   48TAL   C239 9239  12.228   8.825   5.240  0.4435  0.9313 -0.1177
   48TAL   C240 9240  12.173   8.890   5.111 -0.6300 -1.0597  0.1017
    1HTM     C1 9241   6.895   4.355   2.634  0.3061  0.2945 -0.3348
    1HTM     C2 9242   6.812   4.409   2.728  0.2146  0.2049 -0.3636
    1HTM     C3 9243   6.879   4.452   2.847  0.0516 -0.2223 -0.1133
    1HTM     C4 9244   7.014   4.431   2.845  0.0187 -0.4583  0.1062
    1HTM     S1 9245   7.066   4.354   2.691  0.1925 -0.1569  0.0132
    2TAL     C5 9246   6.798   4.493   2.962  0.7093  0.0038  0.3993
    2TAL     C6 9247   6.792   4.640   2.992 -1.0224  1.6905 -0.3698
    2TAL     C7 9248   6.857   4.649   3.127  0.3722  0.7245  0.1911
    2TAL     C8 9249   6.877   4.779   3.194  0.2856 -0.1590 -0.0903
    2TAL     C9 9250   6.755   4.874   3.226  0.1855  0.4820 -0.4462
    2TAL    C10 9251   6.695   4.963   3.114  0.1336 -0.2791 -0.4675
    3HTM    C11 9252   7.123   4.455   2.945  0.1467  0.2748 -0.2399
    3HTM    C12 9253   7.168   4.570   3.003  0.5597  0.1996 -0.4036
    3HTM    C13 9254   7.265   4.547   3.107  0.6822  0.0163 -0.5563
    3HTM    C14 9255   7.294   4.416   3.128  0.3625 -0.0483 -0.5090
    3HTM     S2 9256   7.200   4.309   3.017 -0.1218  0.1184 -0.2661
    4TAL    C15 9257   7.313   4.675   3.180  0.3920 -0.4222  0.3071
    4TAL    C16 9258   7.454   4.738   3.154  0.3016 -0.4686  0.6290
    4TAL    C17 9259   7.484   4.763   3.005 -0.5283 -0.7614  0.4486
    4TAL    C18 9260   7.441   4.901   2.945  0.3687 -0.2224 -0.2883
    4TAL    C19 9261   7.424   4.907   2.792 -0.0041 -0.0218 -0.8797
    4TAL    C20 9262   7.550   4.959   2.714  0.6788  0.4147 -1.1200
    5HTM    C21 9263   7.384   4.360   3.237  0.4178 -0.2525  0.7684
    5HTM    C22 9264   7.382   4.367   3.374  1.0523 -0.8702  0.8222
    5HTM    C23 9265   7.497   4.309   3.436  1.1790 -1.4910  0.0408
    5HTM    C24 9266   7.587   4.257   3.348  0.6414 -1.3465 -0.6087
    5HTM     S3 9267   7.533   4.278   3.178 -0.0724 -0.4083 -0.2814
    6TAL    C25 9268   7.531   4.334   3.585 -0.5191  1.3655 -0.2144
    6TAL    C26 9269   7.497   4.474   3.642 -0.4130 -0.4095  1.2057
    6TAL    C27 9270   7.457   4.463   3.781 -0.8141 -0.5888 -0.3935
    6TAL    C28 9271   7.322   4.401   3.825 -0.9839 -0.7311  0.6441
    6TAL    C29 9272   7.327   4.360   3.971 -1.2211  0.2793  0.8082
    6TAL    C30 9273   7.239   4.247   4.010  0.0528  0.3699 -0.5552
    7HTM    C31 9274   7.704   4.185   3.353 -0.3198  0.2327  0.2223
    7HTM    C32 9275   7.723   4.059   3.306 -0.4122  0.1981  0.2775
    7HTM    C33 9276   7.859   4.013   3.317 -0.3595  0.2606 -0.0910
    7HTM    C34 9277   7.944   4.105   3.372 -0.2264  0.3427 -0.4273
    7HTM     S4 9278   7.857   4.257   3.414 -0.1572  0.3476 -0.3037
    8TAL    C35 9279   7.876   3.882   3.245  0.6278  0.2889  0.3886
    8TAL    C36 9280   7.868   3.759   3.338  0.1487 -1.0451 -0.2060
    8TAL    C37 9281   7.898   3.641   3.258  0.7059  1.1577 -0.3452
    8TAL    C38 9282   7.812   3.600   3.141  0.7312  1.2450  0.8301
    8TAL    C39 9283   7.665   3.632   3.150  0.1824  0.2839 -0.1438
    8TAL    C40 9284   7.575   3.648   3.016 -0.2340  0.1522 -0.5430
    9HTM    C41 9285   8.083   4.110   3.384 -0.2088  0.3345 -0.3547
    9HTM    C42 9286   8.176   4.011   3.373 -0.2699  0.3537 -1.1394
    9HTM    C43 9287   8.311   4.055   3.398 -0.1652  0.2036 -1.4315
    9HTM    C44 9288   8.321   4.188   3.428 -0.0242  0.0700 -0.8695
    9HTM     S5 9289   8.159   4.268   3.427 -0.0129  0.1239  0.0794
   10TAL    C45 9290   8.434   3.957   3.379 -0.3882 -1.2104 -0.2570
   10TAL    C46 9291   8.489   3.857   3.482  0.6932 -0.5711  0.4687
   10TAL    C47 9292   8.515   3.920   3.614 -0.4294 -0.1723  0.0324
   10TAL    C48 9293   8.651   3.994   3.617  0.1452  0.5068 -0.0274
   10TAL    C49 9294   8.665   4.074   3.743 -0.6492  0.2819 -0.0781
   10TAL    C50 9295   8.772   4.179   3.721  0.0712  0.1038  0.6141
   11HTM    C51 9296   8.436   4.283   3.452  0.3592 -0.4777  0.3085
   11HTM    C52 9297   8.465   4.369   3.554  0.4938 -0.7430  0.4972
   11HTM    C53 9298   8.588   4.441   3.536  0.3464 -0.5137  0.4004
   11HTM    C54 9299   8.653   4.410   3.420  0.0994 -0.0736  0.1379
   11HTM     S6 9300   8.563   4.287   3.325  0.0334  0.0868 -0.0085
   12TAL    C55 9301   8.645   4.544   3.640  0.2514  0.7489  0.0995
   12TAL    C56 9302   8.623   4.695   3.620  0.2343 -0.6922 -0.4836
   12TAL    C57 9303   8.476   4.726   3.586 -1.2999  0.2057 -0.6942
   12TAL    C58 9304   8.437   4.872   3.554  0.2773  0.2529 -0.0832
   12TAL    C59 9305   8.480   4.930   3.424 -0.1624 -0.2315  0.9440
   12TAL    C60 9306   8.473   4.847   3.296  0.1992 -0.1815 -0.1085
   13HTM    C61 9307   8.760   4.473   3.360  0.4775 -0.9078  0.6528
   13HTM    C62 9308   8.772   4.510   3.229 -0.0062 -1.5004  0.4327
   13HTM    C63 9309   8.897   4.573   3.198 -0.5658 -0.5851 -0.0490
   13HTM    C64 9310   8.981   4.584   3.304 -0.5088  0.7053 -0.1964
   13HTM     S7 9311   8.908   4.515   3.454  0.2621  0.8658  0.2656
   14TAL    C65 9312   8.916   4.628   3.061 -0.3507 -0.2385  1.6560
   14TAL    C66 9313   8.806   4.721   3.016  0.6364  0.5564  0.6109
   14TAL    C67 9314   8.801   4.727   2.856 -0.2742  0.8390 -0.1963
   14TAL    C68 9315   8.941   4.750   2.784 -0.1127  0.3949 -0.2975
   14TAL    C69 9316   8.940   4.744   2.632  0.4321  0.3310  0.2120
   14TAL    C70 9317   9.093   4.756   2.581  1.5633  0.2097 -0.0637
   15HTM    C71 9318   9.116   4.616   3.316 -0.4326 -0.3098 -0.5685
   15HTM    C72 9319   9.180   4.641   3.434 -1.3406  0.1765 -0.1553
   15HTM    C73 9320   9.309   4.703   3.418 -1.2054  0.1037  0.5830
   15HTM    C74 9321   9.343   4.726   3.288 -0.1937 -0.4383  0.7326
   15HTM     S8 9322   9.215   4.671   3.175  0.6730 -0.9023 -0.0532
   16TAL    C75 9323   9.405   4.742   3.535 -0.7246  0.2892  0.8987
   16TAL    C76 9324   9.390   4.868   3.619 -0.4251  0.9011 -0.0520
   16TAL    C77 9325   9.392   4.988   3.525 -0.8165  0.0497  0.1972
   16TAL    C78 9326   9.441   5.122   3.593 -0.2793 -0.2095  0.2529
   16TAL    C79 9327   9.572   5.149   3.665 -2.0036 -0.0176 -0.0753
   16TAL    C80 9328   9.604   5.295   3.669 -0.3902  1.3517 -0.3570
   17HTM    C81 9329   9.465   4.779   3.219  0.3798 -0.0435 -0.3994
   17HTM    C82 9330   9.471   4.910   3.183 -0.1121 -0.1309 -0.8059
   17HTM    C83 9331   9.589   4.946   3.109 -0.3943  0.0201 -1.1954
   17HTM    C84 9332   9.675   4.841   3.089 -0.1182  0.2225 -1.0859
   17HTM     S9 9333   9.611   4.689   3.163  0.5251  0.2384 -0.4777
   18TAL    C85 9334   9.602   5.087   3.037  0.5927  2.3333 -0.9848
   18TAL    C86 9335   9.619   5.200   3.126  0.4712 -0.2435 -0.2938
   18TAL    C87 9336   9.571   5.336   3.053 -0.0623 -0.0684 -0.4259
   18TAL    C88 9337   9.601   5.465   3.139 -0.4809 -0.3047  0.1984
   18TAL    C89 9338   9.737   5.479   3.208  0.9122 -0.6255  1.0380
   18TAL    C90 9339   9.728   5.537   3.348 -0.2866 -0.1666 -1.0536
   19HTM    C91 9340   9.811   4.833   3.029  0.7496  0.4309  0.2913
   19HTM    C92 9341   9.840   4.904   2.916  1.0645  0.7962  0.5981
   19HTM    C93 9342   9.955   4.854   2.844  1.0302  0.7902  0.5475
   19HTM    C94 9343  10.012   4.745   2.902  0.6892  0.4204  0.2020
   19HTM    S10 9344   9.926   4.696   3.053  0.3825  0.0481 -0.0884
   20TAL    C95 9345  10.001   4.910   2.707  0.3569  0.4180 -0.4423
   20TAL    C96 9346  10.021   5.061   2.681 -0.3241 -0.8597  0.5976
   20TAL    C97 9347   9.897   5.141   2.665 -0.3872 -0.6254  0.4404
   20TAL    C98 9348   9.835   5.131   2.523 -0.1886  0.4713 -0.4145
   20TAL    C99 9349   9.706   5.051   2.493  0.4586  0.3694  0.2517
   20TAL   C100 9350   9.598   5.025   2.594 -0.2384 -0.1945 -0.8068
   21HTM   C101 9351  10.135   4.660   2.887  0.1185 -0.6531  0.7528
   21HTM   C102 9352  10.243   4.650   2.969  0.2501 -0.9496  0.5441
   21HTM   C103 9353  10.346   4.563   2.918  0.1655 -0.7788  0.0712
   21HTM   C104 9354  10.316   4.507   2.797 -0.0305 -0.3521 -0.0806
   21HTM    S11 9355  10.154   4.561   2.738 -0.1243 -0.1312  0.3654
   22TAL   C105 9356  10.479   4.559   2.983  0.4629 -0.4432  0.2719
   22TAL   C106 9357  10.527   4.445   3.065  0.0153  0.2430  0.6807
   22TAL   C107 9358  10.638   4.484   3.160 -1.3891  0.8524 -0.3289
   22TAL   C108 9359  10.786   4.498   3.124 -0.3230 -0.5622  0.7683
   22TAL   C109 9360  10.831   4.475   2.977 -0.8115 -0.1781  0.0779
   22TAL   C110 9361  10.989   4.459   2.943  0.0489 -0.5352 -0.7929
   23HTM   C111 9362  10.383   4.420   2.701  0.4332  0.6150 -0.0858
   23HTM   C112 9363  10.448   4.305   2.735  0.4352  0.6989  0.2018
   23HTM   C113 9364  10.512   4.240   2.624  0.1866  0.2654  0.3107
   23HTM   C114 9365  10.495   4.305   2.505 -0.0050 -0.1491  0.1062
   23HTM    S12 9366  10.398   4.455   2.525  0.1146 -0.0231 -0.2426
   24TAL   C115 9367  10.580   4.107   2.623 -0.1546  0.3060  0.2313
   24TAL   C116 9368  10.697   4.079   2.721 -0.5221  0.4725  1.6480
   24TAL   C117 9369  10.788   3.960   2.674  0.5140 -0.8673  0.4263
   24TAL   C118 9370  10.944   3.953   2.701  0.3099 -0.0348 -0.0414
   24TAL   C119 9371  10.986   3.945   2.849  1.5941  0.5138 -0.3110
   24TAL   C120 9372  11.133   3.954   2.858  0.5480  0.6797  0.1856
   25HTM   C121 9373  10.548   4.291   2.374  0.4839 -0.6818  0.0330
   25HTM   C122 9374  10.653   4.357   2.317 -0.2673  0.0964 -0.5048
   25HTM   C123 9375  10.677   4.320   2.179 -0.9593  0.6166 -0.7763
   25HTM   C124 9376  10.590   4.227   2.132 -0.7357  0.2351 -0.4456
   25HTM    S13 9377  10.471   4.177   2.257  0.3748 -0.8189  0.2399
   26TAL   C125 9378  10.791   4.382   2.107 -0.6124  0.7373  0.6003
   26TAL   C126 9379  10.843   4.518   2.136  0.6989  0.2213 -0.0812
   26TAL   C127 9380  10.955   4.566   2.044 -0.5399 -0.0063 -0.6050
   26TAL   C128 9381  11.068   4.659   2.112  0.2274 -0.1566 -0.0224
   26TAL   C129 9382  11.033   4.771   2.203  0.2697 -0.3771 -0.2024
   26TAL   C130 9383  11.142   4.877   2.226 -0.7726  0.8431  1.0072
   27HTM   C131 9384  10.575   4.161   2.003 -0.1758  0.3306 -0.3248
   27HTM   C132 9385  10.673   4.131   1.912 -0.3551  0.4038 -0.5429
   27HTM   C133 9386  10.623   4.071   1.791 -0.5796  0.3438 -0.4221
   27HTM   C134 9387  10.487   4.056   1.789 -0.5715  0.2249 -0.1119
   27HTM    S14 9388  10.412   4.115   1.941 -0.2774  0.1791  0.0531
   28TAL   C135 9389  10.725   4.023   1.683  0.7570 -0.3417  0.0657
   28TAL   C136 9390  10.689   3.879   1.637 -0.2220  0.4502  0.1066
   28TAL   C137 9391  10.721   3.841   1.489  0.3750 -0.6559 -1.2294
   28TAL   C138 9392  10.875   3.838   1.463 -0.1645 -0.6915 -0.0556
   28TAL   C139 9393  10.906   3.850   1.322  0.9780 -0.3519  0.2634
   28TAL   C140 9394  11.047   3.848   1.280 -0.1716 -0.7595  1.0079
   29HTM   C141 9395  10.396   4.003   1.693  0.9890  0.7894 -0.2046
   29HTM   C142 9396  10.299   3.911   1.720  1.0524  0.8836  0.3753
   29HTM   C143 9397  10.231   3.863   1.602  0.5935  0.6303  0.7386
   29HTM   C144 9398  10.276   3.918   1.486  0.1802  0.3431  0.4356
   29HTM    S15 9399  10.410   4.036   1.516  0.3398  0.3704 -0.3380
   30TAL   C145 9400  10.115   3.765   1.606 -0.5139  0.7276  0.6298
   30TAL   C146 9401  10.151   3.625   1.665 -0.5246  0.4926 -0.2701
   30TAL   C147 9402  10.028   3.573   1.743 -0.2955  0.4140 -1.9120
   30TAL   C148 9403  10.005   3.423   1.723  0.0789  0.1993  0.4113
   30TAL   C149 9404   9.901   3.362   1.819  0.4269 -0.4189  0.2616
   30TAL   C150 9405   9.933   3.219   1.845  0.4537  0.7604 -0.6656
   31HTM   C151 9406  10.244   3.899   1.342  0.3321  0.1873  0.0570
   31HTM   C152 9407  10.295   3.973   1.240  0.3220 -0.0214 -0.1018
   31HTM   C153 9408  10.227   3.954   1.114  0.0839 -0.0180  0.0244
   31HTM   C154 9409  10.125   3.864   1.120 -0.0876  0.1934  0.2794
   31HTM    S16 9410  10.105   3.797   1.287  0.0393  0.4062  0.3807
   32TAL   C155 9411  10.258   4.049   1.004 -0.5115 -0.0115 -0.9225
   32TAL   C156 9412  10.191   4.189   1.010  0.7445 -1.2152 -0.1284
   32TAL   C157 9413  10.197   4.239   0.864  1.0807  0.7493 -0.5813
   32TAL   C158 9414  10.092   4.339   0.832  0.4626 -0.1079  0.0149
   32TAL   C159 9415   9.936   4.334   0.867 -0.9746  0.7326  1.1260
   32TAL   C160 9416   9.870   4.195   0.825 -0.0085 -0.3843 -0.0287
   33HTM   C161 9417  10.036   3.817   1.014 -0.2209  0.3554 -0.1096
   33HTM   C162 9418   9.901   3.794   1.020 -0.2908  0.6907 -0.3267
   33HTM   C163 9419   9.845   3.746   0.897 -0.2251  0.8847 -0.4347
   33HTM   C164 9420   9.936   3.731   0.797 -0.1052  0.6974 -0.3000
   33HTM    S17 9421  10.102   3.779   0.850 -0.0655  0.2581 -0.0241
   34TAL   C165 9422   9.710   3.692   0.884  0.1763 -0.4543  0.8811
   34TAL   C166 9423   9.597   3.804   0.906 -0.2230  0.7966  0.2414
   34TAL   C167 9424   9.621   3.928   0.822  0.7081 -0.4712  0.0565
   34TAL   C168 9425   9.534   3.949   0.701  0.4911 -0.0087 -0.7133
   34TAL   C169 9426   9.574   4.075   0.623  0.2645  0.0058 -0.1854
   34TAL   C170 9427   9.482   4.089   0.494 -0.2191  0.7043 -1.0389
   35HTM   C171 9428   9.918   3.719   0.656 -0.0099 -0.0776  0.7343
   35HTM   C172 9429   9.929   3.811   0.556  0.1543  0.1661  0.9746
   35HTM   C173 9430   9.896   3.760   0.425  0.5081  0.4421  0.7722
   35HTM   C174 9431   9.859   3.628   0.426  0.6137  0.4088  0.3777
   35HTM    S18 9432   9.864   3.559   0.592  0.2718  0.0234  0.2300
   36TAL   C175 9433   9.883   3.838   0.293 -1.5288  0.6547 -0.1749
   36TAL   C176 9434   9.790   3.956   0.286 -0.7521 -0.0198 -1.3076
   36TAL   C177 9435   9.842   4.059   0.196 -0.2988  0.4011  0.0555
   36TAL   C178 9436   9.819   4.002   0.051 -0.0620 -0.3573 -0.1634
   36TAL   C179 9437   9.860   4.102  -0.049 -0.0289 -0.5955 -0.6060
   36TAL   C180 9438   9.782   4.099  -0.173  0.3838 -0.5595  0.6518
   37HTM   C181 9439   9.814   3.537   0.326 -0.0174 -0.7402 -0.1188
   37HTM   C182 9440   9.753   3.417   0.349  0.6404 -1.0665 -0.0322
   37HTM   C183 9441   9.739   3.336   0.230  0.9668 -1.1780  0.0025
   37HTM   C184 9442   9.789   3.394   0.118  0.5576 -0.9368 -0.0577
   37HTM    S19 9443   9.858   3.557   0.152 -0.2778 -0.5470 -0.1637
   38TAL   C185 9444   9.664   3.208   0.250  0.5721  0.5860 -0.1193
   38TAL   C186 9445   9.515   3.233   0.237  0.0832 -0.5277 -0.4813
   38TAL   C187 9446   9.409   3.125   0.286 -0.8694 -0.5908  0.0756
   38TAL   C188 9447   9.270   3.185   0.306 -0.7235 -0.5950  0.7057
   38TAL   C189 9448   9.164   3.091   0.378 -0.5866 -0.6226  0.4897
   38TAL   C190 9449   9.017   3.147   0.351 -0.2566  0.6321  0.3195
   39HTM   C191 9450   9.820   3.320  -0.007 -0.5029  0.4042 -0.1780
   39HTM   C192 9451   9.938   3.312  -0.074 -0.1746 -0.0692  0.4373
   39HTM   C193 9452   9.928   3.244  -0.201  0.3281 -0.4845  0.6113
   39HTM   C194 9453   9.802   3.201  -0.230  0.3831 -0.3279  0.1287
   39HTM    S20 9454   9.685   3.243  -0.099 -0.2004  0.3618 -0.5885
   40TAL   C195 9455  10.050   3.232  -0.291 -0.2303  1.0507 -0.2244
   40TAL   C196 9456  10.144   3.348  -0.300 -0.7834  0.5658 -0.5644
   40TAL   C197 9457  10.208   3.400  -0.438  0.0572 -0.3763 -1.1324
   40TAL   C198 9458  10.291   3.532  -0.414  0.2827 -0.1050  1.0060
   40TAL   C199 9459  10.358   3.601  -0.528  0.0316 -1.0303  0.9732
   40TAL   C200 9460  10.284   3.617  -0.655  0.2968  0.1812 -0.2407
   41HTM   C201 9461   9.735   3.132  -0.343 -0.5136  0.2498  0.2148
   41HTM   C202 9462   9.607   3.088  -0.358 -0.5209  0.4160 -0.2427
   41HTM   C203 9463   9.587   3.009  -0.477 -0.1776  0.3629 -0.2682
   41HTM   C204 9464   9.699   2.993  -0.552  0.0914  0.1560  0.1702
   41HTM    S21 9465   9.841   3.077  -0.478 -0.0689  0.0112  0.6530
   42TAL   C205 9466   9.442   2.973  -0.514 -0.9084 -0.7419  1.0121
   42TAL   C206 9467   9.386   2.888  -0.405  0.3963  0.2295 -1.5771
   42TAL   C207 9468   9.242   2.854  -0.438 -0.4998  1.3205 -0.0252
   42TAL   C208 9469   9.226   2.722  -0.518  1.2199 -0.5008 -0.8165
   42TAL   C209 9470   9.075   2.689  -0.507 -0.2036  0.0066  0.6112
   42TAL   C210 9471   9.018   2.576  -0.600 -0.4715  0.8296  0.0062
   43HTM   C211 9472   9.717   2.909  -0.668 -0.0581 -0.4466  0.1473
   43HTM   C212 9473   9.631   2.906  -0.774 -0.0398 -0.4961  0.1340
   43HTM   C213 9474   9.680   2.830  -0.886  0.1547 -0.2119  0.0238
   43HTM   C214 9475   9.804   2.775  -0.866  0.2845  0.0546 -0.0465
   43HTM    S22 9476   9.868   2.817  -0.703  0.1706 -0.0336  0.0211
   44TAL   C215 9477   9.592   2.828  -1.016  0.0868 -1.2943  0.0492
   44TAL   C216 9478   9.549   2.698  -1.079  0.5079  0.3187  0.2271
   44TAL   C217 9479   9.461   2.607  -0.994  0.6548  0.1926  0.4076
   44TAL   C218 9480   9.531   2.550  -0.868  0.9251 -0.0191 -0.1023
   44TAL   C219 9481   9.436   2.474  -0.780 -0.0280 -0.2110 -0.3149
   44TAL   C220 9482   9.524   2.373  -0.710 -0.4640 -0.8909 -0.5102
   45HTM   C221 9483   9.890   2.710  -0.971  0.2676  0.0774  0.4332
   45HTM   C222 9484  10.003   2.767  -1.020  0.5746 -0.4141  0.5555
   45HTM   C223 9485  10.054   2.703  -1.138  0.1174 -0.3127  0.2999
   45HTM   C224 9486   9.979   2.596  -1.179 -0.5381  0.2560 -0.0170
   45HTM    S23 9487   9.838   2.569  -1.071 -0.6297  0.7113 -0.0173
   46TAL   C225 9488  10.181   2.750  -1.207 -0.1963 -0.7173 -1.2006
   46TAL   C226 9489  10.258   2.862  -1.134  1.1675  0.1089  0.8903
   46TAL   C227 9490  10.391   2.882  -1.194 -0.9200 -0.5055 -0.5557
   46TAL   C228 9491  10.463   3.022  -1.166  0.9346 -0.3139  0.9338
   46TAL   C229 9492  10.606   2.991  -1.171  0.5522  0.1558  0.0639
   46TAL   C230 9493  10.681   3.122  -1.160  0.4222 -0.2699  0.5483
   47HTM   C231 9494   9.998   2.514  -1.305 -0.0438  0.1045 -0.1329
   47HTM   C232 9495  10.065   2.397  -1.324  0.3290  0.2981 -0.0367
   47HTM   C233 9496  10.048   2.342  -1.456  0.2025 -0.0528  0.1249
   47HTM   C234 9497   9.967   2.417  -1.537 -0.2667 -0.5141  0.1521
   47HTM    S24 9498   9.907   2.564  -1.452 -0.5877 -0.5412 -0.0255
   48TAL   C235 9499  10.111   2.206  -1.496  0.1178  0.1722 -0.7779
   48TAL   C236 9500  10.093   2.164  -1.637  1.1261  0.3499 -0.3234
   48TAL   C237 9501  10.089   2.021  -1.643  0.8739  0.3611  0.5804
   48TAL   C238 9502  10.039   1.963  -1.773 -1.0604  1.1795  1.0388
   48TAL   C239 9503   9.889   1.964  -1.809 -1.3354 -1.1430 -0.2254
   48TAL   C240 9504   9.895   1.951  -1.965  0.2609  0.2153 -0.1047
    1HTM     C1 9505   3.775   6.738   0.710  0.1075 -0.0091  0.2122
    1HTM     C2 9506   3.772   6.867   0.665  0.7662 -0.1934 -0.4111
    1HTM     C3 9507   3.651   6.902   0.596  1.0779  0.0070 -0.8660
    1HTM     C4 9508   3.561   6.799   0.587  0.6568  0.3440 -0.5896
    1HTM     S1 9509   3.624   6.650   0.667 -0.1724  0.4352  0.2734
    2TAL     C5 9510   3.638   7.037   0.536  0.1365 -0.0540 -0.2450
    2TAL     C6 9511   3.668   7.156   0.628  0.8223 -0.9085  0.2134
    2TAL     C7 9512   3.563   7.211   0.730 -1.3460 -0.6658  0.5258
    2TAL     C8 9513   3.429   7.277   0.682 -0.5026  0.0380  0.7002
    2TAL     C9 9514   3.445   7.416   0.635  0.2949  0.0126  0.4238
    2TAL    C10 9515   3.329   7.480   0.560 -0.0627  0.1055  0.6036
    3HTM    C11 9516   3.425   6.787   0.529 -0.4734 -0.2318 -0.1411
    3HTM    C12 9517   3.339   6.682   0.539 -0.2163 -0.6297 -1.6408
    3HTM    C13 9518   3.215   6.702   0.469  0.1916 -0.4411 -2.3244
    3HTM    C14 9519   3.207   6.822   0.405  0.2454  0.1003 -1.3460
    3HTM     S2 9520   3.356   6.920   0.429 -0.2184  0.4164  0.5293
    4TAL    C15 9521   3.124   6.588   0.478  0.6902 -0.5786 -0.1131
    4TAL    C16 9522   3.142   6.467   0.565 -0.0957  0.9059  0.3789
    4TAL    C17 9523   3.013   6.436   0.634  0.0926  0.1357 -0.8785
    4TAL    C18 9524   3.003   6.342   0.759  0.3240  0.2760 -0.2438
    4TAL    C19 9525   3.012   6.408   0.893  0.2484  0.3201 -2.0811
    4TAL    C20 9526   3.146   6.487   0.921 -0.1536 -0.7609 -0.3586
    5HTM    C21 9527   3.106   6.866   0.318 -0.1077 -0.6826  0.3753
    5HTM    C22 9528   3.123   6.971   0.233  0.4112 -0.6315  0.5341
    5HTM    C23 9529   3.002   7.012   0.167  0.6915 -0.2024  0.2766
    5HTM    C24 9530   2.893   6.938   0.202  0.3867  0.0734 -0.0786
    5HTM     S3 9531   2.935   6.810   0.322 -0.2835 -0.1892 -0.1157
    6TAL    C25 9532   3.005   7.139   0.089 -1.0524  0.2080  1.3221
    6TAL    C26 9533   3.117   7.250   0.104  0.0277 -0.7498 -0.1899
    6TAL    C27 9534   3.108   7.343   0.230 -1.3086 -0.6450  0.7719
    6TAL    C28 9535   3.227   7.436   0.237 -0.4759 -0.9461  0.1263
    6TAL    C29 9536   3.212   7.543   0.131 -1.1671 -0.0884 -0.0947
    6TAL    C30 9537   3.328   7.647   0.132 -0.4587  0.6563  1.1270
    7HTM    C31 9538   2.751   6.947   0.163 -0.2555  0.4842  0.2808
    7HTM    C32 9539   2.639   6.971   0.238 -0.5299  0.0620  0.0152
    7HTM    C33 9540   2.524   7.008   0.159 -0.5043 -0.4349 -0.2639
    7HTM    C34 9541   2.548   7.012   0.025 -0.2103 -0.3914 -0.2112
    7HTM     S4 9542   2.719   6.969  -0.013  0.0592  0.2858  0.1983
    8TAL    C35 9543   2.382   7.023   0.210 -0.1115  0.7940 -0.7133
    8TAL    C36 9544   2.341   7.161   0.254 -1.0853  0.3206  0.3741
    8TAL    C37 9545   2.214   7.141   0.323  0.1523 -0.0300  0.5892
    8TAL    C38 9546   2.131   7.259   0.390 -0.7940 -0.2966  1.0304
    8TAL    C39 9547   2.065   7.254   0.521  0.3933 -0.4852 -0.5756
    8TAL    C40 9548   2.041   7.379   0.603  0.5640  0.7574 -0.4508
    9HTM    C41 9549   2.466   7.053  -0.092  0.4275 -0.0641 -0.0885
    9HTM    C42 9550   2.440   7.179  -0.136  0.7247 -0.1676 -0.5734
    9HTM    C43 9551   2.363   7.183  -0.258  0.7815 -0.4522 -0.6199
    9HTM    C44 9552   2.330   7.060  -0.306  0.5276 -0.5656 -0.1708
    9HTM     S5 9553   2.395   6.929  -0.201  0.1944 -0.3200  0.3503
   10TAL    C45 9554   2.329   7.322  -0.311  0.8300  1.2043 -0.2219
   10TAL    C46 9555   2.432   7.402  -0.377 -0.1366 -0.3824  0.0430
   10TAL    C47 9556   2.359   7.513  -0.467 -0.5585  0.3335 -0.6274
   10TAL    C48 9557   2.278   7.625  -0.396  0.4991 -0.2342 -0.3142
   10TAL    C49 9558   2.239   7.751  -0.471 -0.8715 -0.3177  0.2363
   10TAL    C50 9559   2.189   7.757  -0.609  0.8412  0.6880  0.4922
   11HTM    C51 9560   2.255   7.022  -0.428  0.0941 -0.0765 -0.2714
   11HTM    C52 9561   2.222   7.095  -0.538  0.1912 -0.0372 -0.2751
   11HTM    C53 9562   2.146   7.022  -0.636  0.3469 -0.0249 -0.4048
   11HTM    C54 9563   2.123   6.892  -0.601  0.3685 -0.0550 -0.4999
   11HTM     S6 9564   2.194   6.853  -0.440  0.1926 -0.1013 -0.4328
   12TAL    C55 9565   2.092   7.083  -0.770  0.4308 -0.0211 -1.2152
   12TAL    C56 9566   2.156   7.208  -0.826  0.2548 -0.3969  0.7453
   12TAL    C57 9567   2.093   7.257  -0.956 -0.6927  0.0672  0.4073
   12TAL    C58 9568   2.150   7.403  -1.012  0.7748  1.1437 -0.5546
   12TAL    C59 9569   2.110   7.436  -1.154  0.7450 -0.8568  0.7331
   12TAL    C60 9570   2.164   7.566  -1.206 -1.1245 -0.2249 -0.4578
   13HTM    C61 9571   2.060   6.775  -0.669  0.7298 -0.6694 -0.3987
   13HTM    C62 9572   2.073   6.643  -0.638  0.6770 -0.8314 -1.0471
   13HTM    C63 9573   1.975   6.559  -0.701  0.2911 -0.4116 -1.0157
   13HTM    C64 9574   1.886   6.627  -0.779  0.0497  0.0704 -0.3430
   13HTM     S7 9575   1.921   6.804  -0.780  0.2929  0.0311  0.3080
   14TAL    C65 9576   1.994   6.408  -0.677  0.4495 -0.4056 -0.0178
   14TAL    C66 9577   1.969   6.373  -0.531  1.4975  0.3758 -0.7880
   14TAL    C67 9578   2.001   6.226  -0.498 -0.7720  0.6674  0.4075
   14TAL    C68 9579   1.952   6.163  -0.360  0.7990 -0.0549 -0.4060
   14TAL    C69 9580   1.801   6.173  -0.362  0.6368  0.9668  0.7955
   14TAL    C70 9581   1.723   6.109  -0.253 -0.9271 -0.5557 -0.9098
   15HTM    C71 9582   1.773   6.581  -0.849  0.1764 -0.9254  0.2651
   15HTM    C72 9583   1.705   6.462  -0.843  0.4165 -1.1158 -0.5560
   15HTM    C73 9584   1.603   6.449  -0.944  0.7411 -0.8177 -0.9322
   15HTM    C74 9585   1.593   6.557  -1.026  0.7485 -0.3996 -0.3980
   15HTM     S8 9586   1.712   6.685  -0.983  0.3429 -0.3501  0.6302
   16TAL    C75 9587   1.508   6.328  -0.925 -0.4535  0.1654  0.9270
   16TAL    C76 9588   1.560   6.200  -0.978  0.3970  1.0325  0.5888
   16TAL    C77 9589   1.448   6.086  -0.992 -0.6427 -0.1975  0.2550
   16TAL    C78 9590   1.516   5.989  -1.075 -0.1650 -0.2457  0.6008
   16TAL    C79 9591   1.446   5.850  -1.071 -0.6562 -0.2974  0.1608
   16TAL    C80 9592   1.496   5.753  -1.182  0.1464 -1.3711 -0.3377
   17HTM    C81 9593   1.498   6.589  -1.143  0.0927  0.3616 -0.1459
   17HTM    C82 9594   1.465   6.713  -1.189  0.2164  0.3549 -0.2556
   17HTM    C83 9595   1.376   6.711  -1.302  0.3691  0.3408 -0.3757
   17HTM    C84 9596   1.341   6.586  -1.343  0.3619  0.3369 -0.3583
   17HTM     S9 9597   1.419   6.459  -1.240  0.1600  0.3508 -0.1863
   18TAL    C85 9598   1.348   6.837  -1.380  0.6678 -0.0000 -0.7009
   18TAL    C86 9599   1.473   6.892  -1.455 -0.9553  0.4419 -0.2504
   18TAL    C87 9600   1.460   7.036  -1.483 -0.7249 -1.0419 -0.5269
   18TAL    C88 9601   1.589   7.102  -1.532  0.4920  0.3462 -0.6343
   18TAL    C89 9602   1.594   7.246  -1.557 -0.8384 -0.5418  0.5533
   18TAL    C90 9603   1.646   7.336  -1.451  0.0317 -0.1824 -0.5850
   19HTM    C91 9604   1.254   6.545  -1.449  0.0813 -0.2996  0.1345
   19HTM    C92 9605   1.119   6.534  -1.452  0.1255 -0.8818  0.2117
   19HTM    C93 9606   1.067   6.491  -1.579  0.2292 -1.0045  0.2100
   19HTM    C94 9607   1.163   6.470  -1.673  0.2641 -0.5158  0.1321
   19HTM    S10 9608   1.328   6.503  -1.608  0.1679  0.1425  0.0541
   20TAL    C95 9609   0.917   6.486  -1.614  0.8464  0.1639 -0.6409
   20TAL    C96 9610   0.839   6.613  -1.596  0.0291 -0.4817 -0.4504
   20TAL    C97 9611   0.905   6.733  -1.670 -0.4124 -0.8345  0.1247
   20TAL    C98 9612   0.869   6.784  -1.812 -0.1496 -0.9843  0.4298
   20TAL    C99 9613   0.716   6.809  -1.845  0.1774  0.3941  0.1331
   20TAL   C100 9614   0.681   6.815  -1.984 -0.2293  0.3302  0.0339
   21HTM   C101 9615   1.153   6.421  -1.808  0.2004  0.1523  0.1455
   21HTM   C102 9616   1.049   6.357  -1.870  0.1261  0.3486  0.0648
   21HTM   C103 9617   1.081   6.309  -2.002  0.1312  0.3077  0.0808
   21HTM   C104 9618   1.209   6.336  -2.041  0.2094  0.0806  0.1736
   21HTM    S11 9619   1.300   6.426  -1.913  0.2833 -0.1009  0.2489
   22TAL   C105 9620   0.990   6.210  -2.070 -0.1576  0.7948  0.2780
   22TAL   C106 9621   0.844   6.207  -2.042  1.2036 -0.3476  0.3628
   22TAL   C107 9622   0.770   6.142  -2.166 -0.0090  0.4572  0.1326
   22TAL   C108 9623   0.617   6.155  -2.183 -0.8598  0.4475  0.5941
   22TAL   C109 9624   0.530   6.031  -2.151 -0.1710  0.5134 -0.3764
   22TAL   C110 9625   0.380   6.066  -2.122  0.4974 -0.3913  0.0210
   23HTM   C111 9626   1.277   6.321  -2.165 -0.1143  0.2022 -0.0653
   23HTM   C112 9627   1.346   6.216  -2.219 -0.3937  0.1132 -0.2580
   23HTM   C113 9628   1.390   6.239  -2.354 -0.4642  0.1848 -0.2688
   23HTM   C114 9629   1.354   6.361  -2.404 -0.2385  0.3283 -0.0843
   23HTM    S12 9630   1.261   6.457  -2.282  0.0831  0.3846  0.1192
   24TAL   C115 9631   1.482   6.144  -2.431  0.0297  0.5150  0.1389
   24TAL   C116 9632   1.525   6.021  -2.343  0.1802 -0.2742  0.4793
   24TAL   C117 9633   1.422   5.916  -2.323 -0.3386  0.4643  0.8125
   24TAL   C118 9634   1.497   5.787  -2.267 -0.2318  0.4154  0.6715
   24TAL   C119 9635   1.399   5.672  -2.253 -0.1581  0.5811 -0.1586
   24TAL   C120 9636   1.293   5.678  -2.143  0.3806  1.5282 -0.6938
   25HTM   C121 9637   1.366   6.414  -2.538 -1.2528  0.1631 -0.0584
   25HTM   C122 9638   1.427   6.534  -2.562 -2.1284  0.6298 -0.0447
   25HTM   C123 9639   1.472   6.549  -2.698 -1.6669  0.6940  0.1097
   25HTM   C124 9640   1.445   6.442  -2.777 -0.4394  0.2762  0.2137
   25HTM    S13 9641   1.360   6.311  -2.686  0.2342 -0.2345  0.1242
   26TAL   C125 9642   1.553   6.664  -2.758  0.3872 -0.2426  0.4241
   26TAL   C126 9643   1.506   6.807  -2.735 -0.0886 -0.0962  0.9208
   26TAL   C127 9644   1.578   6.905  -2.815 -0.0009 -1.2441 -0.2405
   26TAL   C128 9645   1.586   7.054  -2.793  0.4305 -0.4165  0.2915
   26TAL   C129 9646   1.672   7.092  -2.681 -0.3117  0.4931 -1.3913
   26TAL   C130 9647   1.749   7.221  -2.699 -0.9282 -0.9922 -0.4762
   27HTM   C131 9648   1.443   6.417  -2.920  0.2936 -0.0179  0.3950
   27HTM   C132 9649   1.350   6.342  -2.984 -0.1758  0.4964  0.4609
   27HTM   C133 9650   1.373   6.330  -3.126 -0.5009  0.5927  0.3974
   27HTM   C134 9651   1.484   6.396  -3.169 -0.2794  0.1517  0.2831
   27HTM    S14 9652   1.569   6.479  -3.033  0.3620 -0.4239  0.2463
   28TAL   C135 9653   1.280   6.260  -3.214 -0.4603 -0.1383  0.9252
   28TAL   C136 9654   1.278   6.101  -3.213 -0.2986 -1.0260  0.3627
   28TAL   C137 9655   1.187   6.028  -3.318  0.1573 -0.5216 -0.9213
   28TAL   C138 9656   1.174   5.880  -3.297 -0.8047  0.2303  0.7348
   28TAL   C139 9657   1.166   5.821  -3.156 -0.2867 -0.2328  0.1644
   28TAL   C140 9658   1.074   5.868  -3.042  0.6585  0.2575 -0.6394
   29HTM   C141 9659   1.527   6.436  -3.307  0.2172 -0.2494 -0.4265
   29HTM   C142 9660   1.578   6.560  -3.336  0.9263 -0.4874 -0.2357
   29HTM   C143 9661   1.633   6.571  -3.468  1.0397 -0.6112 -0.1996
   29HTM   C144 9662   1.624   6.456  -3.541  0.4171 -0.4676 -0.3627
   29HTM    S15 9663   1.545   6.324  -3.447 -0.3669 -0.1626 -0.5765
   30TAL   C145 9664   1.693   6.699  -3.509  1.9497  0.0823  1.1692
   30TAL   C146 9665   1.808   6.771  -3.449  1.1797  1.2534 -0.0605
   30TAL   C147 9666   1.787   6.920  -3.448 -0.7959 -0.0281 -0.0912
   30TAL   C148 9667   1.729   6.963  -3.310 -0.0461  0.0152  0.1278
   30TAL   C149 9668   1.783   7.088  -3.241  0.9077 -0.0220 -0.0820
   30TAL   C150 9669   1.741   7.123  -3.096 -0.7476 -0.9207  0.0022
   31HTM   C151 9670   1.657   6.425  -3.686 -0.7210 -0.3194  0.0463
   31HTM   C152 9671   1.649   6.303  -3.747 -0.7782 -0.3253  0.0651
   31HTM   C153 9672   1.664   6.308  -3.890 -0.3810 -0.3964  0.1004
   31HTM   C154 9673   1.682   6.434  -3.939 -0.0208 -0.4448  0.1086
   31HTM    S16 9674   1.683   6.557  -3.807 -0.1565 -0.4039  0.0720
   32TAL   C155 9675   1.663   6.185  -3.984  0.0729  0.0302  0.6275
   32TAL   C156 9676   1.687   6.044  -3.925 -0.7025 -0.5430  0.7891
   32TAL   C157 9677   1.680   5.951  -4.043 -0.9251  0.6535  0.0805
   32TAL   C158 9678   1.663   5.796  -4.025 -1.4535  0.3500 -0.1308
   32TAL   C159 9679   1.516   5.766  -4.038  0.2887  0.4624  0.9565
   32TAL   C160 9680   1.489   5.635  -4.107 -0.6671  0.7746  0.0013
   33HTM   C161 9681   1.709   6.477  -4.078 -0.1746  0.2464 -0.2797
   33HTM   C162 9682   1.649   6.433  -4.193 -0.4917  0.5535 -0.2378
   33HTM   C163 9683   1.704   6.491  -4.313 -0.3748  0.3818 -0.2685
   33HTM   C164 9684   1.805   6.579  -4.290  0.0314 -0.0562 -0.3338
   33HTM    S17 9685   1.839   6.596  -4.113  0.3000 -0.2876 -0.3618
   34TAL   C165 9686   1.658   6.454  -4.454  0.8011 -0.4320  0.1551
   34TAL   C166 9687   1.550   6.353  -4.477  0.4509 -0.5899 -0.4973
   34TAL   C167 9688   1.511   6.328  -4.625  0.7400  0.5019 -0.9346
   34TAL   C168 9689   1.402   6.214  -4.625 -1.1590 -1.1330 -0.1687
   34TAL   C169 9690   1.353   6.182  -4.770 -0.4420  0.6317 -0.9856
   34TAL   C170 9691   1.317   6.038  -4.762  0.1936 -0.2535  0.1909
   35HTM   C171 9692   1.893   6.669  -4.367 -0.4141  0.5309  0.3478
   35HTM   C172 9693   2.028   6.663  -4.351 -0.3977  0.5250  0.2135
   35HTM   C173 9694   2.102   6.716  -4.462 -0.5017  0.2612  0.0168
   35HTM   C174 9695   2.024   6.762  -4.564 -0.5972  0.0659  0.0010
   35HTM    S18 9696   1.848   6.742  -4.526 -0.5632  0.2011  0.2352
   36TAL   C175 9697   2.251   6.719  -4.468  0.2160  0.2438  0.2886
   36TAL   C176 9698   2.344   6.591  -4.483  0.0122  0.5663  0.1038
   36TAL   C177 9699   2.486   6.620  -4.532  0.6959 -0.7760  0.6341
   36TAL   C178 9700   2.513   6.685  -4.665 -0.3746 -0.8986  1.0224
   36TAL   C179 9701   2.660   6.708  -4.674 -0.4495  0.4432  0.1332
   36TAL   C180 9702   2.703   6.795  -4.785  1.1349 -0.1850  0.7347
   37HTM   C181 9703   2.059   6.815  -4.692 -0.3253  0.4681 -0.0636
   37HTM   C182 9704   2.016   6.781  -4.817 -0.2497  0.7786 -0.1752
   37HTM   C183 9705   2.063   6.870  -4.920  0.2494  0.7308  0.0057
   37HTM   C184 9706   2.142   6.971  -4.874  0.5545  0.3838  0.2552
   37HTM    S19 9707   2.163   6.962  -4.695  0.2325  0.0884  0.2812
   38TAL   C185 9708   2.053   6.830  -5.069 -0.2216  0.2175 -0.2797
   38TAL   C186 9709   1.938   6.744  -5.126  0.0694 -0.5739 -0.5410
   38TAL   C187 9710   1.963   6.679  -5.267  0.2138 -0.0821 -0.3364
   38TAL   C188 9711   1.964   6.762  -5.399 -1.7761 -0.0977 -0.1205
   38TAL   C189 9712   1.924   6.675  -5.512  0.4404  0.0127 -0.4652
   38TAL   C190 9713   1.865   6.759  -5.621  0.5520  0.8877 -0.8540
   39HTM   C191 9714   2.208   7.081  -4.939 -0.6092  0.0344 -0.2615
   39HTM   C192 9715   2.313   7.144  -4.879 -0.4690 -0.3530 -0.0916
   39HTM   C193 9716   2.385   7.232  -4.967  0.0240 -0.6407  0.0150
   39HTM   C194 9717   2.335   7.237  -5.093  0.2596 -0.4730 -0.0735
   39HTM    S20 9718   2.192   7.128  -5.112 -0.1258  0.0658 -0.3002
   40TAL   C195 9719   2.503   7.321  -4.915 -0.3271  0.1649 -0.2984
   40TAL   C196 9720   2.494   7.365  -4.771  0.1822 -0.9451 -0.2380
   40TAL   C197 9721   2.427   7.506  -4.748  0.1605  0.2096 -0.0470
   40TAL   C198 9722   2.476   7.626  -4.831  0.1396 -0.1655 -0.5080
   40TAL   C199 9723   2.352   7.698  -4.852  0.1646 -1.0103  0.1774
   40TAL   C200 9724   2.333   7.792  -4.968 -0.1087 -0.5605  0.8198
   41HTM   C201 9725   2.370   7.316  -5.209 -0.0466 -0.2082 -0.0502
   41HTM   C202 9726   2.326   7.439  -5.246 -0.4891 -0.2791  0.2334
   41HTM   C203 9727   2.384   7.488  -5.368 -0.9023  0.0764  0.1733
   41HTM   C204 9728   2.473   7.402  -5.425 -0.7748  0.4183 -0.1561
   41HTM    S21 9729   2.490   7.251  -5.328 -0.1179  0.3170 -0.4181
   42TAL   C205 9730   2.328   7.627  -5.412 -0.1604 -0.4494  0.2350
   42TAL   C206 9731   2.414   7.746  -5.444 -0.8333 -1.0794  0.6130
   42TAL   C207 9732   2.350   7.844  -5.538  0.6076  0.4144  0.3762
   42TAL   C208 9733   2.318   7.782  -5.674  0.0623  0.2408  0.3437
   42TAL   C209 9734   2.255   7.874  -5.766  0.1218 -0.7318  0.1977
   42TAL   C210 9735   2.255   7.812  -5.901  0.8443  0.2495  0.1192
   43HTM   C211 9736   2.539   7.400  -5.557 -0.2834  0.7181  0.6272
   43HTM   C212 9737   2.606   7.290  -5.603 -0.4351  0.4175  1.1179
   43HTM   C213 9738   2.661   7.306  -5.734 -0.5137 -0.2929  0.9892
   43HTM   C214 9739   2.637   7.429  -5.790 -0.4219 -0.5334  0.4001
   43HTM    S22 9740   2.541   7.534  -5.679 -0.2277  0.1230 -0.0410
   44TAL   C215 9741   2.754   7.197  -5.791 -0.5488 -0.8747 -0.0911
   44TAL   C216 9742   2.750   7.053  -5.725  0.0527  0.3156  0.0676
   44TAL   C217 9743   2.861   6.964  -5.801  0.2536 -0.8523 -0.7466
   44TAL   C218 9744   3.004   6.986  -5.763  0.1513  0.1571 -0.0994
   44TAL   C219 9745   3.043   7.001  -5.614 -0.3328  0.6035  0.4286
   44TAL   C220 9746   3.194   7.010  -5.576 -0.3095 -0.4686  0.2047
   45HTM   C221 9747   2.679   7.506  -5.903 -0.3269 -0.0553 -0.2181
   45HTM   C222 9748   2.807   7.510  -5.951 -0.3070  0.5456 -0.1241
   45HTM   C223 9749   2.818   7.570  -6.081 -0.5006  0.5518 -0.1382
   45HTM   C224 9750   2.699   7.612  -6.133 -0.6679 -0.0444 -0.2430
   45HTM    S23 9751   2.562   7.578  -6.020 -0.5936 -0.6648 -0.3326
   46TAL   C225 9752   2.954   7.578  -6.157  1.1090 -0.6000 -0.2817
   46TAL   C226 9753   3.037   7.446  -6.181 -0.2351 -1.2266 -0.8790
   46TAL   C227 9754   3.170   7.473  -6.247  1.0277  0.4959  0.0584
   46TAL   C228 9755   3.234   7.354  -6.301 -0.7904  0.9646  0.4006
   46TAL   C229 9756   3.279   7.241  -6.206 -0.6689 -0.5444  0.0181
   46TAL   C230 9757   3.395   7.157  -6.251  0.9799  0.2556  0.0077
   47HTM   C231 9758   2.656   7.665  -6.265 -0.8286 -0.0744 -0.8669
   47HTM   C232 9759   2.556   7.618  -6.345 -0.4839  0.2694 -1.5244
   47HTM   C233 9760   2.562   7.666  -6.480  0.1578  0.8123 -1.3156
   47HTM   C234 9761   2.666   7.750  -6.504  0.3026  0.8824 -0.4989
   47HTM    S24 9762   2.766   7.775  -6.356 -0.3657  0.2634  0.0742
   48TAL   C235 9763   2.445   7.626  -6.560 -0.2459  0.6320  0.5208
   48TAL   C236 9764   2.469   7.664  -6.710  0.1471  0.0075  0.6743
   48TAL   C237 9765   2.359   7.598  -6.800  0.6899 -0.6945 -1.7160
   48TAL   C238 9766   2.225   7.546  -6.744  0.6642 -0.3228  0.4595
   48TAL   C239 9767   2.148   7.473  -6.860 -1.0259 -0.3684  0.5974
   48TAL   C240 9768   2.032   7.400  -6.794 -0.5037  0.9218  0.4971
    1HTM     C1 9769   1.525   5.118   2.436 -0.1940 -0.5373 -0.2165
    1HTM     C2 9770   1.634   5.151   2.511  0.1014 -1.1013 -0.3866
    1HTM     C3 9771   1.610   5.147   2.653  0.2967 -0.9534 -0.3489
    1HTM     C4 9772   1.482   5.112   2.686  0.1503 -0.2763 -0.1503
    1HTM     S1 9773   1.382   5.080   2.540 -0.2488  0.2306  0.0061
    2TAL     C5 9774   1.717   5.176   2.762  0.8647  0.2834  0.7855
    2TAL     C6 9775   1.830   5.071   2.772 -0.5550  0.2470  0.0778
    2TAL     C7 9776   1.914   5.059   2.902  0.1923  0.9909  0.1045
    2TAL     C8 9777   1.863   4.975   3.021 -1.4217 -0.4012  0.1309
    2TAL     C9 9778   1.963   4.863   3.059  0.5553 -0.5237  0.1019
    2TAL    C10 9779   1.932   4.792   3.183  0.2784  0.3685 -0.1610
    3HTM    C11 9780   1.419   5.109   2.808 -0.0771  0.3213  0.0657
    3HTM    C12 9781   1.438   5.187   2.919 -0.1494  0.3741  0.0412
    3HTM    C13 9782   1.355   5.151   3.031 -0.0521  0.2751  0.0814
    3HTM    C14 9783   1.273   5.045   3.006  0.0944  0.1470  0.1366
    3HTM     S2 9784   1.294   4.983   2.838  0.1211  0.1411  0.1422
    4TAL    C15 9785   1.375   5.221   3.162  0.7969  0.8678 -0.5187
    4TAL    C16 9786   1.507   5.188   3.242  0.3677  0.1626 -0.1341
    4TAL    C17 9787   1.478   5.195   3.395  0.8553  0.6861  1.3442
    4TAL    C18 9788   1.547   5.108   3.495  0.5513 -0.1993 -0.5888
    4TAL    C19 9789   1.697   5.076   3.494 -0.2496  0.4243 -0.4273
    4TAL    C20 9790   1.758   5.037   3.631 -0.1307  0.6377 -0.3189
    5HTM    C21 9791   1.161   5.012   3.104 -0.1487 -0.3572  0.4433
    5HTM    C22 9792   1.169   4.947   3.224 -0.6428 -0.3850  0.4662
    5HTM    C23 9793   1.041   4.911   3.279 -0.8701 -0.5914 -0.1746
    5HTM    C24 9794   0.936   4.949   3.202 -0.5494 -0.7207 -0.6860
    5HTM     S3 9795   0.990   5.033   3.052  0.0694 -0.5910 -0.3959
    6TAL    C25 9796   1.039   4.839   3.415 -0.1634  0.1559 -0.4418
    6TAL    C26 9797   1.082   4.920   3.546 -0.8015  0.3932  0.5578
    6TAL    C27 9798   1.141   4.842   3.660  0.7538  0.5376 -0.5784
    6TAL    C28 9799   1.238   4.721   3.646 -0.9201 -0.4566  0.0329
    6TAL    C29 9800   1.386   4.749   3.604  0.5455  0.0396  0.2072
    6TAL    C30 9801   1.417   4.714   3.464 -0.0443  0.1450  0.9534
    7HTM    C31 9802   0.797   4.934   3.228  0.3836 -0.1413 -0.5272
    7HTM    C32 9803   0.695   4.990   3.156  0.5495 -0.3701 -0.9487
    7HTM    C33 9804   0.565   4.938   3.189  0.4804 -0.3308 -1.1545
    7HTM    C34 9805   0.568   4.843   3.286  0.2620 -0.0721 -0.8899
    7HTM     S4 9806   0.736   4.810   3.343  0.1254  0.1435 -0.3561
    8TAL    C35 9807   0.432   4.995   3.140 -0.6040 -0.6961  0.3395
    8TAL    C36 9808   0.435   5.140   3.088 -0.5030 -0.7309  0.1370
    8TAL    C37 9809   0.308   5.213   3.059  0.4744  0.8672  0.1444
    8TAL    C38 9810   0.322   5.360   3.037 -0.1223 -0.9373 -0.5361
    8TAL    C39 9811   0.230   5.426   2.934  0.2914 -0.0302  0.3788
    8TAL    C40 9812   0.253   5.577   2.912 -1.1518  1.0258 -1.2033
    9HTM    C41 9813   0.460   4.769   3.346 -0.0019 -0.1706 -0.3781
    9HTM    C42 9814   0.369   4.809   3.439  0.2625 -0.2788 -0.0699
    9HTM    C43 9815   0.274   4.707   3.475  0.3187 -0.2970  0.0284
    9HTM    C44 9816   0.292   4.589   3.409  0.0971 -0.2026 -0.2047
    9HTM     S5 9817   0.432   4.598   3.296 -0.2020 -0.0826 -0.5694
   10TAL    C45 9818   0.187   4.743   3.590  0.0069  0.4210  0.5475
   10TAL    C46 9819   0.243   4.759   3.731 -0.8452 -0.8245 -0.1409
   10TAL    C47 9820   0.143   4.778   3.832  0.6949  0.8817 -0.4565
   10TAL    C48 9821   0.182   4.790   3.988 -0.1619  0.0729  0.5231
   10TAL    C49 9822   0.285   4.895   4.026 -0.1671  0.2908 -0.6116
   10TAL    C50 9823   0.310   4.865   4.166 -0.9446  0.0427  0.1892
   11HTM    C51 9824   0.197   4.481   3.399  0.0442 -0.0281 -0.1000
   11HTM    C52 9825   0.191   4.392   3.296 -0.0685 -0.1919  0.0486
   11HTM    C53 9826   0.078   4.303   3.303 -0.0346 -0.2170  0.3419
   11HTM    C54 9827  -0.003   4.326   3.410  0.1039 -0.0719  0.4170
   11HTM     S6 9828   0.058   4.461   3.512  0.2027  0.1089  0.1208
   12TAL    C55 9829   0.062   4.205   3.192  0.2353  0.1180 -0.0549
   12TAL    C56 9830   0.136   4.214   3.059  0.3949  0.3920 -0.1154
   12TAL    C57 9831   0.036   4.268   2.949  0.3812  0.0064 -1.0021
   12TAL    C58 9832   0.064   4.411   2.903 -0.5102  0.1066 -0.0334
   12TAL    C59 9833   0.018   4.437   2.760 -0.4514 -0.6152  0.9700
   12TAL    C60 9834  -0.115   4.499   2.741  1.2703  0.0733 -0.5422
   13HTM    C61 9835  -0.129   4.265   3.447 -0.1391 -0.1454  0.4267
   13HTM    C62 9836  -0.176   4.236   3.571 -0.7970 -0.2331  0.1650
   13HTM    C63 9837  -0.308   4.178   3.571 -0.8585 -0.1137 -0.5596
   13HTM    C64 9838  -0.361   4.162   3.447 -0.2470  0.0651 -0.8506
   13HTM     S7 9839  -0.248   4.220   3.319  0.4588  0.0967 -0.2269
   14TAL    C65 9840  -0.373   4.140   3.704  0.4040  0.8662  0.5352
   14TAL    C66 9841  -0.496   4.227   3.736  0.0438  0.2836 -0.8657
   14TAL    C67 9842  -0.486   4.364   3.795  0.4466 -0.1127 -0.8726
   14TAL    C68 9843  -0.632   4.367   3.845  0.3351 -0.1637 -0.1079
   14TAL    C69 9844  -0.669   4.512   3.885 -0.2879  0.4197 -0.0594
   14TAL    C70 9845  -0.645   4.552   4.034  0.0329 -0.2951  0.6049
   15HTM    C71 9846  -0.489   4.093   3.406  0.1123 -0.1314 -0.6904
   15HTM    C72 9847  -0.541   3.975   3.448  0.0410 -0.0671 -0.5976
   15HTM    C73 9848  -0.666   3.940   3.385 -0.3002  0.2593 -0.1147
   15HTM    C74 9849  -0.709   4.033   3.295 -0.4888  0.4438  0.1604
   15HTM     S8 9850  -0.594   4.172   3.282 -0.2485  0.2178 -0.1714
   16TAL    C75 9851  -0.735   3.807   3.429  0.2637  0.3843 -0.2306
   16TAL    C76 9852  -0.713   3.737   3.568  0.1432 -0.7244  0.3851
   16TAL    C77 9853  -0.740   3.826   3.690  0.3871  0.3743 -0.7019
   16TAL    C78 9854  -0.606   3.852   3.768  0.5942 -0.2502 -1.2764
   16TAL    C79 9855  -0.546   3.758   3.867  0.1194  0.0979 -0.9680
   16TAL    C80 9856  -0.471   3.839   3.986  0.1857  0.0757  1.2765
   17HTM    C81 9857  -0.814   4.023   3.199  0.2884  0.2029  0.4241
   17HTM    C82 9858  -0.819   4.073   3.073  0.6764 -0.5506  0.0936
   17HTM    C83 9859  -0.947   4.055   3.008  0.7930 -0.7081 -0.0925
   17HTM    C84 9860  -1.038   3.990   3.086  0.4936 -0.0746  0.0961
   17HTM     S9 9861  -0.971   3.947   3.247  0.0378  0.7766  0.5268
   18TAL    C85 9862  -0.976   4.111   2.871  0.1300  0.7417  0.0645
   18TAL    C86 9863  -0.939   4.256   2.852 -0.4493 -0.8198  0.3471
   18TAL    C87 9864  -0.983   4.322   2.712 -0.0843  0.1375  1.4707
   18TAL    C88 9865  -1.128   4.346   2.688 -0.6066  0.5928  0.1006
   18TAL    C89 9866  -1.218   4.447   2.765  0.4997  0.0588  0.2382
   18TAL    C90 9867  -1.347   4.384   2.816 -0.2482  0.1920  0.2794
   19HTM    C91 9868  -1.183   3.965   3.049 -0.1660 -0.5586  0.2160
   19HTM    C92 9869  -1.251   3.851   3.017 -0.4814 -0.2795 -0.1281
   19HTM    C93 9870  -1.390   3.873   2.991 -0.3541  0.2377 -0.4141
   19HTM    C94 9871  -1.429   4.003   3.003  0.0587  0.3529 -0.2880
   19HTM    S10 9872  -1.291   4.109   3.049  0.3202 -0.1872  0.2056
   20TAL    C95 9873  -1.495   3.769   2.964  0.3879 -0.9296 -0.1350
   20TAL    C96 9874  -1.471   3.689   2.838  0.1807 -0.3719 -0.8512
   20TAL    C97 9875  -1.579   3.589   2.802 -0.5545 -0.5742  0.1858
   20TAL    C98 9876  -1.623   3.480   2.906 -0.5666 -0.0626  0.2700
   20TAL    C99 9877  -1.542   3.344   2.912 -1.1862 -0.4790 -1.7504
   20TAL   C100 9878  -1.591   3.225   2.835  1.2125 -0.5713  0.2626
   21HTM   C101 9879  -1.556   4.064   2.982  0.0019  0.3713 -1.2149
   21HTM   C102 9880  -1.589   4.181   3.042  0.0041  0.4511 -1.3686
   21HTM   C103 9881  -1.724   4.224   3.015 -0.0875  0.2745 -1.1984
   21HTM   C104 9882  -1.793   4.139   2.935 -0.1591  0.0603 -0.9148
   21HTM    S11 9883  -1.693   3.997   2.886 -0.1162  0.0649 -0.8403
   22TAL   C105 9884  -1.774   4.361   3.067 -0.1519 -0.1767 -0.7015
   22TAL   C106 9885  -1.726   4.487   2.988 -0.2202 -0.1417  0.1583
   22TAL   C107 9886  -1.814   4.574   2.891 -0.7437  0.6010  0.2057
   22TAL   C108 9887  -1.766   4.712   2.874  0.0221 -0.2184  0.0117
   22TAL   C109 9888  -1.860   4.787   2.770  0.0733  0.2233 -0.5346
   22TAL   C110 9889  -1.849   4.739   2.622  0.2982 -0.6669 -0.0691
   23HTM   C111 9890  -1.937   4.144   2.908  0.3130 -0.0927 -0.3671
   23HTM   C112 9891  -2.019   4.244   2.865  0.0274 -0.3515 -0.4324
   23HTM   C113 9892  -2.151   4.200   2.831  0.0039 -0.6727  0.0580
   23HTM   C114 9893  -2.171   4.066   2.848  0.2719 -0.6586  0.4973
   23HTM    S12 9894  -2.021   3.985   2.909  0.5768 -0.2356  0.3243
   24TAL   C115 9895  -2.251   4.297   2.751 -0.1573 -1.3270  0.7899
   24TAL   C116 9896  -2.172   4.373   2.644  1.0149  0.4905  0.5718
   24TAL   C117 9897  -2.231   4.497   2.568 -0.0421  0.2682 -0.2900
   24TAL   C118 9898  -2.159   4.542   2.440  0.9391  0.4379  0.7323
   24TAL   C119 9899  -2.254   4.653   2.395  0.2431 -0.3895  0.0662
   24TAL   C120 9900  -2.204   4.758   2.287 -0.5478  0.5063  0.0872
   25HTM   C121 9901  -2.295   3.998   2.808  0.1182  0.4745 -0.0131
   25HTM   C122 9902  -2.425   4.024   2.839 -0.0291  0.4591 -0.6012
   25HTM   C123 9903  -2.514   3.916   2.809  0.0932  0.5033 -1.1435
   25HTM   C124 9904  -2.452   3.807   2.755  0.3336  0.5526 -0.9688
   25HTM    S13 9905  -2.275   3.833   2.738  0.4249  0.5469 -0.0991
   26TAL   C125 9906  -2.668   3.940   2.836  0.1144 -0.0349  1.0889
   26TAL   C126 9907  -2.718   3.945   2.972  0.7732  0.8081  0.7896
   26TAL   C127 9908  -2.685   3.826   3.067 -0.5562 -0.2331  0.5639
   26TAL   C128 9909  -2.729   3.848   3.213  0.3669 -0.6883  0.1206
   26TAL   C129 9910  -2.849   3.764   3.265  0.8037 -0.6819  0.1888
   26TAL   C130 9911  -2.937   3.821   3.376 -0.9480  0.7922 -0.2548
   27HTM   C131 9912  -2.516   3.681   2.708 -0.5476  0.1090 -0.5658
   27HTM   C132 9913  -2.618   3.602   2.751 -0.6688  0.2562 -0.5788
   27HTM   C133 9914  -2.634   3.481   2.673 -0.6915  0.1729 -0.4454
   27HTM   C134 9915  -2.544   3.469   2.571 -0.5878 -0.0379 -0.3308
   27HTM    S14 9916  -2.431   3.610   2.565 -0.4522 -0.1483 -0.3827
   28TAL   C135 9917  -2.748   3.387   2.716 -0.4512 -0.2716  0.3508
   28TAL   C136 9918  -2.715   3.251   2.783 -0.4425  0.1972 -0.8140
   28TAL   C137 9919  -2.643   3.221   2.915  0.0244 -1.0035  0.4772
   28TAL   C138 9920  -2.650   3.076   2.957 -0.0570  0.1518 -0.0576
   28TAL   C139 9921  -2.561   2.979   2.873 -0.1031 -0.8680 -0.5883
   28TAL   C140 9922  -2.409   2.966   2.908  0.0078 -0.7664 -0.2273
   29HTM   C141 9923  -2.511   3.376   2.474 -0.0920 -0.0546  0.4853
   29HTM   C142 9924  -2.479   3.397   2.343 -0.3589  0.1639  0.4541
   29HTM   C143 9925  -2.413   3.286   2.281 -0.5732  0.2301  0.1035
   29HTM   C144 9926  -2.394   3.179   2.364 -0.4695  0.0620 -0.1327
   29HTM    S15 9927  -2.459   3.212   2.529 -0.0906 -0.1947  0.0710
   30TAL   C145 9928  -2.397   3.303   2.135 -0.7630 -0.9296 -0.4575
   30TAL   C146 9929  -2.461   3.216   2.020 -0.2403 -1.5883 -1.1944
   30TAL   C147 9930  -2.375   3.195   1.897 -0.4278  0.4045  0.3207
   30TAL   C148 9931  -2.442   3.117   1.780  0.3612 -0.1925 -0.2225
   30TAL   C149 9932  -2.574   3.184   1.722 -0.2872 -0.3471 -0.7643
   30TAL   C150 9933  -2.600   3.128   1.589  0.5871  0.5924  0.7389
   31HTM   C151 9934  -2.312   3.057   2.344  0.3427  0.1899 -0.0822
   31HTM   C152 9935  -2.224   3.017   2.248  0.4613 -0.0788  0.1353
   31HTM   C153 9936  -2.176   2.883   2.266  0.3539 -0.0720  0.5061
   31HTM   C154 9937  -2.228   2.819   2.375  0.1534  0.2019  0.5714
   31HTM    S16 9938  -2.342   2.926   2.465  0.0840  0.4746  0.1665
   32TAL   C155 9939  -2.091   2.836   2.153 -0.2712  0.6833 -0.1356
   32TAL   C156 9940  -2.134   2.719   2.073  0.0431 -0.1686  0.6591
   32TAL   C157 9941  -2.037   2.696   1.954 -0.8000  0.0031 -1.6574
   32TAL   C158 9942  -2.004   2.799   1.842 -0.2622 -0.4167 -0.0103
   32TAL   C159 9943  -2.132   2.827   1.763 -0.4617  0.5375  0.4899
   32TAL   C160 9944  -2.114   2.952   1.687 -0.5889  0.3248 -0.2587
   33HTM   C161 9945  -2.185   2.678   2.421  0.0758 -0.2079  0.2859
   33HTM   C162 9946  -2.264   2.578   2.469  0.2569 -0.2524  0.4956
   33HTM   C163 9947  -2.196   2.452   2.482  0.3906 -0.1892  0.4138
   33HTM   C164 9948  -2.065   2.456   2.445  0.3115 -0.0967  0.1419
   33HTM    S17 9949  -2.017   2.620   2.389  0.0601 -0.0819 -0.0334
   34TAL   C165 9950  -2.270   2.324   2.527 -0.5090  0.0681  0.1714
   34TAL   C166 9951  -2.426   2.329   2.534 -0.4459 -0.4086  0.3557
   34TAL   C167 9952  -2.510   2.380   2.413 -0.0816 -0.4327  0.7245
   34TAL   C168 9953  -2.495   2.307   2.286 -0.0047  0.2444  0.6791
   34TAL   C169 9954  -2.356   2.292   2.219 -1.4531 -1.1119 -0.3548
   34TAL   C170 9955  -2.366   2.159   2.148  0.8841 -0.1724  0.3180
   35HTM   C171 9956  -1.974   2.347   2.423  0.0426 -0.1562  0.9147
   35HTM   C172 9957  -1.992   2.213   2.407  0.0271 -0.0873  0.2905
   35HTM   C173 9958  -1.876   2.144   2.357 -0.1645  0.2083 -0.6033
   35HTM   C174 9959  -1.769   2.225   2.335 -0.2953  0.3649 -0.6607
   35HTM    S18 9960  -1.807   2.397   2.375 -0.1855  0.1495  0.4182
   36TAL   C175 9961  -1.863   1.991   2.322 -0.0086  0.7831  0.9068
   36TAL   C176 9962  -1.945   1.875   2.388 -0.7393 -0.2111 -0.0372
   36TAL   C177 9963  -1.964   1.738   2.320 -0.9222 -1.2514 -0.6920
   36TAL   C178 9964  -1.833   1.658   2.290 -0.4381  0.0052 -0.1161
   36TAL   C179 9965  -1.858   1.531   2.223 -0.5405  1.4573  0.4152
   36TAL   C180 9966  -1.747   1.437   2.176 -0.5435 -0.3038 -0.7840
   37HTM   C181 9967  -1.632   2.194   2.291  0.3488 -0.1971  0.1980
   37HTM   C182 9968  -1.523   2.188   2.372  0.5212  0.2598  0.0065
   37HTM   C183 9969  -1.402   2.151   2.303  0.4914  0.4476 -0.1473
   37HTM   C184 9970  -1.419   2.129   2.170  0.2963  0.1338 -0.0730
   37HTM    S19 9971  -1.591   2.154   2.121  0.1343 -0.4275  0.1991
   38TAL   C185 9972  -1.267   2.150   2.380 -0.3215 -0.5069 -0.2479
   38TAL   C186 9973  -1.270   2.167   2.542  0.5741  0.3745 -0.8985
   38TAL   C187 9974  -1.227   2.045   2.620 -1.3195 -0.2764  0.5967
   38TAL   C188 9975  -1.097   1.992   2.605 -0.0103  0.6580  0.2565
   38TAL   C189 9976  -0.981   2.070   2.658  0.4612 -0.0062 -0.3646
   38TAL   C190 9977  -0.872   1.976   2.702  0.4122  0.2884 -0.5143
   39HTM   C191 9978  -1.339   2.068   2.067  0.0500  0.8764  0.1671
   39HTM   C192 9979  -1.370   2.040   1.937 -0.0172  1.7148 -0.0069
   39HTM   C193 9980  -1.259   1.991   1.860 -0.2410  1.4628 -0.1705
   39HTM   C194 9981  -1.144   1.980   1.932 -0.3445  0.4323 -0.1213
   39HTM    S20 9982  -1.166   2.033   2.103 -0.1659 -0.3055  0.1376
   40TAL   C195 9983  -1.267   1.942   1.719 -0.2518 -0.1190  0.4482
   40TAL   C196 9984  -1.344   1.810   1.688  0.9219  0.1118  0.8376
   40TAL   C197 9985  -1.304   1.683   1.762 -0.0431 -0.3272 -0.0421
   40TAL   C198 9986  -1.409   1.576   1.740  0.1647  0.9765  1.0334
   40TAL   C199 9987  -1.517   1.561   1.848 -0.0523  1.0022  0.1250
   40TAL   C200 9988  -1.564   1.430   1.826 -1.1013 -0.5443  1.0055
   41HTM   C201 9989  -1.003   1.954   1.885 -0.0249 -0.3759 -0.4786
   41HTM   C202 9990  -0.906   2.050   1.878 -0.2041 -0.1972 -0.5449
   41HTM   C203 9991  -0.773   1.997   1.863 -0.0565  0.0225 -0.0724
   41HTM   C204 9992  -0.769   1.860   1.858  0.2347  0.0113  0.3542
   41HTM    S21 9993  -0.934   1.788   1.872  0.3465 -0.2798  0.1909
   42TAL   C205 9994  -0.649   2.078   1.856 -0.9050  0.6604 -0.3505
   42TAL   C206 9995  -0.630   2.196   1.762  0.0899  0.5867 -0.2923
   42TAL   C207 9996  -0.538   2.306   1.807 -1.7063 -0.1920 -0.0534
   42TAL   C208 9997  -0.523   2.419   1.709 -0.6786 -0.1230 -0.0015
   42TAL   C209 9998  -0.462   2.385   1.574 -0.1787  0.4083  0.2730
   42TAL   C210 9999  -0.487   2.500   1.472  1.0889  0.8299 -0.4217
   43HTM   C21110000  -0.659   1.780   1.826 -0.2181 -0.1612  0.1036
   43HTM   C21210001  -0.624   1.732   1.703 -0.0646  0.1502  0.0230
   43HTM   C21310002  -0.501   1.658   1.703  0.1497  0.5004 -0.0933
   43HTM   C21410003  -0.441   1.649   1.825  0.1598  0.4561 -0.1013
   43HTM    S2210004  -0.537   1.735   1.951 -0.1028 -0.0353  0.0385
   44TAL   C21510005  -0.462   1.582   1.577 -0.3055 -0.1871  1.4796
   44TAL   C21610006  -0.381   1.666   1.475  0.6558 -0.7046 -0.0718
   44TAL   C21710007  -0.405   1.627   1.319 -0.5857  0.8079  0.2239
   44TAL   C21810008  -0.317   1.503   1.272  1.0199  0.0167 -0.5856
   44TAL   C21910009  -0.362   1.434   1.144 -0.2862 -0.4525  0.7922
   44TAL   C22010010  -0.470   1.321   1.169  0.1445  0.3488 -0.5360
   45HTM   C22110011  -0.309   1.591   1.860  0.5184  0.5755  0.2206
   45HTM   C22210012  -0.262   1.545   1.979  0.2692  0.1315  0.1496
   45HTM   C22310013  -0.130   1.489   1.971  0.1161 -0.2359  0.1373
   45HTM   C22410014  -0.076   1.493   1.846  0.2487 -0.0720  0.1990
   45HTM    S2310015  -0.189   1.568   1.727  0.5796  0.5639  0.2779
   46TAL   C22510016  -0.054   1.436   2.099  0.7091  0.1306 -0.0705
   46TAL   C22610017  -0.129   1.300   2.135 -0.8699 -0.6827 -0.5201
   46TAL   C22710018  -0.061   1.245   2.259 -0.5390 -0.3558  0.2140
   46TAL   C22810019  -0.069   1.092   2.265  0.9843  0.1665  0.3201
   46TAL   C22910020   0.019   1.001   2.363  1.3159 -0.2232 -0.3375
   46TAL   C23010021   0.042   1.065   2.502 -0.2350 -0.5649  0.2105
   47HTM   C23110022   0.060   1.463   1.812  0.6082 -0.6297  0.5374
   47HTM   C23210023   0.170   1.545   1.808  0.7356 -0.7792  0.8972
   47HTM   C23310024   0.295   1.474   1.800  0.6332 -0.9438  0.7334
   47HTM   C23410025   0.281   1.338   1.798  0.4277 -0.9198  0.2486
   47HTM    S2410026   0.107   1.289   1.806  0.3470 -0.6856 -0.0408
   48TAL   C23510027   0.431   1.540   1.801  0.3110 -0.0231  0.2278
   48TAL   C23610028   0.558   1.459   1.774  0.3966  0.3607  0.9045
   48TAL   C23710029   0.691   1.534   1.796  0.0300 -0.0198 -1.1327
   48TAL   C23810030   0.708   1.672   1.738 -0.4258  0.1482 -0.4594
   48TAL   C23910031   0.834   1.756   1.763 -0.1688 -0.4591  0.3269
   48TAL   C24010032   0.879   1.829   1.637  0.1145  0.2048  0.2329
    1HTM     C110033   2.045   0.799   6.620 -0.3055  0.6379  0.0059
    1HTM     C210034   1.956   0.846   6.712 -0.4960  1.1174 -0.4097
    1HTM     C310035   1.831   0.889   6.656 -0.3284  0.9687 -0.9035
    1HTM     C410036   1.824   0.875   6.520 -0.0101  0.3758 -0.8647
    1HTM     S110037   1.977   0.806   6.453  0.1034 -0.0441 -0.1960
    2TAL     C510038   1.706   0.912   6.750 -0.1867 -0.1572 -0.1073
    2TAL     C610039   1.734   0.942   6.899  0.2264 -1.4009 -0.0984
    2TAL     C710040   1.603   0.937   6.989 -0.0561 -0.2000 -0.0707
    2TAL     C810041   1.546   0.788   6.981  1.3472 -0.1811 -0.5424
    2TAL     C910042   1.636   0.670   7.013 -1.1631 -0.4212  0.8655
    2TAL    C1010043   1.575   0.592   7.120 -0.4687 -0.0939  0.1897
    3HTM    C1110044   1.726   0.908   6.426 -0.7836 -0.1425  0.2029
    3HTM    C1210045   1.645   1.017   6.411 -1.5384 -0.6399  0.5140
    3HTM    C1310046   1.556   1.008   6.298 -1.4552 -0.9202  0.4703
    3HTM    C1410047   1.569   0.892   6.228 -0.6371 -0.6366  0.1257
    3HTM     S210048   1.695   0.784   6.299  0.0975  0.0116 -0.1725
    4TAL    C1510049   1.452   1.112   6.279 -0.0051  0.7840  0.2158
    4TAL    C1610050   1.376   1.154   6.404 -0.2035 -0.6272 -1.3128
    4TAL    C1710051   1.267   1.247   6.380 -0.7013 -0.5011 -0.6059
    4TAL    C1810052   1.237   1.321   6.509 -0.3571 -0.3964  1.3839
    4TAL    C1910053   1.087   1.331   6.503 -0.7651 -0.2429  0.6550
    4TAL    C2010054   1.035   1.449   6.583  0.9414 -0.0063 -1.1828
    5HTM    C2110055   1.485   0.832   6.126  0.3732  0.7994  0.0378
    5HTM    C2210056   1.518   0.720   6.056  0.7588  0.7925  0.2297
    5HTM    C2310057   1.427   0.687   5.950  0.7382  0.1708  0.4278
    5HTM    C2410058   1.323   0.776   5.938  0.3370 -0.2962  0.3871
    5HTM     S310059   1.334   0.907   6.061 -0.0491  0.0153  0.0928
    6TAL    C2510060   1.443   0.563   5.863 -1.4574 -0.0165 -0.2938
    6TAL    C2610061   1.572   0.475   5.882 -0.5335 -0.7733  0.5521
    6TAL    C2710062   1.563   0.361   5.786  0.6861  0.1847  0.1920
    6TAL    C2810063   1.549   0.385   5.637  0.4765 -0.2571 -0.3244
    6TAL    C2910064   1.684   0.419   5.580  0.1997  1.1991 -0.1467
    6TAL    C3010065   1.688   0.448   5.433 -0.2586 -1.0482 -0.8321
    7HTM    C3110066   1.204   0.793   5.855  0.1039  0.9442 -0.6197
    7HTM    C3210067   1.086   0.848   5.895  0.1782  1.1015 -0.6188
    7HTM    C3310068   0.985   0.849   5.792 -0.0916  0.4808 -0.3669
    7HTM    C3410069   1.026   0.793   5.674 -0.3716 -0.1500 -0.1759
    7HTM     S410070   1.196   0.736   5.684 -0.3158 -0.0076 -0.3001
    8TAL    C3510071   0.842   0.892   5.809  0.5742  0.0433 -0.4733
    8TAL    C3610072   0.793   0.993   5.912 -0.1679 -0.3715 -0.6591
    8TAL    C3710073   0.827   1.127   5.862  0.3817  0.3167 -0.0154
    8TAL    C3810074   0.784   1.247   5.950 -0.2414 -0.4241 -0.4234
    8TAL    C3910075   0.779   1.385   5.871  1.4746  0.7985 -0.6086
    8TAL    C4010076   0.723   1.498   5.968 -0.2636  0.5654  0.4203
    9HTM    C4110077   0.954   0.783   5.550 -0.0828  0.1971 -0.5939
    9HTM    C4210078   0.935   0.867   5.445 -1.0391  0.3899 -0.2896
    9HTM    C4310079   0.863   0.807   5.335 -1.4368  0.3738 -0.0243
    9HTM    C4410080   0.827   0.677   5.357 -0.7837  0.1686 -0.1264
    9HTM     S510081   0.882   0.620   5.520  0.3933 -0.0216 -0.5688
   10TAL    C4510082   0.819   0.894   5.219  0.1740  0.4159  0.0880
   10TAL    C4610083   0.927   0.956   5.125  0.0190  1.1564  0.2153
   10TAL    C4710084   0.879   0.999   4.982 -0.3331  0.0823 -0.2927
   10TAL    C4810085   0.986   1.053   4.882 -0.1642 -0.5716 -1.5079
   10TAL    C4910086   1.093   0.945   4.854 -0.1335 -0.0147  0.2670
   10TAL    C5010087   1.233   0.973   4.916  0.2592 -0.3575  1.2759
   11HTM    C5110088   0.752   0.586   5.279 -0.4116  0.2894 -0.0255
   11HTM    C5210089   0.711   0.592   5.149  0.0001  0.1086 -0.1671
   11HTM    C5310090   0.663   0.467   5.097  0.4658 -0.0410 -0.2509
   11HTM    C5410091   0.667   0.365   5.188  0.4090  0.0257 -0.1733
   11HTM     S610092   0.732   0.420   5.347 -0.2419  0.2846  0.0135
   12TAL    C5510093   0.620   0.447   4.955 -0.5989  0.6513  0.0699
   12TAL    C5610094   0.524   0.547   4.900 -0.4661 -0.1908 -0.1899
   12TAL    C5710095   0.521   0.558   4.751 -0.0043 -0.2539  0.2864
   12TAL    C5810096   0.442   0.667   4.682  0.0887  0.6635 -0.4948
   12TAL    C5910097   0.511   0.691   4.541 -0.0838 -1.3185 -1.1318
   12TAL    C6010098   0.476   0.828   4.479 -0.3348  0.3474  0.4524
   13HTM    C6110099   0.664   0.223   5.159  0.3669  0.5236 -0.3485
   13HTM    C6210100   0.774   0.145   5.183  0.3067  0.5618  0.0596
   13HTM    C6310101   0.758   0.008   5.143  0.1463  0.3169  0.9137
   13HTM    C6410102   0.636  -0.019   5.087  0.0843  0.0918  1.1568
   13HTM     S710103   0.532   0.128   5.082  0.2247  0.1726  0.3194
   14TAL    C6510104   0.881  -0.084   5.171  1.3770  0.1605 -0.4544
   14TAL    C6610105   0.973  -0.037   5.284  0.0255 -0.6944  0.6824
   14TAL    C6710106   1.072  -0.154   5.300 -0.0269  0.4336  0.2155
   14TAL    C6810107   1.166  -0.156   5.420  0.0534  1.5265 -0.3341
   14TAL    C6910108   1.094  -0.205   5.539 -0.8923  0.8178 -0.3468
   14TAL    C7010109   1.190  -0.210   5.659 -0.1015  0.6081  0.1106
   15HTM    C7110110   0.579  -0.143   5.039  0.0147 -0.0345 -0.1169
   15HTM    C7210111   0.638  -0.265   5.031  0.0100 -0.0830  0.5199
   15HTM    C7310112   0.552  -0.368   4.979  0.1767 -0.2315  0.5337
   15HTM    C7410113   0.427  -0.324   4.947  0.3086 -0.2960 -0.0924
   15HTM     S810114   0.408  -0.147   4.980  0.2318 -0.1732 -0.7535
   16TAL    C7510115   0.600  -0.497   4.927  0.8347 -0.1802 -1.2788
   16TAL    C7610116   0.706  -0.570   5.010  0.5757  0.4845 -0.7365
   16TAL    C7710117   0.725  -0.717   4.984 -1.1898  0.9757 -0.2972
   16TAL    C7810118   0.628  -0.814   5.063  0.0596  0.5569 -0.4007
   16TAL    C7910119   0.650  -0.831   5.211  0.3553  0.2507 -0.1212
   16TAL    C8010120   0.511  -0.883   5.256 -1.0468  0.5184  1.7682
   17HTM    C8110121   0.307  -0.388   4.905  0.3887 -0.4797 -0.0562
   17HTM    C8210122   0.238  -0.352   4.793  1.2458 -0.3686 -0.5648
   17HTM    C8310123   0.147  -0.453   4.746  1.3391 -0.1829 -1.1563
   17HTM    C8410124   0.147  -0.566   4.822  0.5532 -0.1522 -1.0985
   17HTM     S910125   0.262  -0.554   4.960 -0.3729 -0.3573 -0.2865
   18TAL    C8510126   0.067  -0.429   4.618 -0.5751 -0.1998 -0.2029
   18TAL    C8610127   0.110  -0.482   4.480 -0.2388  1.0720  0.2468
   18TAL    C8710128   0.249  -0.451   4.435  0.1984  0.1228  0.1653
   18TAL    C8810129   0.284  -0.489   4.293  0.0965  0.4501  0.6018
   18TAL    C8910130   0.442  -0.481   4.252  0.5091  0.1741 -1.1128
   18TAL    C9010131   0.506  -0.345   4.282  0.7053 -0.8703  0.5785
   19HTM    C9110132   0.066  -0.692   4.819 -0.1311 -0.4613 -0.0966
   19HTM    C9210133   0.104  -0.823   4.820 -0.4954 -0.5667  0.0767
   19HTM    C9310134  -0.007  -0.915   4.816 -0.7560 -0.2656  0.2953
   19HTM    C9410135  -0.129  -0.854   4.812 -0.5909  0.0689  0.2885
   19HTM    S1010136  -0.113  -0.674   4.813 -0.0887  0.0296  0.0034
   20TAL    C9510137   0.018  -1.060   4.799  0.1740  0.9824 -0.5272
   20TAL    C9610138   0.101  -1.119   4.691  0.0821 -1.0502 -0.3963
   20TAL    C9710139   0.077  -1.262   4.659  0.2955 -0.5726  1.0923
   20TAL    C9810140   0.193  -1.318   4.575 -0.3781  0.5649 -0.1474
   20TAL    C9910141   0.300  -1.371   4.662  1.0317 -0.3403  0.1418
   20TAL   C10010142   0.399  -1.452   4.576  0.1158 -0.2547  0.3968
   21HTM   C10110143  -0.267  -0.905   4.794  0.1927  0.4312 -0.8474
   21HTM   C10210144  -0.305  -1.028   4.750 -0.1318  0.4077 -0.5159
   21HTM   C10310145  -0.447  -1.047   4.744 -0.1850  0.4458  0.4079
   21HTM   C10410146  -0.518  -0.938   4.784  0.0990  0.4982  0.7808
   21HTM    S1110147  -0.410  -0.802   4.832  0.4582  0.5035 -0.0121
   22TAL   C10510148  -0.502  -1.181   4.691  0.3337 -1.2051  1.1150
   22TAL   C10610149  -0.415  -1.302   4.716  0.4017  0.3997 -0.6349
   22TAL   C10710150  -0.403  -1.366   4.857 -0.1257 -1.0570  0.1136
   22TAL   C10810151  -0.340  -1.507   4.853  0.2335 -0.1957  0.5316
   22TAL   C10910152  -0.198  -1.503   4.808 -0.9835 -0.3832  1.2656
   22TAL   C11010153  -0.168  -1.563   4.666 -0.3318 -0.4929  0.3687
   23HTM   C11110154  -0.663  -0.927   4.822  0.0409 -0.0578  0.3046
   23HTM   C11210155  -0.758  -0.846   4.769 -0.0849 -0.2987  0.1590
   23HTM   C11310156  -0.890  -0.868   4.823 -0.1612 -0.8013 -0.2211
   23HTM   C11410157  -0.895  -0.967   4.917 -0.0928 -0.9444 -0.3655
   23HTM    S1210158  -0.732  -1.039   4.945  0.0739 -0.4505 -0.0302
   24TAL   C11510159  -1.011  -0.775   4.785 -0.2149 -0.7740  0.1851
   24TAL   C11610160  -1.017  -0.712   4.638 -0.2735  1.0401  0.1566
   24TAL   C11710161  -1.149  -0.638   4.599  0.0999  0.9265 -0.1801
   24TAL   C11810162  -1.196  -0.503   4.654 -0.6018 -0.5157  0.3885
   24TAL   C11910163  -1.078  -0.409   4.636 -0.1882 -0.4662  1.0366
   24TAL   C12010164  -1.116  -0.269   4.670  0.2024  0.3371  1.1499
   25HTM   C12110165  -1.006  -1.008   5.006  0.3506  0.1895 -0.3519
   25HTM   C12210166  -1.109  -1.085   4.960  1.0376 -0.7272 -0.4333
   25HTM   C12310167  -1.197  -1.131   5.065  1.3525 -1.5161 -0.5009
   25HTM   C12410168  -1.161  -1.089   5.189  0.9055 -1.2006 -0.4711
   25HTM    S1310169  -1.012  -0.988   5.185  0.0454  0.1275 -0.3543
   26TAL   C12510170  -1.334  -1.210   5.035 -1.2383 -0.1033  1.4170
   26TAL   C12610171  -1.437  -1.171   4.930 -0.5322 -0.2809 -1.4599
   26TAL   C12710172  -1.557  -1.255   4.920  0.2691  0.3815 -0.3019
   26TAL   C12810173  -1.539  -1.408   4.888  0.3062  0.3010 -0.5667
   26TAL   C12910174  -1.664  -1.494   4.936  0.7802 -0.3867  1.0455
   26TAL   C13010175  -1.645  -1.579   5.065  0.5393 -0.0120  0.8223
   27HTM   C13110176  -1.220  -1.109   5.323  1.1613 -0.2117  0.4490
   27HTM   C13210177  -1.279  -1.012   5.400  1.6348 -0.0119  0.5667
   27HTM   C13310178  -1.340  -1.062   5.520  1.0529  0.0744  0.3170
   27HTM   C13410179  -1.327  -1.197   5.536  0.1354 -0.0593  0.0090
   27HTM    S1410180  -1.237  -1.272   5.398 -0.0659 -0.3068  0.0103
   28TAL   C13510181  -1.409  -0.974   5.624 -0.1574  0.1010  0.0393
   28TAL   C13610182  -1.311  -0.903   5.704 -0.9796 -0.5399 -0.8520
   28TAL   C13710183  -1.364  -0.802   5.806 -0.8428 -1.4949  1.1288
   28TAL   C13810184  -1.253  -0.732   5.900  0.4522 -0.6420 -0.5046
   28TAL   C13910185  -1.118  -0.687   5.847  0.2059 -1.1110  0.1270
   28TAL   C14010186  -1.118  -0.580   5.734  0.0958  0.0994  0.8129
   29HTM   C14110187  -1.385  -1.277   5.634  0.0770  0.1240  0.3035
   29HTM   C14210188  -1.345  -1.297   5.763  0.1466 -0.2332  0.2273
   29HTM   C14310189  -1.432  -1.384   5.838  0.3490 -0.6828 -0.0502
   29HTM   C14410190  -1.538  -1.430   5.766  0.4333 -0.6682 -0.1856
   29HTM    S1510191  -1.537  -1.366   5.597  0.2630 -0.0813  0.0285
   30TAL   C14510192  -1.412  -1.439   5.984 -0.3833 -0.0606  0.2929
   30TAL   C14610193  -1.397  -1.349   6.108 -0.6979 -0.8702 -0.4441
   30TAL   C14710194  -1.262  -1.279   6.097 -1.2558  0.0089  1.1981
   30TAL   C14810195  -1.207  -1.191   6.219  0.0129  0.7529  0.9882
   30TAL   C14910196  -1.250  -1.235   6.361 -0.3663  0.0705  1.8989
   30TAL   C15010197  -1.168  -1.154   6.459 -0.0891 -0.1651 -0.0686
   31HTM   C15110198  -1.644  -1.530   5.799  0.2954 -0.0401 -0.0552
   31HTM   C15210199  -1.769  -1.506   5.847  0.3856  0.0792  0.1200
   31HTM   C15310200  -1.851  -1.624   5.858  0.1355  0.2227 -0.1944
   31HTM   C15410201  -1.788  -1.738   5.817 -0.1454  0.2128 -0.6093
   31HTM    S1610202  -1.619  -1.705   5.762 -0.1157  0.0197 -0.6353
   32TAL   C15510203  -1.993  -1.624   5.896  0.6294 -0.2522  0.1958
   32TAL   C15610204  -2.030  -1.582   6.042 -0.4389  0.1736  0.5897
   32TAL   C15710205  -2.164  -1.647   6.058  0.4570 -0.1404  0.4275
   32TAL   C15810206  -2.186  -1.683   6.196  0.1783 -0.1473  0.9841
   32TAL   C15910207  -2.298  -1.792   6.194 -0.2418  0.1262 -1.0426
   32TAL   C16010208  -2.262  -1.936   6.168  0.4851 -0.7604  0.7541
   33HTM   C16110209  -1.836  -1.877   5.814 -0.4177  0.0948 -0.5258
   33HTM   C16210210  -1.753  -1.977   5.857 -0.4325  0.1143 -0.4505
   33HTM   C16310211  -1.819  -2.104   5.872 -0.5406  0.2238  0.0269
   33HTM   C16410212  -1.952  -2.101   5.841 -0.6084  0.2876  0.3155
   33HTM    S1710213  -2.004  -1.936   5.789 -0.5401  0.2137  0.0045
   34TAL   C16510214  -1.757  -2.232   5.934 -0.4589  0.3575  0.3331
   34TAL   C16610215  -1.718  -2.360   5.862  0.7980  0.2111 -0.1396
   34TAL   C16710216  -1.656  -2.351   5.725 -0.3179 -0.3710  0.3628
   34TAL   C16810217  -1.632  -2.495   5.660  0.2673 -0.0033 -1.2979
   34TAL   C16910218  -1.481  -2.503   5.661 -0.8924  0.2601  0.9676
   34TAL   C17010219  -1.451  -2.643   5.611 -0.6886 -0.2287 -0.4095
   35HTM   C17110220  -2.055  -2.205   5.839 -0.3212  0.2110  0.0887
   35HTM   C17210221  -2.123  -2.262   5.942  0.5875 -0.4681  0.3388
   35HTM   C17310222  -2.221  -2.359   5.901  0.9888 -1.0178  0.6535
   35HTM   C17410223  -2.228  -2.376   5.766  0.3863 -0.7574  0.6436
   35HTM    S1810224  -2.110  -2.270   5.680 -0.7433  0.2094  0.2327
   36TAL   C17510225  -2.297  -2.439   6.004 -0.0107 -0.6427 -0.7913
   36TAL   C17610226  -2.206  -2.491   6.125 -0.9176  0.7694  0.5211
   36TAL   C17710227  -2.276  -2.567   6.233 -0.5592 -0.0294  0.1555
   36TAL   C17810228  -2.334  -2.701   6.193  0.7195 -0.2803  0.3368
   36TAL   C17910229  -2.421  -2.738   6.312  0.7345  1.7102  0.0132
   36TAL   C18010230  -2.470  -2.874   6.270  0.7781 -0.4530 -0.5067
   37HTM   C18110231  -2.307  -2.472   5.689  0.3440  0.6031  0.0066
   37HTM   C18210232  -2.418  -2.543   5.727  0.3282  0.9830  0.7076
   37HTM   C18310233  -2.464  -2.636   5.627 -0.2828  0.7170  1.2238
   37HTM   C18410234  -2.388  -2.636   5.514 -0.7329  0.1340  0.9162
   37HTM    S1910235  -2.253  -2.518   5.524 -0.4174 -0.1260 -0.0566
   38TAL   C18510236  -2.582  -2.730   5.661 -0.8299  0.8483  0.2791
   38TAL   C18610237  -2.514  -2.848   5.734  0.2523  0.7415 -0.0498
   38TAL   C18710238  -2.605  -2.972   5.773 -0.3079 -1.5208 -0.3999
   38TAL   C18810239  -2.698  -3.029   5.663  0.2459 -0.5007 -0.8629
   38TAL   C18910240  -2.768  -3.153   5.721  1.0315  0.6327  0.1716
   38TAL   C19010241  -2.889  -3.200   5.632  0.0344 -0.8009  0.0789
   39HTM   C19110242  -2.399  -2.728   5.394  0.4441 -0.1835 -0.3745
   39HTM   C19210243  -2.431  -2.860   5.393 -0.5114  0.0335 -0.7716
   39HTM   C19310244  -2.414  -2.923   5.265 -1.0937  0.3115 -0.9943
   39HTM   C19410245  -2.369  -2.839   5.168 -0.5823  0.3062 -0.7668
   39HTM    S2010246  -2.344  -2.672   5.231  0.6846 -0.0532 -0.2498
   40TAL   C19510247  -2.434  -3.070   5.239  0.7242  0.7446  0.0788
   40TAL   C19610248  -2.478  -3.165   5.345 -0.8687  0.1209 -0.7892
   40TAL   C19710249  -2.515  -3.299   5.269  0.3657 -0.3498  0.2785
   40TAL   C19810250  -2.514  -3.415   5.360 -0.4717  0.9614 -0.2547
   40TAL   C19910251  -2.589  -3.524   5.299  0.1036  0.7425  0.4559
   40TAL   C20010252  -2.735  -3.513   5.330 -0.0408 -0.8850 -0.5294
   41HTM   C20110253  -2.353  -2.843   5.033 -0.0833  0.2329  0.0926
   41HTM   C20210254  -2.451  -2.827   4.939 -0.1658 -0.3512  0.0676
   41HTM   C20310255  -2.401  -2.825   4.804 -0.2019 -0.5177  0.0516
   41HTM   C20410256  -2.266  -2.840   4.795 -0.1471 -0.0604  0.0643
   41HTM    S2110257  -2.190  -2.858   4.957 -0.0445  0.6210  0.0976
   42TAL   C20510258  -2.498  -2.784   4.693  0.1559  0.1890 -0.6104
   42TAL   C20610259  -2.636  -2.723   4.729  0.2155 -1.3595  0.3823
   42TAL   C20710260  -2.751  -2.827   4.721  0.8903 -0.7465  0.1644
   42TAL   C20810261  -2.747  -2.922   4.829  0.5052 -0.2405 -0.0238
   42TAL   C20910262  -2.840  -3.045   4.814 -0.1068 -0.2031 -0.1151
   42TAL   C21010263  -2.836  -3.155   4.912  0.7547 -1.0018 -0.5147
   43HTM   C21110264  -2.180  -2.816   4.673  0.1338  0.3335 -0.0448
   43HTM   C21210265  -2.106  -2.711   4.628 -0.0188  0.3309 -0.3035
   43HTM   C21310266  -2.029  -2.742   4.510 -0.1148  0.2085 -0.3361
   43HTM   C21410267  -2.043  -2.870   4.466 -0.0356  0.1177 -0.1021
   43HTM    S2210268  -2.158  -2.963   4.570  0.1681  0.1804  0.1797
   44TAL   C21510269  -1.924  -2.647   4.461  0.4354  0.2707 -0.6012
   44TAL   C21610270  -1.894  -2.509   4.523 -0.5757 -1.0503 -0.6657
   44TAL   C21710271  -1.750  -2.452   4.498  0.0775 -0.7967  0.0674
   44TAL   C21810272  -1.716  -2.297   4.521 -0.5925  1.2397 -0.7477
   44TAL   C21910273  -1.577  -2.242   4.494  0.5149  0.0722 -0.7024
   44TAL   C22010274  -1.567  -2.088   4.525 -0.4249 -0.3381 -0.0222
   45HTM   C22110275  -1.966  -2.937   4.357  0.1088 -0.4019 -0.1940
   45HTM   C22210276  -1.929  -3.069   4.354 -0.2820 -0.5083 -0.5698
   45HTM   C22310277  -1.861  -3.107   4.233 -0.3809 -0.3599 -0.6731
   45HTM   C22410278  -1.846  -3.006   4.143 -0.0652 -0.1404 -0.3764
   45HTM    S2310279  -1.917  -2.852   4.205  0.3846 -0.1036  0.0602
   46TAL   C22510280  -1.785  -3.236   4.210 -0.4709 -0.0721  0.6347
   46TAL   C22610281  -1.853  -3.373   4.197  0.2616 -0.9298  0.0894
   46TAL   C22710282  -1.870  -3.411   4.054 -0.0129 -0.2658 -0.4602
   46TAL   C22810283  -1.893  -3.557   4.027  1.7781 -0.0647  0.9707
   46TAL   C22910284  -2.029  -3.625   4.083  0.1450 -0.0841 -0.0570
   46TAL   C23010285  -2.156  -3.583   4.023 -0.3073  0.2241  0.5280
   47HTM   C23110286  -1.776  -2.999   4.021  0.0566  0.2074 -0.4212
   47HTM   C23210287  -1.822  -2.989   3.893  0.1191  0.2193 -0.4432
   47HTM   C23310288  -1.718  -2.973   3.795  0.1669  0.2365 -0.3898
   47HTM   C23410289  -1.593  -2.969   3.848  0.1405  0.2377 -0.3272
   47HTM    S2410290  -1.596  -2.987   4.027  0.0526  0.2172 -0.3309
   48TAL   C23510291  -1.755  -2.962   3.646 -0.3435 -0.4188  0.3609
   48TAL   C23610292  -1.684  -2.855   3.569 -0.0488 -0.6718  0.8564
   48TAL   C23710293  -1.716  -2.810   3.423 -0.9131  0.4423 -0.1557
   48TAL   C23810294  -1.608  -2.734   3.345  0.1955 -0.2516 -0.4496
   48TAL   C23910295  -1.460  -2.783   3.366  0.8059 -1.0188 -0.2195
   48TAL   C24010296  -1.418  -2.918   3.328 -0.0432 -0.5097  0.0200
    1HTM     C110297   2.494   0.269   3.234 -0.3525 -0.3185 -0.6009
    1HTM     C210298   2.446   0.174   3.149 -0.6005  0.1466 -0.9926
    1HTM     C310299   2.503   0.180   3.017 -0.3707  0.3557 -0.8845
    1HTM     C410300   2.595   0.279   3.002  0.0522  0.0500 -0.4104
    1HTM     S110301   2.616   0.374   3.153  0.1943 -0.5302 -0.0610
    2TAL     C510302   2.474   0.090   2.904 -0.1032  0.9636  1.6208
    2TAL     C610303   2.430  -0.053   2.931  0.3595  1.0971 -0.3418
    2TAL     C710304   2.434  -0.169   2.831  0.6442  0.2688  0.2878
    2TAL     C810305   2.384  -0.151   2.687  1.0430 -0.3051 -0.5489
    2TAL     C910306   2.495  -0.119   2.591  1.6138  0.0159  0.7556
    2TAL    C1010307   2.475  -0.143   2.441 -0.6083 -0.6689  0.0865
    3HTM    C1110308   2.652   0.330   2.880 -0.0463 -0.8692 -0.4304
    3HTM    C1210309   2.608   0.350   2.752  0.7465 -2.1868 -0.9495
    3HTM    C1310310   2.698   0.430   2.672  0.7221 -2.0705 -0.8610
    3HTM    C1410311   2.809   0.471   2.739 -0.0897 -0.6643 -0.2746
    3HTM     S210312   2.810   0.411   2.909 -0.8921  0.6321  0.2153
    4TAL    C1510313   2.637   0.485   2.543 -0.8875  0.0847 -0.0587
    4TAL    C1610314   2.714   0.441   2.415 -0.3950  0.5995  0.2288
    4TAL    C1710315   2.648   0.313   2.362 -0.3764 -0.1966 -0.5327
    4TAL    C1810316   2.653   0.267   2.221  0.2971  0.5028 -1.1825
    4TAL    C1910317   2.604   0.349   2.124  0.3278 -1.1213 -0.0433
    4TAL    C2010318   2.662   0.281   2.000  1.2195 -0.0854  0.2469
    5HTM    C2110319   2.924   0.541   2.701 -0.2440 -0.0542 -0.7177
    5HTM    C2210320   3.046   0.497   2.660 -0.4284 -0.2749 -1.0329
    5HTM    C2310321   3.131   0.602   2.610 -0.0869 -0.3111 -0.5327
    5HTM    C2410322   3.075   0.726   2.614  0.3579 -0.1180  0.1638
    5HTM     S310323   2.907   0.720   2.681  0.3802  0.1265  0.2428
    6TAL    C2510324   3.274   0.568   2.566 -0.4003 -0.2270 -0.2412
    6TAL    C2610325   3.281   0.457   2.459 -0.1795  1.4501  0.1519
    6TAL    C2710326   3.411   0.405   2.466 -0.7270  1.8247 -0.5144
    6TAL    C2810327   3.447   0.288   2.359 -0.2689  0.1915 -0.5933
    6TAL    C2910328   3.354   0.172   2.342  1.2440 -0.7300  0.8822
    6TAL    C3010329   3.420   0.077   2.249 -0.5705  0.6180  0.4025
    7HTM    C3110330   3.123   0.865   2.576  0.5561 -0.4590  0.1056
    7HTM    C3210331   3.052   0.975   2.541  0.2331 -0.6193  0.2512
    7HTM    C3310332   3.130   1.096   2.535 -0.0838 -0.4106  0.2500
    7HTM    C3410333   3.262   1.077   2.566 -0.0026 -0.0910  0.1037
    7HTM     S410334   3.297   0.905   2.605  0.4844 -0.0285 -0.0453
    8TAL    C3510335   3.051   1.220   2.503 -0.9415 -1.3843 -0.3893
    8TAL    C3610336   3.019   1.238   2.359 -0.5634 -0.2399 -0.0401
    8TAL    C3710337   2.958   1.376   2.309  0.9874 -0.4878 -0.2896
    8TAL    C3810338   3.046   1.491   2.306  0.0689 -0.1686  0.8032
    8TAL    C3910339   3.011   1.616   2.216 -0.5904  1.2872  0.1263
    8TAL    C4010340   2.985   1.601   2.070  0.0762  0.6088  0.1020
    9HTM    C4110341   3.379   1.168   2.571 -0.0749  0.4200 -0.3885
    9HTM    C4210342   3.502   1.125   2.610 -0.0761  0.1726 -0.6440
    9HTM    C4310343   3.599   1.231   2.622  0.0270  0.0486 -0.3620
    9HTM    C4410344   3.549   1.355   2.591  0.1068  0.2015  0.1086
    9HTM     S510345   3.375   1.346   2.545  0.0576  0.5164  0.2330
   10TAL    C4510346   3.748   1.202   2.655 -0.0739  1.2477 -0.3917
   10TAL    C4610347   3.839   1.150   2.547  1.4270 -0.6039  0.1285
   10TAL    C4710348   3.978   1.111   2.570  0.3011 -0.1515  0.1311
   10TAL    C4810349   4.060   1.217   2.638  0.5210  0.3707 -0.4965
   10TAL    C4910350   4.211   1.199   2.663 -0.3681  0.4064 -1.1678
   10TAL    C5010351   4.267   1.162   2.807  0.0951  0.3433  0.0915
   11HTM    C5110352   3.605   1.477   2.621 -0.0762 -0.2757 -0.2220
   11HTM    C5210353   3.548   1.550   2.720 -0.2884 -0.2414 -0.3700
   11HTM    C5310354   3.625   1.665   2.760 -0.4238 -0.1679 -0.3174
   11HTM    C5410355   3.742   1.679   2.691 -0.3148 -0.1461 -0.1292
   11HTM     S610356   3.763   1.547   2.570 -0.0305 -0.2174 -0.0028
   12TAL    C5510357   3.587   1.751   2.876  0.0158 -0.4426 -0.0841
   12TAL    C5610358   3.516   1.689   2.995  0.3413  0.2647  0.9758
   12TAL    C5710359   3.451   1.776   3.095  0.5968 -0.2789 -0.9516
   12TAL    C5810360   3.550   1.835   3.189 -0.6207  0.1772 -0.5487
   12TAL    C5910361   3.513   1.960   3.270  0.5363  0.2632 -0.7777
   12TAL    C6010362   3.603   1.944   3.382 -0.4617 -0.3471 -0.4771
   13HTM    C6110363   3.858   1.757   2.739  0.0958 -0.7733 -0.0244
   13HTM    C6210364   3.881   1.886   2.700  0.3185 -1.0282 -0.7690
   13HTM    C6310365   3.959   1.962   2.794 -0.0936 -0.4356 -0.8962
   13HTM    C6410366   3.995   1.891   2.905 -0.6305  0.2711 -0.2487
   13HTM     S710367   3.933   1.722   2.899 -0.6576  0.2429  0.5785
   14TAL    C6510368   3.984   2.109   2.783  1.1164 -1.1437  1.9024
   14TAL    C6610369   3.864   2.211   2.764 -0.1933 -0.6122  1.0252
   14TAL    C6710370   3.766   2.195   2.869  0.0095  0.1432  0.0964
   14TAL    C6810371   3.624   2.238   2.824  0.3149  0.5426 -0.5342
   14TAL    C6910372   3.501   2.200   2.913  0.1309 -0.6810  0.1033
   14TAL    C7010373   3.490   2.271   3.047  0.8847 -0.2838 -0.1428
   15HTM    C7110374   4.071   1.939   3.021  0.0637 -0.2202  0.3636
   15HTM    C7210375   4.126   1.861   3.119 -0.2087 -0.0040  0.6898
   15HTM    C7310376   4.145   1.931   3.244 -0.3294  0.3416  0.5178
   15HTM    C7410377   4.106   2.061   3.240 -0.1487  0.3887  0.0606
   15HTM     S810378   4.040   2.107   3.079  0.1902 -0.0026 -0.1902
   16TAL    C7510379   4.220   1.889   3.361 -0.7332 -1.3258 -0.5622
   16TAL    C7610380   4.151   1.785   3.446 -0.3955 -1.1094  0.3039
   16TAL    C7710381   4.220   1.767   3.585 -0.5763  0.8874 -0.4709
   16TAL    C7810382   4.221   1.886   3.685  1.0163  0.2632 -0.1189
   16TAL    C7910383   4.229   1.848   3.833 -0.0421  0.0734 -0.5121
   16TAL    C8010384   4.357   1.891   3.917  0.0821  0.8218 -0.2780
   17HTM    C8110385   4.098   2.170   3.338  0.1921 -0.6931 -0.3362
   17HTM    C8210386   4.093   2.302   3.303  0.0154 -0.7664 -0.5916
   17HTM    C8310387   4.065   2.390   3.414  0.0404 -0.5763 -0.7356
   17HTM    C8410388   4.050   2.326   3.533  0.2360 -0.3580 -0.5901
   17HTM     S910389   4.069   2.147   3.515  0.4055 -0.3759 -0.2572
   18TAL    C8510390   4.066   2.541   3.384 -0.4941 -0.7947  0.0545
   18TAL    C8610391   4.198   2.614   3.365  0.8798 -1.2657 -0.4014
   18TAL    C8710392   4.264   2.660   3.500 -0.2263 -0.0834  0.4697
   18TAL    C8810393   4.395   2.735   3.480  0.5270  0.1565  0.7109
   18TAL    C8910394   4.381   2.861   3.399  0.3692  0.1352  1.0169
   18TAL    C9010395   4.491   2.905   3.302 -0.3107  0.0809 -0.1281
   19HTM    C9110396   4.041   2.386   3.666 -0.9679 -0.5096  0.2754
   19HTM    C9210397   4.033   2.514   3.713 -1.1317 -0.5506  0.3596
   19HTM    C9310398   4.015   2.523   3.855 -0.5648 -0.6570  0.4405
   19HTM    C9410399   4.011   2.402   3.918  0.0313 -0.6970  0.4182
   19HTM    S1010400   4.028   2.266   3.800 -0.0781 -0.6027  0.2920
   20TAL    C9510401   4.012   2.658   3.935  1.3159  0.4943  0.7733
   20TAL    C9610402   3.918   2.759   3.861 -0.7558  1.0956 -0.0767
   20TAL    C9710403   3.948   2.903   3.886  0.2122  0.3168 -0.8434
   20TAL    C9810404   4.075   2.962   3.820  0.2852  1.0464  0.4034
   20TAL    C9910405   4.218   2.901   3.848  1.0958  0.3284 -1.2870
   20TAL   C10010406   4.332   2.987   3.792  0.4137 -0.0920 -0.0411
   21HTM   C10110407   3.986   2.368   4.057  0.1331 -0.0330 -0.4492
   21HTM   C10210408   3.872   2.396   4.125 -0.1628 -0.1083 -0.9086
   21HTM   C10310409   3.853   2.316   4.243 -0.5638 -0.0899 -0.9564
   21HTM   C10410410   3.954   2.227   4.265 -0.5737 -0.0005 -0.5332
   21HTM    S1110411   4.081   2.237   4.137 -0.0735  0.0677 -0.0379
   22TAL   C10510412   3.717   2.318   4.318  0.5057  0.0823  0.0243
   22TAL   C10610413   3.721   2.375   4.468  0.2107 -0.8725  0.2007
   22TAL   C10710414   3.738   2.526   4.477  0.5222  1.2309  0.0858
   22TAL   C10810415   3.693   2.579   4.613  0.2236 -0.6797  0.6555
   22TAL   C10910416   3.818   2.570   4.695  0.8941  0.1056 -0.1917
   22TAL   C11010417   3.780   2.649   4.817 -0.1402 -0.3099  0.0428
   23HTM   C11110418   3.982   2.111   4.356  0.3394  0.3911  0.8398
   23HTM   C11210419   4.077   2.013   4.346  0.5460  0.5904  0.8545
   23HTM   C11310420   4.063   1.908   4.442  0.3082  0.1796  0.3803
   23HTM   C11410421   3.957   1.924   4.526 -0.0800 -0.3329  0.0039
   23HTM    S1210422   3.866   2.076   4.489 -0.1759 -0.3366  0.2211
   24TAL   C11510423   4.159   1.783   4.442  0.5586 -0.7085 -0.2738
   24TAL   C11610424   4.295   1.795   4.380 -0.3025  0.2532  0.1400
   24TAL   C11710425   4.400   1.888   4.444  0.0358 -0.2539  0.6800
   24TAL   C11810426   4.502   1.928   4.327  0.7621 -0.7902 -0.8579
   24TAL   C11910427   4.595   2.044   4.340  0.7384 -0.8531  0.3948
   24TAL   C12010428   4.692   2.015   4.450 -0.5228  1.2853 -1.1312
   25HTM   C12110429   3.907   1.833   4.626  0.1936 -0.6022  0.4744
   25HTM   C12210430   3.855   1.707   4.615  0.5555 -0.7655  0.5883
   25HTM   C12310431   3.807   1.653   4.739  0.1739 -0.5515  0.5373
   25HTM   C12410432   3.823   1.738   4.845 -0.4788 -0.2250  0.3844
   25HTM    S1310433   3.900   1.893   4.796 -0.6636 -0.1620  0.2924
   26TAL   C12510434   3.747   1.520   4.749  0.1388  0.7532  0.0104
   26TAL   C12610435   3.820   1.411   4.829  0.8780  0.1119 -0.4286
   26TAL   C12710436   3.730   1.282   4.818 -0.1666  1.0878 -0.6952
   26TAL   C12810437   3.723   1.204   4.962 -1.1785  0.3261  1.3173
   26TAL   C12910438   3.677   1.276   5.095  2.0430  0.4006 -0.1443
   26TAL   C13010439   3.672   1.180   5.220  0.2830 -0.4272 -0.0625
   27HTM   C13110440   3.807   1.725   4.993  0.1415 -0.5971 -0.2876
   27HTM   C13210441   3.910   1.756   5.076  0.3427 -0.4004 -0.6059
   27HTM   C13310442   3.879   1.740   5.216  0.5692  0.2360 -0.4743
   27HTM   C13410443   3.752   1.696   5.239  0.5407  0.5246 -0.0556
   27HTM    S1410444   3.661   1.672   5.085  0.2232  0.0110  0.2070
   28TAL   C13510445   3.981   1.774   5.328 -0.1819  0.1805  0.2292
   28TAL   C13610446   4.118   1.832   5.304 -0.7934 -1.0138 -0.0203
   28TAL   C13710447   4.156   1.955   5.376  0.3727  0.4033 -0.6610
   28TAL   C13810448   4.109   2.088   5.324 -0.1402  0.0080  0.0006
   28TAL   C13910449   4.168   2.200   5.383 -0.6795 -0.0425  0.1866
   28TAL   C14010450   4.077   2.283   5.464  0.5846 -0.3492  0.3456
   29HTM   C14110451   3.681   1.664   5.360 -0.3950  0.0097  0.1344
   29HTM   C14210452   3.666   1.750   5.465 -0.4190 -0.0139  0.1503
   29HTM   C14310453   3.572   1.704   5.565 -0.6056  0.0682  0.0118
   29HTM   C14410454   3.515   1.584   5.535 -0.7238  0.1543 -0.1095
   29HTM    S1510455   3.576   1.519   5.378 -0.6077  0.1383 -0.0581
   30TAL   C14510456   3.529   1.767   5.701 -0.2769  0.3533  0.4322
   30TAL   C14610457   3.569   1.915   5.716  0.9536 -0.6731  0.2727
   30TAL   C14710458   3.710   1.937   5.751  0.9469 -0.3812 -0.6084
   30TAL   C14810459   3.753   1.895   5.899  0.4611  0.2688 -0.0734
   30TAL   C14910460   3.680   1.973   6.019 -0.4936 -0.8107  0.0365
   30TAL   C15010461   3.689   2.126   6.013  0.4144 -0.4385 -0.4662
   31HTM   C15110462   3.409   1.518   5.616 -0.4913 -0.6236  0.3692
   31HTM   C15210463   3.402   1.390   5.663 -0.9765 -0.6365  0.2662
   31HTM   C15310464   3.284   1.364   5.742 -1.1196 -0.2778  0.1731
   31HTM   C15410465   3.202   1.472   5.754 -0.7435  0.0087  0.2051
   31HTM    S1610466   3.267   1.616   5.667 -0.1751 -0.1536  0.3566
   32TAL   C15510467   3.270   1.218   5.787  0.4931  0.0249 -1.0009
   32TAL   C15610468   3.258   1.097   5.696 -0.1812  0.1801  0.6934
   32TAL   C15710469   3.250   0.953   5.739  0.8597 -0.0378  0.5370
   32TAL   C15810470   3.137   0.922   5.834  0.0249 -0.5071  1.1115
   32TAL   C15910471   2.998   0.940   5.789  0.3353 -0.2340  0.0800
   32TAL   C16010472   2.904   0.950   5.905  1.0628 -0.7112 -0.7565
   33HTM   C16110473   3.068   1.477   5.806 -0.3317 -0.1050  0.0122
   33HTM   C16210474   3.033   1.429   5.928 -0.2321  0.4872  0.2760
   33HTM   C16310475   2.901   1.470   5.970 -0.0637  0.9782  0.3479
   33HTM   C16410476   2.836   1.548   5.879 -0.0349  0.7603  0.1389
   33HTM    S1710477   2.937   1.576   5.732 -0.2196 -0.0884 -0.1673
   34TAL   C16510478   2.852   1.453   6.111  0.0486  0.3534 -0.8007
   34TAL   C16610479   2.916   1.341   6.208 -0.2958 -0.0490  0.7087
   34TAL   C16710480   2.873   1.343   6.355  0.2480 -0.2690 -0.1069
   34TAL   C16810481   2.721   1.359   6.366 -0.0317  0.1007 -0.3607
   34TAL   C16910482   2.674   1.500   6.407 -1.1477  0.5991  0.1059
   34TAL   C17010483   2.715   1.553   6.536 -0.0351 -0.3475 -0.4748
   35HTM   C17110484   2.713   1.616   5.889 -0.2185  0.1602  0.3744
   35HTM   C17210485   2.588   1.587   5.934 -0.2037  0.3398  0.5312
   35HTM   C17310486   2.493   1.694   5.914 -0.1096  0.4212  0.5199
   35HTM   C17410487   2.546   1.804   5.854 -0.0528  0.3038  0.3544
   35HTM    S1810488   2.721   1.781   5.817 -0.1141  0.0795  0.1989
   36TAL   C17510489   2.355   1.668   5.964  0.6221 -0.3472  0.6377
   36TAL   C17610490   2.313   1.516   5.977  0.5046 -0.4978  0.4782
   36TAL   C17710491   2.171   1.493   6.028  0.3239 -0.6063 -0.8940
   36TAL   C17810492   2.149   1.540   6.181 -0.9282  0.8577 -0.0681
   36TAL   C17910493   2.215   1.462   6.310 -0.1729 -0.3718  0.2982
   36TAL   C18010494   2.121   1.512   6.421  0.3653  0.1693 -0.9730
   37HTM   C18110495   2.482   1.931   5.807 -0.6536 -0.0371 -0.5127
   37HTM   C18210496   2.519   2.015   5.707 -0.8807  0.0221 -0.5490
   37HTM   C18310497   2.439   2.134   5.698 -0.7607  0.1341 -0.1522
   37HTM   C18410498   2.340   2.141   5.792 -0.4419  0.1603  0.1863
   37HTM    S1910499   2.341   1.995   5.899 -0.2673  0.0446  0.0290
   38TAL   C18510500   2.473   2.238   5.593  0.4255  0.1410  0.1979
   38TAL   C18610501   2.532   2.384   5.634  0.6619  0.5933  0.4450
   38TAL   C18710502   2.570   2.472   5.519 -0.1515 -0.4761 -0.6502
   38TAL   C18810503   2.495   2.469   5.387  0.9581 -1.1124  0.5283
   38TAL   C18910504   2.348   2.522   5.381  0.2158 -0.0324  0.1752
   38TAL   C19010505   2.227   2.421   5.418 -0.1146  0.2184 -0.0650
   39HTM   C19110506   2.248   2.243   5.822  0.0654  0.1915 -0.0501
   39HTM   C19210507   2.116   2.230   5.789  0.0836 -0.0872 -0.0190
   39HTM   C19310508   2.036   2.345   5.822 -0.0861 -0.1194 -0.3122
   39HTM   C19410509   2.107   2.446   5.880 -0.2336  0.1345 -0.5670
   39HTM    S2010510   2.281   2.403   5.898 -0.1692  0.4366 -0.4556
   40TAL   C19510511   1.886   2.352   5.785 -0.3071  0.3167  0.5855
   40TAL   C19610512   1.875   2.391   5.638 -0.6257  0.3616 -0.3564
   40TAL   C19710513   1.735   2.357   5.576 -0.9062 -0.5766 -0.0881
   40TAL   C19810514   1.624   2.428   5.649  1.1462  1.4786 -0.3985
   40TAL   C19910515   1.542   2.514   5.558 -0.4882 -0.2274 -0.3166
   40TAL   C20010516   1.429   2.587   5.636 -0.1874  0.0516 -0.5911
   41HTM   C20110517   2.088   2.577   5.918 -0.9369 -0.0435 -0.5004
   41HTM   C20210518   2.158   2.692   5.895 -1.0681 -0.0213 -0.8055
   41HTM   C20310519   2.104   2.806   5.964 -0.7586 -0.0554 -0.5027
   41HTM   C20410520   1.994   2.779   6.039 -0.3914 -0.1035  0.0332
   41HTM    S2110521   1.948   2.604   6.028 -0.4081 -0.1095  0.1983
   42TAL   C20510522   2.183   2.949   5.971  0.7268  0.2976 -0.8485
   42TAL   C20610523   2.132   3.027   5.854 -0.0912  0.8060  1.2773
   42TAL   C20710524   2.188   3.168   5.839 -0.5277  1.0777 -0.6800
   42TAL   C20810525   2.175   3.226   5.701 -1.2059  1.1656 -0.8270
   42TAL   C20910526   2.197   3.376   5.682 -0.4431 -0.1161  1.0459
   42TAL   C21010527   2.136   3.436   5.555  0.9551  1.0314  1.2489
   43HTM   C21110528   1.906   2.855   6.121  0.1930  0.5281 -0.6372
   43HTM   C21210529   1.821   2.795   6.208 -0.1250  0.2162 -1.1564
   43HTM   C21310530   1.772   2.882   6.312 -0.5487 -0.1325 -1.0573
   43HTM   C21410531   1.820   3.009   6.304 -0.5537 -0.0865 -0.4622
   43HTM    S2210532   1.932   3.029   6.163 -0.0196  0.4048  0.0224
   44TAL   C21510533   1.692   2.813   6.417 -0.3024  0.0166 -0.5964
   44TAL   C21610534   1.769   2.719   6.514  0.2129 -0.1304  0.3366
   44TAL   C21710535   1.656   2.632   6.573 -0.6683  0.5543  0.9414
   44TAL   C21810536   1.660   2.475   6.564 -0.0460  0.2853 -0.7497
   44TAL   C21910537   1.687   2.409   6.441 -0.0603  1.0239 -0.4282
   44TAL   C22010538   1.820   2.347   6.418 -0.9564 -0.9521  0.0283
   45HTM   C22110539   1.794   3.128   6.391 -0.1462  0.0842 -0.2280
   45HTM   C22210540   1.766   3.255   6.351 -0.6744  0.0358 -0.0242
   45HTM   C22310541   1.748   3.348   6.459 -0.9232 -0.1791  0.1225
   45HTM   C22410542   1.764   3.292   6.582 -0.5846 -0.2945  0.0304
   45HTM    S2310543   1.801   3.116   6.571  0.0798 -0.1395 -0.2507
   46TAL   C22510544   1.710   3.490   6.425 -0.0860  0.0841  0.5210
   46TAL   C22610545   1.564   3.518   6.384 -1.0838  0.1321  0.5252
   46TAL   C22710546   1.531   3.657   6.330 -0.7387  0.8634  0.4537
   46TAL   C22810547   1.542   3.763   6.435 -0.4150 -0.1818  0.4387
   46TAL   C22910548   1.557   3.902   6.381  0.1770 -0.0823 -0.3008
   46TAL   C23010549   1.578   3.993   6.499 -0.2333  0.4456  0.5640
   47HTM   C23110550   1.769   3.340   6.722 -0.1957  0.2674  0.0559
   47HTM   C23210551   1.688   3.430   6.785 -0.2146  0.2493  0.0576
   47HTM   C23310552   1.694   3.424   6.928 -0.3226  0.1491  0.0581
   47HTM   C23410553   1.780   3.329   6.975 -0.3859  0.0909  0.0568
   47HTM    S2410554   1.860   3.240   6.841 -0.3136  0.1587  0.0550
   48TAL   C23510555   1.605   3.510   7.014 -0.7132  0.2697  0.5079
   48TAL   C23610556   1.626   3.492   7.164  1.0775  0.3068  0.2079
   48TAL   C23710557   1.566   3.376   7.242  1.1087 -0.1389 -0.2552
   48TAL   C23810558   1.412   3.358   7.247 -0.0328  0.5542  1.4314
   48TAL   C23910559   1.361   3.240   7.336  0.7037 -0.1722  0.1351
   48TAL   C24010560   1.302   3.115   7.280  0.2682 -0.1295 -0.2041
    1HTM     C110561   9.203   2.139   8.642 -0.3813 -0.5896 -0.1311
    1HTM     C210562   9.250   2.023   8.588 -0.0937 -0.4768 -0.1268
    1HTM     C310563   9.362   1.968   8.659  0.1965 -0.0728 -0.2649
    1HTM     C410564   9.401   2.042   8.767  0.1302  0.1224 -0.3742
    1HTM     S110565   9.297   2.188   8.787 -0.3073 -0.1912 -0.3111
    2TAL     C510566   9.399   1.831   8.607  0.2993 -0.4591 -0.7339
    2TAL     C610567   9.524   1.766   8.661 -0.1781  0.3678 -0.7203
    2TAL     C710568   9.572   1.623   8.615  0.4277 -1.5110  0.3643
    2TAL     C810569   9.438   1.533   8.619 -0.3731  0.2002 -0.0912
    2TAL     C910570   9.461   1.373   8.613 -0.2334 -1.4122 -0.2899
    2TAL    C1010571   9.503   1.293   8.748  0.5769 -0.3622 -0.2146
    3HTM    C1110572   9.488   2.039   8.873  0.0213 -0.0203 -0.1489
    3HTM    C1210573   9.623   2.050   8.860 -0.0141  0.3445 -0.2341
    3HTM    C1310574   9.694   2.043   8.986  0.0653  0.8512 -0.2460
    3HTM    C1410575   9.612   2.027   9.094  0.1610  0.8728 -0.1702
    3HTM     S210576   9.439   2.019   9.045  0.1584  0.2499 -0.0768
    4TAL    C1510577   9.837   2.081   8.980 -0.9887  0.6874 -0.2318
    4TAL    C1610578   9.951   1.969   8.957  0.5056  0.0334 -0.2725
    4TAL    C1710579   9.902   1.856   8.866 -0.2633  0.0304  0.7203
    4TAL    C1810580   9.941   1.724   8.939  0.2983  0.2659 -0.0916
    4TAL    C1910581   9.904   1.606   8.847  0.0248  0.2219  0.1813
    4TAL    C2010582   9.979   1.468   8.861 -0.0135 -0.6699  0.4155
    5HTM    C2110583   9.640   2.011   9.240  0.1986 -0.5841 -0.2680
    5HTM    C2210584   9.548   1.981   9.335  0.0052 -0.2044 -0.3324
    5HTM    C2310585   9.603   1.966   9.467 -0.2210  0.0421 -0.2069
    5HTM    C2410586   9.738   1.984   9.472 -0.2001 -0.1497 -0.0469
    5HTM     S310587   9.806   2.022   9.310  0.1097 -0.6605 -0.0423
    6TAL    C2510588   9.507   1.936   9.585 -0.5383 -0.0667  0.0706
    6TAL    C2610589   9.428   1.808   9.564  0.1921 -0.4514 -0.5826
    6TAL    C2710590   9.317   1.795   9.670 -0.2842  1.0956 -0.5846
    6TAL    C2810591   9.376   1.731   9.808  0.0489  0.4780  0.5305
    6TAL    C2910592   9.275   1.693   9.918 -0.8970 -0.2876  0.6448
    6TAL    C3010593   9.162   1.606   9.872  0.4178 -0.0796  0.0356
    7HTM    C3110594   9.835   2.002   9.573 -0.0286  0.5853 -0.2481
    7HTM    C3210595   9.958   2.061   9.567 -0.3212  1.2122 -0.2673
    7HTM    C3310596  10.027   2.064   9.694 -0.2046  1.3178 -0.3328
    7HTM    C3410597   9.957   2.008   9.796  0.1768  0.7712 -0.3639
    7HTM     S410598   9.797   1.946   9.740  0.4203  0.0754 -0.3116
    8TAL    C3510599  10.168   2.120   9.705 -0.2969 -0.2758  0.1013
    8TAL    C3610600  10.202   2.254   9.652  1.0574 -1.3826 -0.3157
    8TAL    C3710601  10.129   2.362   9.742 -0.3803 -0.0337  0.4995
    8TAL    C3810602  10.187   2.382   9.885 -0.3701 -0.4251  0.6695
    8TAL    C3910603  10.122   2.503   9.957  0.0601 -0.2694 -0.6024
    8TAL    C4010604  10.138   2.505  10.120  0.9721  0.2125  0.9940
    9HTM    C4110605  10.022   1.962   9.917 -0.1106 -0.3876  0.1397
    9HTM    C4210606  10.029   1.834   9.961 -0.1036 -0.3044  0.3862
    9HTM    C4310607  10.105   1.817  10.082 -0.2621 -0.0427  0.5235
    9HTM    C4410608  10.157   1.934  10.130 -0.3901  0.0735  0.3816
    9HTM     S510609  10.112   2.074  10.026 -0.3197 -0.1401  0.0612
   10TAL    C4510610  10.103   1.689  10.150  0.1605  1.0848 -0.1177
   10TAL    C4610611  10.132   1.555  10.065  0.5126 -0.4836 -0.4044
   10TAL    C4710612  10.114   1.428  10.154  0.3473 -0.3247  0.3187
   10TAL    C4810613  10.153   1.289  10.097 -0.4449  1.3943 -0.1565
   10TAL    C4910614  10.087   1.242   9.970 -0.1230 -1.0090 -0.1182
   10TAL    C5010615  10.154   1.124   9.901 -0.5787  0.2379  0.5641
   11HTM    C5110616  10.242   1.962  10.245  0.1423 -0.0541  0.0440
   11HTM    C5210617  10.321   2.071  10.264  0.2808 -0.1307 -0.0905
   11HTM    C5310618  10.413   2.058  10.374  0.2248 -0.0888 -0.0389
   11HTM    C5410619  10.403   1.938  10.440  0.0435  0.0196  0.1349
   11HTM     S610620  10.277   1.833  10.366 -0.0713  0.0776  0.2477
   12TAL    C5510621  10.515   2.165  10.412 -0.2853  0.5429  0.5106
   12TAL    C5610622  10.511   2.291  10.335 -0.1393  0.2459  0.8018
   12TAL    C5710623  10.553   2.411  10.416  0.8705  0.3733 -0.1937
   12TAL    C5810624  10.477   2.541  10.386 -1.3886 -0.7355 -0.2102
   12TAL    C5910625  10.455   2.590  10.242  0.9409 -0.4653 -0.6473
   12TAL    C6010626  10.423   2.744  10.239  0.5135  0.7809  0.0395
   13HTM    C6110627  10.463   1.894  10.563  0.0757 -0.4985  0.0669
   13HTM    C6210628  10.407   1.865  10.683  0.3183 -0.5729  0.1627
   13HTM    C6310629  10.503   1.832  10.786  0.5377 -0.4050  0.0117
   13HTM    C6410630  10.633   1.837  10.743  0.4624 -0.2025 -0.1992
   13HTM     S710631  10.643   1.882  10.568  0.1057 -0.2082 -0.2236
   14TAL    C6510632  10.434   1.783  10.910 -1.0400  0.1885 -0.4261
   14TAL    C6610633  10.371   1.893  11.002 -0.9480 -0.4275  0.3304
   14TAL    C6710634  10.272   1.840  11.108  0.6664  0.4577 -0.4345
   14TAL    C6810635  10.160   1.746  11.038 -0.5881 -0.5845  0.0523
   14TAL    C6910636  10.030   1.804  10.986 -0.5188 -0.2673  0.4841
   14TAL    C7010637   9.944   1.864  11.091  0.1962 -0.8478  0.8055
   15HTM    C7110638  10.756   1.819  10.815  0.1076 -0.1914  0.1676
   15HTM    C7210639  10.871   1.759  10.775  0.0233 -0.6491  0.5863
   15HTM    C7310640  10.978   1.768  10.871 -0.2255 -0.9049  0.8934
   15HTM    C7410641  10.944   1.836  10.984 -0.3309 -0.6424  0.7089
   15HTM     S810642  10.773   1.893  10.979 -0.1225 -0.0470  0.1284
   16TAL    C7510643  11.115   1.687  10.834  1.0813 -1.0532 -0.9674
   16TAL    C7610644  11.203   1.745  10.717 -1.4959  0.6401 -0.1681
   16TAL    C7710645  11.305   1.848  10.777  0.0726 -0.0797 -0.1443
   16TAL    C7810646  11.431   1.862  10.694  0.2847 -0.2901  0.0070
   16TAL    C7910647  11.439   1.885  10.551 -1.2178 -0.1364  0.4310
   16TAL    C8010648  11.348   1.983  10.490 -0.4685 -0.2901 -0.3031
   17HTM    C8110649  11.013   1.869  11.108 -0.1657  0.7570 -0.1506
   17HTM    C8210650  10.971   1.824  11.229  0.0656  0.0708 -0.3186
   17HTM    C8310651  11.045   1.877  11.340  0.3520 -0.6436 -0.1565
   17HTM    C8410652  11.144   1.963  11.304  0.3389 -0.5022  0.1353
   17HTM     S910653  11.151   1.984  11.125 -0.0389  0.5525  0.2286
   18TAL    C8510654  11.019   1.808  11.472 -0.4333  0.0569 -1.2467
   18TAL    C8610655  11.009   1.657  11.478 -0.2258  1.1884  0.8367
   18TAL    C8710656  11.015   1.606  11.620 -0.7196  0.7372 -0.5794
   18TAL    C8810657  10.890   1.546  11.672  0.1279  0.1438  0.6058
   18TAL    C8910658  10.841   1.410  11.637  0.1502 -0.5927  0.2340
   18TAL    C9010659  10.792   1.400  11.496  1.4446 -0.3880  0.2568
   19HTM    C9110660  11.243   2.028  11.376 -0.7149 -0.2924  0.3067
   19HTM    C9210661  11.355   2.097  11.339 -0.9751 -0.1532 -0.2266
   19HTM    C9310662  11.429   2.153  11.449 -0.5391 -0.0244 -0.5780
   19HTM    C9410663  11.374   2.126  11.571  0.0538 -0.0656 -0.3126
   19HTM    S1010664  11.223   2.028  11.556  0.1076 -0.2717  0.4073
   20TAL    C9510665  11.564   2.205  11.434 -0.5440  0.0115  0.9183
   20TAL    C9610666  11.615   2.338  11.482 -1.6930 -0.4796 -0.8360
   20TAL    C9710667  11.760   2.375  11.410  1.2930  0.8953 -0.4103
   20TAL    C9810668  11.776   2.392  11.260  1.0496  0.3801 -0.6586
   20TAL    C9910669  11.901   2.452  11.237 -0.7360 -0.0480  0.2840
   20TAL   C10010670  11.898   2.530  11.102 -0.2646  0.8369  1.6951
   21HTM   C10110671  11.407   2.200  11.694 -0.0207 -0.1664 -0.1266
   21HTM   C10210672  11.519   2.188  11.771 -0.2487 -0.8568  0.1159
   21HTM   C10310673  11.514   2.263  11.894 -0.2163 -1.1536  0.2986
   21HTM   C10410674  11.397   2.331  11.911  0.0363 -0.6895  0.1952
   21HTM    S1110675  11.285   2.307  11.773  0.2546  0.1651 -0.1433
   22TAL   C10510676  11.634   2.292  11.992  0.6151  0.2888  0.2281
   22TAL   C10610677  11.752   2.206  11.983  0.1846  0.3623  0.2249
   22TAL   C10710678  11.845   2.244  12.092 -0.3395  0.6176 -0.5262
   22TAL   C10810679  11.963   2.142  12.093  0.4345  0.1630  0.1871
   22TAL   C10910680  12.063   2.186  12.192 -0.5666 -0.8025 -0.6282
   22TAL   C11010681  12.183   2.092  12.210  0.1017 -0.4784 -0.5155
   23HTM   C11110682  11.343   2.410  12.022 -0.5258 -0.2707  0.4090
   23HTM   C11210683  11.223   2.400  12.086 -0.6214  0.4134  0.3484
   23HTM   C11310684  11.216   2.477  12.208 -0.4279  0.8586  0.0841
   23HTM   C11410685  11.331   2.545  12.237 -0.1849  0.5140 -0.0568
   23HTM    S1210686  11.457   2.517  12.111 -0.1815 -0.4067  0.1349
   24TAL   C11510687  11.087   2.493  12.293 -0.2580  0.3480 -0.3007
   24TAL   C11610688  10.999   2.371  12.292  1.0532  1.7951 -0.7625
   24TAL   C11710689  10.847   2.371  12.336 -0.2300 -0.3962 -0.7906
   24TAL   C11810690  10.786   2.227  12.343 -0.1349  0.3788  0.3833
   24TAL   C11910691  10.696   2.191  12.229  0.8923  0.6880 -0.0789
   24TAL   C12010692  10.692   2.036  12.221  0.1852 -0.9704 -0.6432
   25HTM   C12110693  11.366   2.625  12.353 -0.4908  1.0763 -0.0242
   25HTM   C12210694  11.413   2.753  12.363 -0.6034  1.0912  0.3261
   25HTM   C12310695  11.432   2.797  12.499 -0.1634  0.5607  0.4411
   25HTM   C12410696  11.401   2.702  12.592  0.2847  0.1411  0.1785
   25HTM    S1310697  11.343   2.550  12.515  0.1850  0.3854 -0.2377
   26TAL   C12510698  11.494   2.932  12.540  0.2334  0.9670  0.1996
   26TAL   C12610699  11.540   3.038  12.438  0.3338 -0.7716 -1.6575
   26TAL   C12710700  11.410   3.116  12.384  0.0830  0.2542  0.7385
   26TAL   C12810701  11.444   3.229  12.271 -0.2164 -0.0963  0.1706
   26TAL   C12910702  11.462   3.148  12.143 -1.1465 -0.0077  0.2618
   26TAL   C13010703  11.471   3.255  12.035  0.1667  1.1164  0.4243
   27HTM   C13110704  11.401   2.704  12.739 -0.5376  0.3680 -0.1758
   27HTM   C13210705  11.426   2.599  12.822 -0.4436  0.3130 -0.2723
   27HTM   C13310706  11.399   2.628  12.961 -0.0773  0.2948 -0.1957
   27HTM   C13410707  11.353   2.755  12.983  0.1080  0.3359 -0.0409
   27HTM    S1410708  11.341   2.848  12.829 -0.1680  0.4013  0.0207
   28TAL   C13510709  11.436   2.520  13.070  0.7713 -0.2212  0.4120
   28TAL   C13610710  11.339   2.403  13.069  0.0287 -0.3591  0.5129
   28TAL   C13710711  11.394   2.283  13.134  0.4719  0.2332 -0.1931
   28TAL   C13810712  11.279   2.208  13.210 -0.4853 -1.7547  0.5673
   28TAL   C13910713  11.327   2.159  13.339 -0.6203 -0.1246  0.8224
   28TAL   C14010714  11.226   2.077  13.398  0.5534 -0.0933 -0.0156
   29HTM   C14110715  11.330   2.827  13.110 -0.1061 -0.1482 -0.2448
   29HTM   C14210716  11.248   2.794  13.213  0.4261 -0.2998  0.1351
   29HTM   C14310717  11.231   2.899  13.309  0.6763 -0.3350  0.2214
   29HTM   C14410718  11.299   3.013  13.279  0.3351 -0.2102 -0.0927
   29HTM    S1510719  11.392   2.996  13.125 -0.3341 -0.0373 -0.5253
   30TAL   C14510720  11.141   2.870  13.423 -0.3831 -0.1374  0.2549
   30TAL   C14610721  10.988   2.900  13.424 -0.4261 -0.4017  0.0469
   30TAL   C14710722  10.907   3.032  13.402  0.0954  0.3384  0.5479
   30TAL   C14810723  10.755   3.013  13.416 -0.1584  0.0122 -0.2361
   30TAL   C14910724  10.662   3.139  13.410  0.2058 -0.2307 -0.3778
   30TAL   C15010725  10.650   3.197  13.549  0.5185 -0.4575 -0.4879
   31HTM   C15110726  11.319   3.136  13.362  0.6905  0.0646 -0.1693
   31HTM   C15210727  11.262   3.260  13.347  0.9422  0.1439 -0.4832
   31HTM   C15310728  11.283   3.346  13.460  0.7052  0.2230 -0.5005
   31HTM   C15410729  11.354   3.289  13.561  0.2728  0.2042 -0.1997
   31HTM    S1610730  11.402   3.120  13.521  0.1303  0.0839  0.1312
   32TAL   C15510731  11.259   3.491  13.456  0.4115 -1.0388 -0.3934
   32TAL   C15610732  11.112   3.542  13.470 -0.6992 -0.2936  0.3857
   32TAL   C15710733  11.023   3.526  13.590 -0.0704  0.2384  0.3571
   32TAL   C15810734  10.991   3.382  13.629 -0.5180 -0.5265  0.0497
   32TAL   C15910735  10.949   3.365  13.776  0.6753  0.1135  0.4338
   32TAL   C16010736  10.965   3.226  13.827 -0.8297  0.9727 -0.1009
   33HTM   C16110737  11.379   3.335  13.699  0.4442 -0.0629  0.1260
   33HTM   C16210738  11.328   3.286  13.815  0.1859  0.0005  0.0404
   33HTM   C16310739  11.373   3.356  13.933 -0.5806  0.4818  0.0634
   33HTM   C16410740  11.459   3.459  13.906 -0.9067  0.7857  0.1668
   33HTM    S1710741  11.490   3.475  13.729 -0.2660  0.4849  0.2434
   34TAL   C16510742  11.329   3.313  14.073 -0.5588 -0.2158  0.3561
   34TAL   C16610743  11.190   3.349  14.123  0.1376  0.6466 -0.3582
   34TAL   C16710744  11.166   3.358  14.274  0.6885  0.8107  0.1827
   34TAL   C16810745  11.202   3.239  14.357 -1.0278  1.1561  0.2528
   34TAL   C16910746  11.162   3.240  14.500 -0.1996 -0.1504  0.6446
   34TAL   C17010747  11.186   3.113  14.575 -0.1111 -0.4959  0.2362
   35HTM   C17110748  11.544   3.535  13.999  0.4299 -0.6066  0.0005
   35HTM   C17210749  11.672   3.576  13.980  0.4805 -0.5741  0.3996
   35HTM   C17310750  11.724   3.656  14.088  0.0911 -0.4751  0.5157
   35HTM   C17410751  11.635   3.676  14.189 -0.2563 -0.4322  0.2049
   35HTM    S1810752  11.477   3.595  14.156 -0.1176 -0.5142 -0.2618
   36TAL   C17510753  11.858   3.739  14.079  0.5494  0.2582 -0.7608
   36TAL   C17610754  11.970   3.660  14.160 -1.0706 -0.2950  0.8495
   36TAL   C17710755  12.089   3.757  14.189 -0.3869  0.8340  0.3110
   36TAL   C17810756  12.196   3.683  14.267 -0.0379 -0.5293  0.0148
   36TAL   C17910757  12.326   3.656  14.190 -0.0842 -0.7535 -0.3531
   36TAL   C18010758  12.408   3.753  14.111 -0.4326  0.6749  0.2908
   37HTM   C18110759  11.630   3.732  14.325 -0.0664  0.1469  0.3836
   37HTM   C18210760  11.728   3.736  14.420 -0.1912  0.5022  0.5038
   37HTM   C18310761  11.684   3.787  14.547 -0.3988  0.8356  0.2992
   37HTM   C18410762  11.552   3.824  14.549 -0.4324  0.7346  0.0229
   37HTM    S1910763  11.473   3.795  14.389 -0.2025  0.2063 -0.0003
   38TAL   C18510764  11.771   3.776  14.662  0.2523  0.0448 -0.4733
   38TAL   C18610765  11.909   3.708  14.652 -0.6624 -0.5865  0.8552
   38TAL   C18710766  12.012   3.696  14.770 -0.3694  0.1693  0.7149
   38TAL   C18810767  12.147   3.650  14.722 -1.1714 -1.0234 -0.6938
   38TAL   C18910768  12.239   3.765  14.653 -0.7327  0.9069  0.8814
   38TAL   C19010769  12.391   3.736  14.658  0.1100 -0.8594 -0.5810
   39HTM   C19110770  11.490   3.912  14.645  0.2091 -0.1301 -0.6949
   39HTM   C19210771  11.446   3.875  14.768  0.6733 -0.3862 -0.6039
   39HTM   C19310772  11.381   3.981  14.841  0.9708 -0.5257 -0.1225
   39HTM   C19410773  11.374   4.099  14.773  0.7334 -0.3759  0.1533
   39HTM    S2010774  11.451   4.085  14.610  0.1108 -0.0447 -0.1759
   40TAL   C19510775  11.321   3.958  14.976  0.3465  0.2519  0.3620
   40TAL   C19610776  11.305   3.805  15.021 -0.1312 -0.2539  0.0124
   40TAL   C19710777  11.245   3.802  15.160 -1.2601 -1.0885  0.2096
   40TAL   C19810778  11.317   3.888  15.280 -0.0140 -0.7185 -0.7535
   40TAL   C19910779  11.433   3.799  15.318  0.0517 -0.7506  0.1261
   40TAL   C20010780  11.482   3.830  15.455  0.6142 -0.2920  0.4338
   41HTM   C20110781  11.301   4.222  14.805 -0.3347 -0.3493 -0.1143
   41HTM   C20210782  11.349   4.348  14.787 -0.1129 -0.4281 -0.0819
   41HTM   C20310783  11.249   4.451  14.801  0.0488 -0.2609 -0.1427
   41HTM   C20410784  11.125   4.403  14.828 -0.0497 -0.0544 -0.2213
   41HTM    S2110785  11.124   4.223  14.840 -0.3567 -0.0554 -0.2248
   42TAL   C20510786  11.273   4.607  14.767 -0.4675  0.6916 -0.2220
   42TAL   C20610787  11.314   4.700  14.881 -0.3740  0.9585  1.2685
   42TAL   C20710788  11.448   4.661  14.950  0.1021  0.5967  0.0739
   42TAL   C20810789  11.472   4.762  15.064  0.2686  0.2015  0.9767
   42TAL   C20910790  11.590   4.710  15.158  0.9298  0.2178 -0.5429
   42TAL   C21010791  11.591   4.794  15.284 -0.1053 -0.5975 -0.9023
   43HTM   C21110792  10.998   4.465  14.862  0.0819  0.1136  0.4608
   43HTM   C21210793  10.978   4.568  14.950  0.1760  0.7867 -0.2782
   43HTM   C21310794  10.841   4.609  14.960  0.2656  1.2552 -0.8513
   43HTM   C21410795  10.756   4.538  14.880  0.2398  0.9393 -0.5491
   43HTM    S2210796  10.844   4.413  14.785  0.0992  0.0186  0.4905
   44TAL   C21510797  10.797   4.725  15.052  0.0676  0.0767  0.7417
   44TAL   C21610798  10.815   4.867  15.027  0.7443 -0.5505 -0.2789
   44TAL   C21710799  10.945   4.927  14.983 -0.5774  0.0274 -0.2455
   44TAL   C21810800  10.957   5.069  14.923  0.5683 -0.5033 -0.1506
   44TAL   C21910801  11.102   5.116  14.899 -0.6279 -0.8008 -1.1655
   44TAL   C22010802  11.199   5.161  15.006  0.9997 -0.5569  0.2117
   45HTM   C22110803  10.623   4.555  14.847 -0.1237 -0.3450 -0.6635
   45HTM   C22210804  10.568   4.602  14.732 -0.3051 -1.1042 -0.8965
   45HTM   C22310805  10.425   4.586  14.725 -0.3256 -1.0844 -0.5354
   45HTM   C22410806  10.371   4.528  14.836 -0.1598 -0.3105 -0.0271
   45HTM    S2310807  10.497   4.487  14.958  0.0366  0.4595  0.0356
   46TAL   C22510808  10.337   4.637  14.610  0.6281 -0.1917  0.2137
   46TAL   C22610809  10.366   4.771  14.546 -0.4834  0.3578  0.2801
   46TAL   C22710810  10.275   4.815  14.420  0.4213  0.4518 -0.7368
   46TAL   C22810811  10.319   4.953  14.378  0.9327 -0.4851  0.5712
   46TAL   C22910812  10.225   4.971  14.255 -0.8627 -0.3982  0.4101
   46TAL   C23010813  10.076   4.973  14.244 -0.2320 -0.1480 -0.2150
   47HTM   C23110814  10.238   4.526  14.892  0.1295  0.2928  0.2755
   47HTM   C23210815  10.196   4.428  14.978  0.4231 -0.2935 -0.2401
   47HTM   C23310816  10.060   4.442  15.021  0.3919 -0.9060 -0.1183
   47HTM   C23410817   9.997   4.551  14.968  0.0746 -0.7865  0.4902
   47HTM    S2410818  10.106   4.644  14.859 -0.2117  0.1156  0.9604
   48TAL   C23510819   9.973   4.345  15.109 -0.0665  0.7442 -0.3047
   48TAL   C23610820  10.025   4.248  15.214  0.4740 -0.5707  0.1493
   48TAL   C23710821   9.950   4.128  15.190 -0.0994  0.3094 -0.9238
   48TAL   C23810822   9.987   4.009  15.280 -0.3411  0.2601 -0.7715
   48TAL   C23910823   9.880   3.906  15.254  0.0493  0.3904 -0.8826
   48TAL   C24010824   9.923   3.774  15.322 -0.3266  0.0189 -0.1164
    1HTM     C110825   6.478   8.453   4.933 -0.2174  0.1222 -0.3157
    1HTM     C210826   6.436   8.557   4.855  0.0880 -0.0374 -0.7005
    1HTM     C310827   6.399   8.519   4.722  0.1853 -0.3877 -0.6286
    1HTM     C410828   6.413   8.385   4.697 -0.0461 -0.4947 -0.1891
    1HTM     S110829   6.474   8.297   4.842 -0.4073 -0.1591  0.1710
    2TAL     C510830   6.351   8.618   4.610 -0.5689  1.0182  0.1450
    2TAL     C610831   6.207   8.675   4.638 -0.1774  0.7424  0.3408
    2TAL     C710832   6.093   8.578   4.669  0.9732  0.5549  0.1461
    2TAL     C810833   5.966   8.642   4.683  0.2921  0.5248  0.2142
    2TAL     C910834   5.843   8.550   4.680 -1.0762 -0.1231  0.9557
    2TAL    C1010835   5.728   8.594   4.750  0.3951  0.7446 -0.8307
    3HTM    C1110836   6.404   8.289   4.590 -0.7413  0.2948 -0.2116
    3HTM    C1210837   6.302   8.262   4.503 -0.4852  0.2878 -0.5146
    3HTM    C1310838   6.331   8.157   4.410 -0.1237  0.4318 -0.5662
    3HTM    C1410839   6.456   8.103   4.425 -0.1045  0.5493 -0.3026
    3HTM     S210840   6.546   8.183   4.560 -0.5446  0.4862  0.0337
    4TAL    C1510841   6.224   8.114   4.305  0.2306  0.4163 -0.7073
    4TAL    C1610842   6.249   8.162   4.167 -0.2174 -0.5605  0.5529
    4TAL    C1710843   6.152   8.129   4.055  0.3017 -0.0706  0.5448
    4TAL    C1810844   6.212   8.060   3.936 -1.0920 -0.0749  1.0481
    4TAL    C1910845   6.230   7.911   3.946 -0.4685 -0.3323 -0.2740
    4TAL    C2010846   6.319   7.851   3.834 -0.1148 -0.8349 -0.5961
    5HTM    C2110847   6.501   7.977   4.374  0.1128 -0.1159  0.3648
    5HTM    C2210848   6.490   7.857   4.437 -0.0585 -0.2558  0.0720
    5HTM    C2310849   6.525   7.745   4.355 -0.3829 -0.1203 -0.2574
    5HTM    C2410850   6.563   7.779   4.229 -0.4589  0.1229 -0.2159
    5HTM     S310851   6.558   7.957   4.204 -0.1241  0.2001  0.2462
    6TAL    C2510852   6.502   7.611   4.411  0.8104  0.6413  1.3696
    6TAL    C2610853   6.591   7.563   4.529 -0.4957 -0.4088  0.3084
    6TAL    C2710854   6.638   7.434   4.474  0.6305 -0.0038  1.0189
    6TAL    C2810855   6.754   7.352   4.540 -0.0068 -0.1290 -0.3239
    6TAL    C2910856   6.894   7.422   4.557 -0.7156 -0.2113 -0.5755
    6TAL    C3010857   6.979   7.373   4.669 -0.4844 -0.3505 -0.3575
    7HTM    C3110858   6.615   7.710   4.110 -0.9632 -0.0240  0.0411
    7HTM    C3210859   6.701   7.764   4.020 -1.5749  0.3384 -0.3421
    7HTM    C3310860   6.755   7.669   3.926 -1.5163  0.5403 -0.5152
    7HTM    C3410861   6.709   7.542   3.945 -0.8600  0.3314 -0.2639
    7HTM     S410862   6.594   7.533   4.083 -0.2603 -0.1398  0.2146
    8TAL    C3510863   6.854   7.716   3.821 -0.4923  0.3921  0.4560
    8TAL    C3610864   6.792   7.757   3.692  0.2055  1.8448  0.6915
    8TAL    C3710865   6.795   7.907   3.652 -0.1262 -0.1314  0.3807
    8TAL    C3810866   6.929   7.981   3.671  1.2759  0.0956 -1.3070
    8TAL    C3910867   6.988   8.023   3.540  0.2922 -0.6665  0.0542
    8TAL    C4010868   7.032   7.930   3.430  1.5503  0.5834 -0.1307
    9HTM    C4110869   6.737   7.415   3.872  0.4353 -0.3129 -0.4782
    9HTM    C4210870   6.649   7.311   3.864  0.4319 -0.3519  0.0225
    9HTM    C4310871   6.710   7.188   3.821  0.3051 -0.4086  0.0063
    9HTM    C4410872   6.843   7.198   3.795  0.2115 -0.4130 -0.5069
    9HTM     S510873   6.904   7.366   3.825  0.2772 -0.3450 -1.0134
   10TAL    C4510874   6.631   7.067   3.841 -0.4116 -0.6982  0.0900
   10TAL    C4610875   6.658   6.944   3.757 -1.8322  0.0238  0.1480
   10TAL    C4710876   6.601   6.816   3.809  0.1405 -1.2859 -0.3791
   10TAL    C4810877   6.720   6.718   3.833  0.9743  0.6030  0.3047
   10TAL    C4910878   6.684   6.573   3.857  0.7910 -0.4122  0.5437
   10TAL    C5010879   6.660   6.493   3.727 -0.5055 -0.0439  0.3361
   11HTM    C5110880   6.942   7.095   3.771 -0.2379 -0.6242  0.3855
   11HTM    C5210881   7.054   7.067   3.844 -0.2468 -1.0408  0.2433
   11HTM    C5310882   7.138   6.967   3.784 -0.4042 -0.9418 -0.1520
   11HTM    C5410883   7.091   6.919   3.665 -0.5155 -0.4494 -0.3111
   11HTM     S610884   6.935   6.997   3.619 -0.4293 -0.0699  0.0284
   12TAL    C5510885   7.280   6.966   3.831 -0.1437 -0.2716  0.0414
   12TAL    C5610886   7.389   6.897   3.761 -1.0803  0.5783  0.6575
   12TAL    C5710887   7.536   6.927   3.809  0.2762 -0.5080 -0.4160
   12TAL    C5810888   7.621   7.052   3.813  0.4463  0.4041  0.2585
   12TAL    C5910889   7.615   7.137   3.678  1.5081 -0.7230 -0.4220
   12TAL    C6010890   7.731   7.234   3.644  1.2119  1.5774 -0.5011
   13HTM    C6110891   7.121   6.794   3.601  1.1137  0.1243 -0.0100
   13HTM    C6210892   7.156   6.758   3.474  1.0470  0.2902 -0.0753
   13HTM    C6310893   7.169   6.616   3.455  0.0486  0.2425 -0.5262
   13HTM    C6410894   7.144   6.543   3.568 -0.6457  0.0405 -0.8047
   13HTM     S710895   7.101   6.649   3.707 -0.0883 -0.1064 -0.5168
   14TAL    C6510896   7.192   6.547   3.310 -0.6527 -1.1225  0.2599
   14TAL    C6610897   7.204   6.402   3.269 -0.3469 -0.6378 -1.0611
   14TAL    C6710898   7.336   6.341   3.306 -0.9612  0.4581 -0.1167
   14TAL    C6810899   7.324   6.192   3.290 -0.3404 -0.3617 -0.2719
   14TAL    C6910900   7.448   6.109   3.323  0.9675  0.4245 -0.1694
   14TAL    C7010901   7.428   5.955   3.310  0.2002 -0.6855 -0.3063
   15HTM    C7110902   7.130   6.401   3.599  0.1671 -0.0252  0.0881
   15HTM    C7210903   7.016   6.327   3.591  0.3126 -0.2016 -0.5233
   15HTM    C7310904   7.024   6.200   3.659  0.4152 -0.5580 -1.1910
   15HTM    C7410905   7.145   6.177   3.717  0.3479 -0.6536 -1.0887
   15HTM     S810906   7.258   6.315   3.692  0.1482 -0.2979 -0.1337
   16TAL    C7510907   6.906   6.105   3.654  0.4297 -0.4642 -0.3447
   16TAL    C7610908   6.912   6.015   3.527 -0.5533  1.3495  1.1157
   16TAL    C7710909   6.876   5.866   3.551  0.5400  0.4570  0.5831
   16TAL    C7810910   6.726   5.834   3.518 -0.0106  0.9761  0.6413
   16TAL    C7910911   6.645   5.874   3.399  0.2272 -0.6529 -0.0625
   16TAL    C8010912   6.576   5.999   3.420 -0.5397 -0.1888  0.5460
   17HTM    C8110913   7.199   6.063   3.795 -0.0110  0.3621 -0.1985
   17HTM    C8210914   7.143   5.987   3.894 -0.1694  0.9639  0.1792
   17HTM    C8310915   7.232   5.889   3.950 -0.4385  0.9062  0.5143
   17HTM    C8410916   7.356   5.890   3.894 -0.4853  0.2606  0.3921
   17HTM     S910917   7.370   6.015   3.765 -0.1910 -0.3293 -0.1599
   18TAL    C8510918   7.205   5.789   4.062  0.6038 -0.0777 -0.2461
   18TAL    C8610919   7.057   5.776   4.109 -0.3931 -0.0858 -0.4420
   18TAL    C8710920   7.028   5.677   4.220 -0.3631 -0.1790 -0.5358
   18TAL    C8810921   7.058   5.527   4.231  0.7371  0.6981  1.0305
   18TAL    C8910922   7.199   5.484   4.257  1.2254 -0.6024  0.3348
   18TAL    C9010923   7.209   5.341   4.255 -1.0734  0.8884 -0.6206
   19HTM    C9110924   7.478   5.806   3.913  0.1380  0.0282  0.7172
   19HTM    C9210925   7.505   5.756   4.036  0.7833  0.6710  0.8478
   19HTM    C9310926   7.645   5.727   4.057  0.9758  1.2904  0.4730
   19HTM    C9410927   7.723   5.755   3.949  0.4774  1.1198  0.0565
   19HTM    S1010928   7.627   5.821   3.812 -0.2797  0.1562  0.1058
   20TAL    C9510929   7.687   5.646   4.187 -0.1677  0.2912 -0.0047
   20TAL    C9610930   7.661   5.711   4.330 -0.9152 -0.2350  0.7355
   20TAL    C9710931   7.706   5.856   4.353  0.8146 -0.1351 -0.1185
   20TAL    C9810932   7.654   5.908   4.489  1.2536 -0.0593  0.5564
   20TAL    C9910933   7.684   6.059   4.469 -0.0218 -0.4232  0.7416
   20TAL   C10010934   7.657   6.144   4.588 -0.5067 -0.8238 -0.1870
   21HTM   C10110935   7.871   5.736   3.930 -0.3168 -0.2155 -0.0942
   21HTM   C10210936   7.939   5.629   3.981 -0.4421 -0.3432 -0.1904
   21HTM   C10310937   8.070   5.612   3.923 -0.2897 -0.1839  0.1046
   21HTM   C10410938   8.102   5.705   3.829 -0.0479  0.0649  0.4259
   21HTM    S1110939   7.967   5.823   3.805  0.0065  0.1180  0.3804
   22TAL   C10510940   8.160   5.502   3.970 -0.2996 -1.0896 -0.6034
   22TAL   C10610941   8.208   5.479   4.113  0.4062  0.6068 -0.9817
   22TAL   C10710942   8.233   5.599   4.207 -0.8671 -0.7650 -0.5695
   22TAL   C10810943   8.181   5.540   4.338 -0.5794 -0.3970 -0.1695
   22TAL   C10910944   8.156   5.653   4.439 -0.1276  0.0183  1.4381
   22TAL   C11010945   8.050   5.598   4.540 -1.0410 -0.8388  0.1757
   23HTM   C11110946   8.210   5.713   3.733 -0.1251 -0.7218  0.5064
   23HTM   C11210947   8.202   5.752   3.602 -0.6897 -0.7259  0.5357
   23HTM   C11310948   8.327   5.740   3.530 -0.8214 -0.0669  0.1850
   23HTM   C11410949   8.429   5.692   3.606 -0.3570  0.4394 -0.1119
   23HTM    S1210950   8.377   5.658   3.775  0.2875  0.1207  0.0298
   24TAL   C11510951   8.333   5.780   3.381 -0.7377 -0.2334 -0.6586
   24TAL   C11610952   8.264   5.682   3.284  0.6910 -0.0439 -0.5911
   24TAL   C11710953   8.244   5.696   3.133 -0.0740  0.3791 -0.4179
   24TAL   C11810954   8.350   5.734   3.031  0.7790 -0.0924 -1.0369
   24TAL   C11910955   8.457   5.633   3.008  0.3315 -0.0954  0.1123
   24TAL   C12010956   8.566   5.647   2.918 -1.2029 -0.0928 -0.3324
   25HTM   C12110957   8.572   5.686   3.574 -0.6787  0.7001 -0.8343
   25HTM   C12210958   8.671   5.690   3.667 -1.1890  0.9755 -0.2876
   25HTM   C12310959   8.804   5.682   3.611 -0.8743  0.6382  0.4755
   25HTM   C12410960   8.805   5.672   3.475 -0.1236  0.1056  0.5107
   25HTM    S1310961   8.638   5.672   3.407  0.2466 -0.0122 -0.4245
   26TAL   C12510962   8.926   5.677   3.691 -0.8764  0.1843  0.6688
   26TAL   C12610963   8.997   5.548   3.732  0.3329 -0.0385  0.5211
   26TAL   C12710964   9.142   5.570   3.771 -0.3165  0.1324  0.9526
   26TAL   C12810965   9.150   5.624   3.914  0.3108  0.2450  0.6972
   26TAL   C12910966   9.290   5.665   3.970 -0.1384 -0.4730 -0.3730
   26TAL   C13010967   9.366   5.777   3.900 -0.4051 -0.5520 -0.6816
   27HTM   C13110968   8.910   5.671   3.373  0.0070 -0.0899  0.0691
   27HTM   C13210969   9.040   5.713   3.386 -0.0374  0.0349  0.1212
   27HTM   C13310970   9.121   5.685   3.270 -0.0002  0.2441  0.0970
   27HTM   C13410971   9.053   5.623   3.169  0.0729  0.2789  0.0265
   27HTM    S1410972   8.881   5.594   3.213  0.1001  0.0482 -0.0153
   28TAL   C13510973   9.265   5.713   3.291  0.5106 -1.0392 -0.3048
   28TAL   C13610974   9.325   5.852   3.249  0.9022  0.0267 -0.0654
   28TAL   C13710975   9.470   5.877   3.288 -0.0481  0.6391 -0.4666
   28TAL   C13810976   9.549   6.012   3.282  1.4322 -0.3395  0.0126
   28TAL   C13910977   9.461   6.133   3.309 -0.5993 -0.1807  0.2439
   28TAL   C14010978   9.548   6.239   3.383  0.1673  0.0561 -0.2732
   29HTM   C14110979   9.083   5.591   3.035  0.3963 -0.3137 -0.0454
   29HTM   C14210980   8.993   5.596   2.933  0.4280 -0.5355 -0.0851
   29HTM   C14310981   9.054   5.599   2.803  0.4754 -0.4478 -0.0604
   29HTM   C14410982   9.190   5.597   2.806  0.4805 -0.1590 -0.0019
   29HTM    S1510983   9.253   5.590   2.975  0.4247  0.0259  0.0268
   30TAL   C14510984   8.952   5.578   2.686 -0.9024 -0.1450 -0.2736
   30TAL   C14610985   8.928   5.434   2.642 -0.2585 -0.5054  1.3855
   30TAL   C14710986   8.819   5.425   2.538  0.6342  0.2339 -0.9610
   30TAL   C14810987   8.806   5.287   2.473  0.0133 -0.0640  0.8667
   30TAL   C14910988   8.924   5.213   2.392 -0.6054 -0.2264  0.1160
   30TAL   C15010989   9.035   5.299   2.328  0.4073  0.9713  0.3129
   31HTM   C15110990   9.278   5.608   2.695 -0.6791 -0.4204 -0.3614
   31HTM   C15210991   9.413   5.619   2.707 -0.7994  0.4027  0.5691
   31HTM   C15310992   9.479   5.661   2.585 -0.2353  1.1119  1.1020
   31HTM   C15410993   9.393   5.683   2.481  0.3147  0.8294  0.5779
   31HTM    S1610994   9.222   5.651   2.529  0.1620 -0.3631 -0.6389
   32TAL   C15510995   9.633   5.654   2.593  0.8943  0.8954 -0.1664
   32TAL   C15610996   9.687   5.546   2.503 -0.8940 -1.1638  0.6824
   32TAL   C15710997   9.847   5.556   2.513 -0.4661 -0.6111  0.4653
   32TAL   C15810998   9.935   5.445   2.432 -0.0340 -0.7209  0.0980
   32TAL   C15910999   9.941   5.461   2.280  0.4633 -0.5776  1.0082
   32TAL   C16011000  10.038   5.359   2.220  0.5543  0.9896  1.2244
   33HTM   C16111001   9.420   5.728   2.345 -0.2959 -0.4921  0.3110
   33HTM   C16211002   9.388   5.846   2.284 -1.0881 -0.7104  0.2797
   33HTM   C16311003   9.435   5.855   2.148 -1.1642 -0.4424  0.2712
   33HTM   C16411004   9.502   5.745   2.105 -0.4296 -0.0199  0.2962
   33HTM    S1711005   9.512   5.619   2.234  0.4213  0.0733  0.3325
   34TAL   C16511006   9.412   5.990   2.078  0.6641  0.0219  0.1268
   34TAL   C16611007   9.539   6.070   2.028  0.3714  0.2593  0.4029
   34TAL   C16711008   9.522   6.214   2.008 -0.1054  0.2940 -0.1974
   34TAL   C16811009   9.646   6.292   1.953  0.3951 -0.0900 -0.4400
   34TAL   C16911010   9.782   6.271   2.026  0.1760 -0.3471 -0.5589
   34TAL   C17011011   9.791   6.335   2.162  0.1600  0.8171 -0.9726
   35HTM   C17111012   9.551   5.718   1.970  0.1547 -0.1300  0.1387
   35HTM   C17211013   9.607   5.597   1.941  0.3810 -0.0266  0.1404
   35HTM   C17311014   9.651   5.584   1.805  0.3173  0.0194  0.1154
   35HTM   C17411015   9.629   5.695   1.729  0.0423 -0.0491  0.0947
   35HTM    S1811016   9.549   5.826   1.825 -0.1592 -0.1778  0.1051
   36TAL   C17511017   9.725   5.462   1.757  0.1681  0.6498  0.0557
   36TAL   C17611018   9.630   5.344   1.730 -1.5509  0.3831 -0.0964
   36TAL   C17711019   9.588   5.256   1.847  0.1699  0.9660  0.5003
   36TAL   C17811020   9.498   5.303   1.963  0.0400 -0.0658  0.5457
   36TAL   C17911021   9.415   5.202   2.030  0.5530  1.7126 -0.0432
   36TAL   C18011022   9.350   5.231   2.168 -0.0395 -0.0416  0.0237
   37HTM   C18111023   9.660   5.733   1.596  0.1865  0.2439 -0.4947
   37HTM   C18211024   9.716   5.662   1.495  0.1616  0.3835 -0.6074
   37HTM   C18311025   9.727   5.735   1.371 -0.2978  0.4020 -0.6404
   37HTM   C18411026   9.679   5.862   1.379 -0.6231  0.2767 -0.5529
   37HTM    S1911027   9.616   5.900   1.543 -0.3729  0.1242 -0.4209
   38TAL   C18511028   9.765   5.656   1.246 -0.5950  0.0674  1.1743
   38TAL   C18611029   9.919   5.636   1.223  0.2762 -0.0726 -0.3170
   38TAL   C18711030   9.963   5.527   1.322 -1.0793  1.0382 -0.6660
   38TAL   C18811031   9.965   5.380   1.261  0.0831  0.4415  0.3915
   38TAL   C18911032  10.047   5.275   1.338 -0.1896  0.3826  0.7514
   38TAL   C19011033   9.965   5.163   1.394 -0.2726 -0.5226  0.8344
   39HTM   C19111034   9.678   5.957   1.275 -0.0863 -0.1991  0.0116
   39HTM   C19211035   9.770   6.054   1.249  0.3572 -0.6266 -0.0284
   39HTM   C19311036   9.738   6.137   1.136  0.7052 -0.4896 -0.0301
   39HTM   C19411037   9.621   6.103   1.075  0.5271  0.0424  0.0086
   39HTM    S2011038   9.541   5.963   1.157 -0.0993  0.4146  0.0506
   40TAL   C19511039   9.821   6.257   1.093 -0.0493 -0.4619  0.6037
   40TAL   C19611040   9.937   6.225   0.994  0.0033  1.2368  0.8065
   40TAL   C19711041  10.045   6.110   1.029  0.4130  0.6655  0.2717
   40TAL   C19811042  10.153   6.070   0.921  0.3511  0.1282 -0.0324
   40TAL   C19911043  10.207   5.920   0.914  0.6600 -0.8674  0.1247
   40TAL   C20011044  10.088   5.823   0.891  0.5694 -0.6188 -0.0632
   41HTM   C20111045   9.550   6.154   0.961  0.2633 -1.4932 -0.8085
   41HTM   C20211046   9.605   6.188   0.841 -0.0715 -2.7349 -1.3487
   41HTM   C20311047   9.508   6.226   0.741 -0.2975 -2.2135 -0.9441
   41HTM   C20411048   9.379   6.220   0.785 -0.1353 -0.5742 -0.0954
   41HTM    S2111049   9.370   6.167   0.957  0.3196  0.4460  0.2614
   42TAL   C20511050   9.561   6.273   0.602  1.5288 -0.5374 -0.1012
   42TAL   C20611051   9.600   6.418   0.570  0.1974  1.1971 -0.2120
   42TAL   C20711052   9.642   6.404   0.429  0.6983 -0.3963  0.8252
   42TAL   C20811053   9.762   6.490   0.385  0.1081 -0.7487 -0.4572
   42TAL   C20911054   9.825   6.413   0.282 -0.3458  0.1366 -0.3734
   42TAL   C21011055   9.981   6.433   0.290  1.1741 -0.6223  0.4348
   43HTM   C21111056   9.249   6.254   0.718  0.2018  0.4392 -0.1736
   43HTM   C21211057   9.130   6.276   0.782  0.3331  0.4882  0.0566
   43HTM   C21311058   9.016   6.267   0.695  0.1519  0.4220  0.3001
   43HTM   C21411059   9.047   6.239   0.565 -0.1173  0.3225  0.2556
   43HTM    S2211060   9.225   6.221   0.542 -0.1630  0.3044 -0.1002
   44TAL   C21511061   8.876   6.309   0.735 -0.2693  0.7049 -0.5205
   44TAL   C21611062   8.848   6.376   0.858 -0.5708 -0.5714 -0.0645
   44TAL   C21711063   8.709   6.405   0.883  0.1678  0.1074 -0.0594
   44TAL   C21811064   8.726   6.491   1.019  1.2883  0.0228  0.2441
   44TAL   C21911065   8.575   6.528   1.050  0.0007 -0.5193  0.5421
   44TAL   C22011066   8.562   6.652   1.144 -0.6611 -0.1601 -0.0795
   45HTM   C22111067   8.950   6.199   0.457 -0.3823  0.4507  0.2058
   45HTM   C22211068   8.926   6.069   0.422 -0.5941  0.4677  0.2804
   45HTM   C22311069   8.824   6.054   0.321 -0.4807  0.5916  0.1467
   45HTM   C22411070   8.770   6.172   0.280 -0.1827  0.6693 -0.0298
   45HTM    S2311071   8.844   6.313   0.366 -0.0209  0.5912 -0.0409
   46TAL   C22511072   8.777   5.923   0.258  0.3164  0.1047 -0.2484
   46TAL   C22611073   8.746   5.820   0.365 -0.7222  1.0074 -0.6933
   46TAL   C22711074   8.610   5.836   0.435 -0.0341 -0.3116 -0.5604
   46TAL   C22811075   8.554   5.704   0.468 -0.3803 -0.6913  0.1234
   46TAL   C22911076   8.633   5.643   0.580 -1.1155  0.0687 -1.0814
   46TAL   C23011077   8.567   5.514   0.628  0.3713  0.6638  0.0873
   47HTM   C23111078   8.674   6.200   0.167 -0.1828 -0.0789 -0.1482
   47HTM   C23211079   8.540   6.226   0.167 -0.0854  0.4478 -0.2013
   47HTM   C23311080   8.485   6.245   0.035  0.0517  0.7191 -0.2195
   47HTM   C23411081   8.578   6.234  -0.065  0.0593  0.3992 -0.1799
   47HTM    S2411082   8.742   6.198  -0.000 -0.1083 -0.2745 -0.1167
   48TAL   C23511083   8.340   6.251   0.015 -0.3729 -0.3966  0.1639
   48TAL   C23611084   8.272   6.282  -0.126 -0.2652  0.4417 -0.2786
   48TAL   C23711085   8.300   6.430  -0.169 -0.1522  1.1601  0.2165
   48TAL   C23811086   8.250   6.532  -0.079  0.1345 -0.2350  0.4529
   48TAL   C23911087   8.330   6.654  -0.086  0.5388 -1.6713 -0.1792
   48TAL   C24011088   8.234   6.772  -0.116 -0.8084  0.5455  0.7717
    1HTM     C111089   3.620   2.584   0.724  0.0727 -0.3547  0.2727
    1HTM     C211090   3.567   2.667   0.630  0.3653 -0.7059 -0.2111
    1HTM     C311091   3.433   2.710   0.660  0.2771 -0.5669 -0.7783
    1HTM     C411092   3.384   2.660   0.777 -0.0827 -0.1097 -0.7270
    1HTM     S111093   3.505   2.554   0.859 -0.3400  0.1831  0.0477
    2TAL     C511094   3.340   2.785   0.555 -0.5257  0.7334 -0.4225
    2TAL     C611095   3.400   2.920   0.512 -0.2476  0.2068 -0.6905
    2TAL     C711096   3.303   3.026   0.476  1.3563  0.1001  0.3944
    2TAL     C811097   3.193   2.990   0.383  1.5220  0.5877  0.0230
    2TAL     C911098   3.218   2.933   0.236 -0.2021  0.4722  0.2150
    2TAL    C1011099   3.091   2.943   0.166  0.0841 -0.0181 -0.4343
    3HTM    C1111100   3.250   2.660   0.831 -0.1591 -0.0449  0.0859
    3HTM    C1211101   3.171   2.555   0.865 -0.1855 -0.0355  0.0535
    3HTM    C1311102   3.040   2.593   0.913 -0.1886 -0.0186  0.0314
    3HTM    C1411103   3.020   2.728   0.914 -0.1643 -0.0150  0.0471
    3HTM     S211104   3.165   2.818   0.856 -0.1356 -0.0331  0.0911
    4TAL    C1511105   2.953   2.489   0.973  0.8807 -0.2187 -0.6408
    4TAL    C1611106   3.016   2.386   1.061 -0.2817 -0.2508  0.4594
    4TAL    C1711107   3.132   2.409   1.172  0.9396 -0.3544 -0.2930
    4TAL    C1811108   3.071   2.467   1.305  0.1716  0.2356  0.0915
    4TAL    C1911109   3.167   2.489   1.413 -0.3015 -0.1110  0.1873
    4TAL    C2011110   3.170   2.382   1.524  0.2806  0.0651 -0.6470
    5HTM    C2111111   2.926   2.802   0.987  0.4480  0.3440 -0.2164
    5HTM    C2211112   2.951   2.872   1.102  0.5239  0.2844 -0.1966
    5HTM    C2311113   2.832   2.917   1.169  0.5709  0.3299 -0.1439
    5HTM    C2411114   2.716   2.882   1.106  0.5310  0.4242 -0.1235
    5HTM     S311115   2.749   2.788   0.955  0.4301  0.4631 -0.1695
    6TAL    C2511116   2.844   3.003   1.291  0.0636  0.4272  0.6231
    6TAL    C2611117   2.966   3.101   1.318  0.3770 -1.5384  0.3465
    6TAL    C2711118   2.951   3.229   1.220 -0.3587  0.1165 -0.1654
    6TAL    C2811119   2.838   3.334   1.236 -0.8170  0.0849  0.3579
    6TAL    C2911120   2.695   3.294   1.221  0.8310  0.3759  0.9000
    6TAL    C3011121   2.632   3.438   1.185  0.2974  0.0085 -0.0738
    7HTM    C3111122   2.574   2.907   1.126 -0.3060  0.3451  0.0443
    7HTM    C3211123   2.506   2.978   1.221 -0.5217 -0.2283  0.3285
    7HTM    C3311124   2.363   2.964   1.212 -0.4907 -0.4322  0.1195
    7HTM    C3411125   2.322   2.882   1.111 -0.2512 -0.0142 -0.3240
    7HTM     S411126   2.462   2.816   1.018 -0.0448  0.6746 -0.5136
    8TAL    C3511127   2.284   3.029   1.327  0.0612  0.0555 -0.7499
    8TAL    C3611128   2.261   3.187   1.327  0.0578  0.7972  1.4452
    8TAL    C3711129   2.222   3.261   1.197 -0.5552 -0.0618 -1.0651
    8TAL    C3811130   2.202   3.410   1.225 -0.7234  0.0301 -1.0430
    8TAL    C3911131   2.102   3.474   1.132 -0.6020  0.5380 -0.5267
    8TAL    C4011132   2.160   3.606   1.079 -0.1834  0.9108  0.4513
    9HTM    C4111133   2.186   2.858   1.060  0.3091  0.0459  0.5049
    9HTM    C4211134   2.164   2.818   0.932  0.4858 -0.0344  0.4987
    9HTM    C4311135   2.024   2.810   0.897  0.5248 -0.3426  0.4021
    9HTM    C4411136   1.940   2.845   0.999  0.3779 -0.4975  0.3347
    9HTM     S511137   2.032   2.890   1.147  0.1773 -0.2640  0.3884
   10TAL    C4511138   1.994   2.753   0.773 -0.2450 -0.7396  0.8268
   10TAL    C4611139   2.010   2.851   0.658 -0.2755  0.6565  1.1834
   10TAL    C4711140   1.885   2.880   0.575 -1.2038  0.3294 -0.9870
   10TAL    C4811141   1.909   3.008   0.496  0.4773  0.9060  0.3596
   10TAL    C4911142   1.934   3.148   0.547 -0.4433  0.7129 -1.9623
   10TAL    C5011143   1.881   3.182   0.684 -0.7852  0.1392 -0.4940
   11HTM    C5111144   1.799   2.866   1.011  0.6851 -0.2848 -0.0098
   11HTM    C5211145   1.744   2.985   1.047  1.0068 -0.4181  0.9799
   11HTM    C5311146   1.601   2.981   1.059  1.0129 -0.1788  1.1393
   11HTM    C5411147   1.546   2.859   1.032  0.6959  0.1371  0.2712
   11HTM     S611148   1.673   2.738   0.989  0.3624  0.1568 -0.8235
   12TAL    C5511149   1.496   3.088   1.114 -0.1657 -0.2661  0.0823
   12TAL    C5611150   1.545   3.202   1.201 -0.1564 -0.1037  0.8400
   12TAL    C5711151   1.623   3.171   1.338  0.9617  0.6304  1.1940
   12TAL    C5811152   1.539   3.095   1.443  0.0801 -0.2533  0.3271
   12TAL    C5911153   1.600   3.092   1.591  0.3822 -0.2578  0.7780
   12TAL    C6011154   1.498   3.016   1.674 -0.9947 -0.4190  0.5613
   13HTM    C6111155   1.412   2.802   1.024  0.2570 -0.1756 -0.1532
   13HTM    C6211156   1.377   2.675   1.063  0.4689 -0.3647 -0.5695
   13HTM    C6311157   1.237   2.648   1.050  0.5690 -0.6921 -1.0207
   13HTM    C6411158   1.164   2.752   1.002  0.4335 -0.7526 -0.9485
   13HTM     S711159   1.268   2.896   0.969  0.1668 -0.3980 -0.3000
   14TAL    C6511160   1.164   2.516   1.094 -0.7121  0.2348 -0.1989
   14TAL    C6611161   1.226   2.406   1.176 -0.6790  0.1024  0.5554
   14TAL    C6711162   1.220   2.261   1.108  1.3053  0.4034  0.4141
   14TAL    C6811163   1.301   2.241   0.973 -0.2414 -0.1268 -0.5849
   14TAL    C6911164   1.247   2.139   0.873  0.4022 -1.0500 -0.3708
   14TAL    C7011165   1.128   2.195   0.801 -0.3085  0.0643  0.8949
   15HTM    C7111166   1.022   2.778   0.991 -0.6044  0.5529 -0.1534
   15HTM    C7211167   0.962   2.898   0.969 -0.9951  0.3972  0.0533
   15HTM    C7311168   0.819   2.888   0.952 -1.0124  0.0064  0.3839
   15HTM    C7411169   0.771   2.761   0.961 -0.6348 -0.1359  0.4292
   15HTM     S811170   0.903   2.642   0.992 -0.2250  0.2154  0.0550
   16TAL    C7511171   0.746   3.015   0.952  0.1260 -1.2062 -0.1003
   16TAL    C7611172   0.715   3.085   0.815 -0.7491 -0.6823  1.1752
   16TAL    C7711173   0.828   3.117   0.730 -0.3408  0.8798  0.1662
   16TAL    C7811174   0.798   3.081   0.586 -0.1015 -0.4524 -0.8046
   16TAL    C7911175   0.915   3.036   0.504  0.2599 -0.1249 -0.2979
   16TAL    C8011176   1.033   3.125   0.493 -0.7468  0.4178  0.1404
   17HTM    C8111177   0.637   2.719   0.965 -0.0241 -0.0523  0.7464
   17HTM    C8211178   0.591   2.606   1.026 -0.1745 -0.2055  0.3548
   17HTM    C8311179   0.452   2.578   0.998 -0.1023 -0.1503 -0.0711
   17HTM    C8411180   0.393   2.669   0.915  0.1032  0.0449 -0.0042
   17HTM     S911181   0.509   2.799   0.867  0.2223  0.1754  0.6066
   18TAL    C8511182   0.401   2.440   1.038 -0.1784 -0.6313  0.5322
   18TAL    C8611183   0.331   2.461   1.165  0.0707 -1.4420 -1.1174
   18TAL    C8711184   0.300   2.327   1.239  0.4200 -1.1127 -0.0543
   18TAL    C8811185   0.171   2.266   1.193 -0.3017  0.3664  0.4143
   18TAL    C8911186   0.051   2.351   1.228 -0.2934  0.1868 -0.0381
   18TAL    C9011187  -0.074   2.281   1.192  0.1789  1.2664 -0.2686
   19HTM    C9111188   0.268   2.667   0.837 -0.1907  0.3037 -0.2015
   19HTM    C9211189   0.150   2.608   0.871  0.0275 -0.1321 -0.1848
   19HTM    C9311190   0.047   2.620   0.771 -0.0332 -0.5096 -0.1711
   19HTM    C9411191   0.087   2.688   0.659 -0.2976 -0.3617 -0.1773
   19HTM    S1011192   0.259   2.743   0.673 -0.4921  0.2706 -0.2011
   20TAL    C9511193  -0.093   2.582   0.811  0.5569 -0.4059 -0.0011
   20TAL    C9611194  -0.146   2.641   0.937  0.5013  0.1535 -0.5786
   20TAL    C9711195  -0.295   2.618   0.973 -0.2244 -0.1547 -0.5248
   20TAL    C9811196  -0.401   2.622   0.854 -0.4298  0.2216  1.2784
   20TAL    C9911197  -0.529   2.555   0.867  0.6032 -0.8614 -1.0309
   20TAL   C10011198  -0.620   2.543   0.746 -0.1643  0.3423  0.0269
   21HTM   C10111199   0.019   2.723   0.540 -0.4628 -0.0693 -0.2856
   21HTM   C10211200   0.064   2.797   0.434 -0.4044 -0.5594 -0.6126
   21HTM   C10311201  -0.028   2.802   0.324 -0.5524 -0.6870 -0.4969
   21HTM   C10411202  -0.143   2.732   0.344 -0.7238 -0.2943 -0.0819
   21HTM    S1111203  -0.144   2.653   0.507 -0.7113  0.2714  0.1974
   22TAL   C10511204   0.017   2.870   0.193  0.9645  0.6838  1.6253
   22TAL   C10611205   0.114   2.793   0.110 -0.3551  0.8769  0.4147
   22TAL   C10711206   0.106   2.830  -0.039 -0.9973  0.6974 -0.2011
   22TAL   C10811207   0.217   2.762  -0.114 -0.3948  0.4035  0.6973
   22TAL   C10911208   0.229   2.768  -0.271  0.4041  0.1875 -0.4043
   22TAL   C11011209   0.352   2.831  -0.331 -0.1378  0.3387  0.2600
   23HTM   C11111210  -0.264   2.725   0.267 -0.0534 -0.0538  0.2743
   23HTM   C11211211  -0.283   2.708   0.133  0.1712  0.1987  0.2087
   23HTM   C11311212  -0.421   2.707   0.094  0.2341  0.2072 -0.0184
   23HTM   C11411213  -0.508   2.723   0.198  0.0576 -0.0389 -0.1260
   23HTM    S1211214  -0.420   2.741   0.355 -0.2039 -0.3025  0.0526
   24TAL   C11511215  -0.477   2.677  -0.051 -0.5082  0.6330  0.4198
   24TAL   C11611216  -0.359   2.652  -0.147  0.7533  1.6260 -0.0306
   24TAL   C11711217  -0.309   2.504  -0.152  1.1394  0.1288  1.2471
   24TAL   C11811218  -0.175   2.470  -0.195  0.6240  0.1766 -0.8550
   24TAL   C11911219  -0.116   2.506  -0.330  1.0254  0.1454 -0.1897
   24TAL   C12011220  -0.000   2.428  -0.356  0.5251 -0.1197  0.1757
   25HTM   C12111221  -0.648   2.681   0.210 -0.2476 -0.1579  0.2864
   25HTM   C12211222  -0.694   2.575   0.282 -0.2725  0.0397  0.5643
   25HTM   C12311223  -0.838   2.563   0.282 -0.2730  0.0465  0.5557
   25HTM   C12411224  -0.901   2.661   0.210 -0.2486 -0.1459  0.2712
   25HTM    S1311225  -0.783   2.775   0.136 -0.2222 -0.3523 -0.0100
   26TAL   C12511226  -0.912   2.459   0.365 -0.3398 -0.4524  0.8954
   26TAL   C12611227  -0.962   2.490   0.508 -0.1291  0.1701  0.1279
   26TAL   C12711228  -1.031   2.361   0.573  0.3188 -0.9092 -0.3167
   26TAL   C12811229  -1.088   2.382   0.709  0.3790  1.8576  0.5508
   26TAL   C12911230  -0.979   2.390   0.811  1.0197  0.6129  0.3407
   26TAL   C13011231  -1.071   2.386   0.936 -0.4119  1.1148 -0.1727
   27HTM   C13111232  -1.047   2.683   0.196 -0.6537 -0.3971 -0.3091
   27HTM   C13211233  -1.143   2.637   0.110 -1.0104  0.3737 -0.3399
   27HTM   C13311234  -1.276   2.682   0.142 -0.7641  0.8338  0.0713
   27HTM   C13411235  -1.282   2.762   0.253 -0.2192  0.4139  0.4158
   27HTM    S1411236  -1.119   2.787   0.325  0.0265 -0.6032  0.2460
   28TAL   C13511237  -1.400   2.649   0.054 -0.6789 -0.5734 -0.3632
   28TAL   C13611238  -1.456   2.512   0.082 -0.5093  0.4342 -1.1581
   28TAL   C13711239  -1.603   2.496   0.035  0.7246  1.6427 -0.5903
   28TAL   C13811240  -1.694   2.523   0.158 -0.7455 -0.8433 -0.4797
   28TAL   C13911241  -1.850   2.542   0.163 -0.1217  0.2294 -0.0823
   28TAL   C14011242  -1.891   2.596   0.294  0.6065  0.3292 -0.4711
   29HTM   C14111243  -1.395   2.790   0.334  0.2578  0.1589 -0.2590
   29HTM   C14211244  -1.404   2.750   0.464  0.7551 -0.2068 -0.3297
   29HTM   C14311245  -1.518   2.805   0.534  0.8667 -0.6118  0.1850
   29HTM   C14411246  -1.595   2.887   0.457  0.4549 -0.5548  0.6482
   29HTM    S1511247  -1.530   2.901   0.289 -0.1104  0.0192  0.4688
   30TAL   C14511248  -1.563   2.758   0.668  1.2221  0.9096 -0.3394
   30TAL   C14611249  -1.472   2.774   0.796  0.5256  0.6892  0.1425
   30TAL   C14711250  -1.532   2.720   0.922  0.5682  0.2318  0.9853
   30TAL   C14811251  -1.471   2.772   1.044 -0.2717 -0.5803 -0.8700
   30TAL   C14911252  -1.482   2.925   1.066  0.3532 -0.1088 -0.7603
   30TAL   C15011253  -1.408   2.968   1.191  0.8683 -0.8541  1.6086
   31HTM   C15111254  -1.713   2.968   0.502 -0.1316 -0.2828 -0.4198
   31HTM   C15211255  -1.723   3.041   0.617  0.2067 -0.4703 -0.2707
   31HTM   C15311256  -1.845   3.117   0.627  0.3917 -0.2155  0.0560
   31HTM   C15411257  -1.927   3.103   0.520  0.1943  0.1662  0.1560
   31HTM    S1611258  -1.858   2.992   0.396 -0.2441  0.2341 -0.1573
   32TAL   C15511259  -1.860   3.224   0.737 -0.3705  0.1562 -0.1783
   32TAL   C15611260  -1.748   3.282   0.825  0.3886  0.0250  0.3779
   32TAL   C15711261  -1.629   3.337   0.749 -0.1067  0.2412 -0.0107
   32TAL   C15811262  -1.622   3.449   0.638  0.2403  0.6038  1.3183
   32TAL   C15911263  -1.714   3.565   0.644  0.3530  0.4979 -0.6999
   32TAL   C16011264  -1.798   3.581   0.522 -1.2296  0.0909 -0.4175
   33HTM   C16111265  -2.049   3.160   0.477  0.6493 -0.7476  0.2609
   33HTM   C16211266  -2.119   3.263   0.533  0.9927 -0.9837  1.1664
   33HTM   C16311267  -2.244   3.291   0.466  0.7948 -0.3646  1.7702
   33HTM   C16411268  -2.269   3.209   0.360  0.3003  0.3434  1.3250
   33HTM    S1711269  -2.135   3.090   0.335  0.0448  0.2828  0.0992
   34TAL   C16511270  -2.342   3.396   0.516  0.5184 -0.5911  0.5952
   34TAL   C16611271  -2.451   3.457   0.419 -0.0069 -0.1920 -0.0360
   34TAL   C16711272  -2.512   3.593   0.432  0.3758  0.0399  0.0585
   34TAL   C16811273  -2.546   3.660   0.573 -0.5421  0.4740  0.6616
   34TAL   C16911274  -2.679   3.609   0.612 -0.4929  1.3097  0.7826
   34TAL   C17011275  -2.698   3.601   0.763 -0.0645 -1.7675 -0.2682
   35HTM   C17111276  -2.380   3.200   0.262 -0.0720  0.2057 -0.2820
   35HTM   C17211277  -2.383   3.283   0.154  0.4355 -0.3455 -0.7295
   35HTM   C17311278  -2.494   3.259   0.066  0.5648 -0.4594 -0.8635
   35HTM   C17411279  -2.576   3.158   0.107  0.1561  0.0050 -0.5181
   35HTM    S1811280  -2.519   3.085   0.261 -0.4283  0.6269  0.0073
   36TAL   C17511281  -2.496   3.338  -0.063 -0.5235  0.0802  0.3564
   36TAL   C17611282  -2.396   3.271  -0.167 -0.8458 -1.2419  0.4667
   36TAL   C17711283  -2.433   3.331  -0.309 -0.6510  0.4307  0.6345
   36TAL   C17811284  -2.364   3.272  -0.430  0.0479  0.1521 -0.4899
   36TAL   C17911285  -2.318   3.133  -0.435 -0.0186  0.2311  0.5056
   36TAL   C18011286  -2.419   3.016  -0.451 -0.2020  0.7978 -0.1205
   37HTM   C18111287  -2.701   3.112   0.051  0.3417 -0.4289  0.1318
   37HTM   C18211288  -2.828   3.137   0.092  0.2629 -0.3077 -0.1848
   37HTM   C18311289  -2.929   3.072   0.011  0.3803  0.1194 -0.6864
   37HTM   C18411290  -2.877   2.998  -0.091  0.5485  0.3237 -0.7521
   37HTM    S1911291  -2.697   3.004  -0.093  0.5721 -0.0099 -0.1815
   38TAL   C18511292  -3.074   3.106   0.052  0.0634  0.3597 -0.5545
   38TAL   C18611293  -3.188   3.010  -0.006 -1.3471  0.2295 -0.5117
   38TAL   C18711294  -3.324   3.061   0.011 -0.1644 -1.6988 -0.4647
   38TAL   C18811295  -3.357   3.199  -0.064 -0.3934  1.1392 -0.9757
   38TAL   C18911296  -3.507   3.245  -0.057  0.4407  0.0812  0.5307
   38TAL   C19011297  -3.518   3.396  -0.078 -0.4107  0.4837 -0.6485
   39HTM   C19111298  -2.941   2.909  -0.192  0.2126 -0.0368 -0.0834
   39HTM   C19211299  -2.934   2.773  -0.204 -0.1431 -0.0530 -0.1478
   39HTM   C19311300  -2.993   2.723  -0.325 -0.5610  0.1265 -0.0236
   39HTM   C19411301  -3.045   2.819  -0.406 -0.5241  0.2795  0.1349
   39HTM    S2011302  -3.024   2.984  -0.334  0.0459  0.2082  0.1405
   40TAL   C19511303  -2.963   2.576  -0.355  0.9581  0.0681 -0.0295
   40TAL   C19611304  -2.830   2.533  -0.402  0.3759 -0.4646  0.4754
   40TAL   C19711305  -2.734   2.620  -0.483 -0.3374 -0.2051  0.3113
   40TAL   C19811306  -2.759   2.622  -0.634  0.3644  0.5191  0.2963
   40TAL   C19911307  -2.656   2.705  -0.709 -0.1927  0.2935  0.6707
   40TAL   C20011308  -2.580   2.605  -0.789 -0.3589  0.0110 -0.0726
   41HTM   C20111309  -3.106   2.810  -0.533 -0.6335 -0.2420  0.2670
   41HTM   C20211310  -3.160   2.702  -0.597 -1.6894 -0.0452  0.7710
   41HTM   C20311311  -3.232   2.737  -0.717 -1.8675  0.1516  0.9348
   41HTM   C20411312  -3.235   2.870  -0.743 -0.9478  0.1050  0.5550
   41HTM    S2111313  -3.144   2.964  -0.618  0.2242 -0.1935 -0.0436
   42TAL   C20511314  -3.272   2.615  -0.798  0.0624  0.5128  0.1782
   42TAL   C20611315  -3.184   2.566  -0.913  0.1379 -0.1856 -0.1012
   42TAL   C20711316  -3.236   2.439  -0.988  0.2392 -0.8349  0.6678
   42TAL   C20811317  -3.301   2.324  -0.915  0.3651  0.8486  0.4502
   42TAL   C20911318  -3.398   2.251  -1.011 -1.0882  1.2674 -0.8105
   42TAL   C21011319  -3.537   2.310  -1.022 -0.1330 -1.3284  0.4185
   43HTM   C21111320  -3.289   2.938  -0.860  0.1552 -0.3566 -0.3212
   43HTM   C21211321  -3.238   3.054  -0.911 -0.0323 -0.2978 -0.3774
   43HTM   C21311322  -3.315   3.108  -1.020 -0.3444 -0.2621 -0.1454
   43HTM   C21411323  -3.424   3.034  -1.054 -0.3948 -0.2936  0.0872
   43HTM    S2211324  -3.439   2.888  -0.948 -0.0494 -0.3713  0.0318
   44TAL   C21511325  -3.242   3.219  -1.090  0.2674  0.3652  0.9230
   44TAL   C21611326  -3.326   3.343  -1.118  0.8253  0.1206  0.4782
   44TAL   C21711327  -3.254   3.429  -1.211  0.7111  0.1790  0.4817
   44TAL   C21811328  -3.362   3.532  -1.264 -0.3002 -0.0676 -1.0788
   44TAL   C21911329  -3.303   3.630  -1.368 -0.1310  0.4736 -1.2072
   44TAL   C22011330  -3.201   3.721  -1.298  0.1047 -0.7146  0.7885
   45HTM   C22111331  -3.504   3.035  -1.167  0.3962  0.5138  0.3122
   45HTM   C22211332  -3.637   3.009  -1.152  0.4659  0.1907  0.3996
   45HTM   C22311333  -3.717   3.052  -1.264  0.3384 -0.4023  0.2549
   45HTM   C22411334  -3.644   3.111  -1.364  0.1715 -0.5312  0.0569
   45HTM    S2311335  -3.468   3.116  -1.324  0.1622  0.0911  0.0380
   46TAL   C22511336  -3.864   3.020  -1.255  0.7576  0.3687  0.2164
   46TAL   C22611337  -3.910   2.878  -1.302  0.0994 -0.3752 -0.2835
   46TAL   C22711338  -3.860   2.755  -1.223 -0.2286 -0.8691 -0.3401
   46TAL   C22811339  -3.855   2.782  -1.074  0.2469 -0.8414 -0.5136
   46TAL   C22911340  -3.786   2.677  -0.997 -0.4656 -1.2075  0.0433
   46TAL   C23011341  -3.801   2.721  -0.857 -0.5169  0.4373  0.3365
   47HTM   C23111342  -3.684   3.174  -1.487 -0.2196  0.3845 -0.0463
   47HTM   C23211343  -3.665   3.305  -1.520 -0.5420  0.3484 -0.3881
   47HTM   C23311344  -3.735   3.346  -1.639 -0.5534 -0.1632 -0.5605
   47HTM   C23411345  -3.808   3.246  -1.697 -0.2392 -0.5171 -0.3501
   47HTM    S2411346  -3.793   3.092  -1.605  0.0974 -0.2295  0.0850
   48TAL   C23511347  -3.739   3.486  -1.676  0.4255 -0.2397  0.0466
   48TAL   C23611348  -3.606   3.563  -1.696  0.4938 -0.5279  0.0961
   48TAL   C23711349  -3.619   3.713  -1.712  0.5056 -0.0627 -0.2071
   48TAL   C23811350  -3.737   3.770  -1.795 -0.1991 -0.7868  0.2267
   48TAL   C23911351  -3.757   3.926  -1.818 -0.1201  0.1232  0.8713
   48TAL   C24011352  -3.848   3.962  -1.932 -0.2636 -0.3995 -0.6815
    1HTM     C111353   1.778   7.600   1.573  0.2209  0.2347  0.1696
    1HTM     C211354   1.876   7.591   1.668  0.3757  0.4960  0.0332
    1HTM     C311355   1.975   7.491   1.640  0.3663  0.4637  0.1152
    1HTM     C411356   1.952   7.422   1.524  0.2044  0.1777  0.3141
    1HTM     S111357   1.803   7.480   1.441  0.0499 -0.0750  0.4140
    2TAL     C511358   2.079   7.453   1.752 -0.7567  0.1598  0.2225
    2TAL     C611359   2.223   7.497   1.725  0.1830  0.2290  0.0564
    2TAL     C711360   2.312   7.464   1.838 -0.3647  1.0342 -1.1146
    2TAL     C811361   2.457   7.517   1.804  0.7447  0.4583  0.5425
    2TAL     C911362   2.563   7.464   1.899 -0.5551  0.1253 -0.1684
    2TAL    C1011363   2.712   7.497   1.852 -0.7400  0.4444 -0.1366
    3HTM    C1111364   2.016   7.299   1.463 -0.0519 -0.7157 -0.8157
    3HTM    C1211365   2.009   7.254   1.335  1.0000 -0.8214 -0.8490
    3HTM    C1311366   2.107   7.153   1.304  1.4989 -0.5939 -0.0759
    3HTM    C1411367   2.188   7.121   1.408  0.8273 -0.3147  0.5470
    3HTM     S211368   2.147   7.217   1.556 -0.4975 -0.3178  0.2027
    4TAL    C1511369   2.121   7.105   1.154 -0.0472  0.6243  0.0810
    4TAL    C1611370   2.173   7.204   1.043  1.1361  0.0161 -0.2522
    4TAL    C1711371   2.292   7.303   1.076  0.3828 -0.3599 -1.3718
    4TAL    C1811372   2.427   7.247   1.135  0.5253  0.4826 -0.2837
    4TAL    C1911373   2.547   7.317   1.207 -0.8764  0.6460 -1.9778
    4TAL    C2011374   2.499   7.410   1.329 -0.1537 -0.0014  0.7415
    5HTM    C2111375   2.284   7.023   1.424  0.0222 -0.0392  0.1944
    5HTM    C2211376   2.299   6.948   1.538 -0.2972 -0.3966  0.0050
    5HTM    C2311377   2.398   6.845   1.526 -0.3599 -0.4476 -0.0825
    5HTM    C2411378   2.460   6.841   1.404 -0.0883 -0.1292  0.0402
    5HTM     S311379   2.396   6.968   1.294  0.2705  0.2628  0.2776
    6TAL    C2511380   2.401   6.743   1.636  0.3328 -0.0654  0.1416
    6TAL    C2611381   2.473   6.763   1.774  0.2723 -0.7898 -0.6576
    6TAL    C2711382   2.621   6.760   1.797 -0.0779  0.0942  0.9282
    6TAL    C2811383   2.672   6.850   1.908  0.2314  0.1266  0.0909
    6TAL    C2911384   2.650   6.801   2.054 -0.3941  0.3733  1.0336
    6TAL    C3011385   2.579   6.875   2.171  0.2711  0.3160 -0.5272
    7HTM    C3111386   2.569   6.756   1.363 -0.0091 -0.0623 -0.0432
    7HTM    C3211387   2.644   6.774   1.251  0.3359  0.0219  0.2009
    7HTM    C3311388   2.749   6.676   1.236  0.5265  0.1670  0.5648
    7HTM    C3411389   2.754   6.584   1.336  0.3268  0.1934  0.5982
    7HTM     S411390   2.624   6.613   1.458 -0.1210  0.0357  0.1692
    8TAL    C3511391   2.843   6.690   1.118  0.6344  1.1975  0.1717
    8TAL    C3611392   2.844   6.810   1.033 -0.1781 -0.5464  0.1444
    8TAL    C3711393   2.936   6.794   0.915 -0.3444  0.7905 -0.2147
    8TAL    C3811394   2.941   6.928   0.835 -0.5313 -0.8246 -0.3823
    8TAL    C3911395   3.071   6.965   0.768  0.5759  0.6521 -0.1838
    8TAL    C4011396   3.047   7.069   0.664 -0.3122 -0.4260  0.2292
    9HTM    C4111397   2.833   6.462   1.338 -0.5768 -0.5612  0.3736
    9HTM    C4211398   2.781   6.349   1.282 -1.0802 -0.7303  1.1540
    9HTM    C4311399   2.853   6.228   1.317 -0.9508 -0.6640  1.1201
    9HTM    C4411400   2.959   6.250   1.400 -0.3487 -0.4442  0.3138
    9HTM     S511401   2.978   6.425   1.440  0.1051 -0.3026 -0.4713
   10TAL    C4511402   2.829   6.105   1.242 -0.6314  0.4538 -0.1652
   10TAL    C4611403   2.820   6.104   1.086 -0.0299 -0.5561 -0.3711
   10TAL    C4711404   2.793   5.969   1.014  0.4483 -0.6929 -0.5213
   10TAL    C4811405   2.901   5.865   0.991 -0.5460 -0.5922 -0.3637
   10TAL    C4911406   2.854   5.734   0.930  0.4888 -0.3370  0.1615
   10TAL    C5011407   2.975   5.633   0.927  0.3603 -0.5003 -0.5049
   11HTM    C5111408   3.059   6.162   1.442  0.1848 -0.4785 -0.2436
   11HTM    C5211409   3.051   6.030   1.472  0.5738 -0.6137 -0.6922
   11HTM    C5311410   3.178   5.966   1.490  0.7616 -0.2655 -0.7696
   11HTM    C5411411   3.285   6.050   1.473  0.5157  0.1352 -0.3798
   11HTM     S611412   3.231   6.217   1.433  0.0242  0.1037  0.1188
   12TAL    C5511413   3.201   5.823   1.528 -0.0483 -0.4075  0.2691
   12TAL    C5611414   3.102   5.731   1.456  0.4811  0.5218  0.2825
   12TAL    C5711415   3.120   5.576   1.441  0.0384 -0.5686  0.4902
   12TAL    C5811416   2.986   5.515   1.392  1.1691 -0.9369 -0.3839
   12TAL    C5911417   2.977   5.374   1.407  0.2791 -0.3209 -0.7673
   12TAL    C6011418   2.869   5.296   1.336  0.2047 -0.3729 -0.4380
   13HTM    C6111419   3.422   6.029   1.471  0.0548 -0.1339 -0.7082
   13HTM    C6211420   3.492   5.937   1.543 -0.0013 -0.4131 -1.0048
   13HTM    C6311421   3.634   5.956   1.539 -0.0201 -0.1450 -0.4873
   13HTM    C6411422   3.673   6.063   1.464  0.0217  0.3385  0.2039
   13HTM     S711423   3.532   6.148   1.392  0.0884  0.4940  0.2552
   14TAL    C6511424   3.724   5.843   1.592 -0.0604 -1.1964 -0.3638
   14TAL    C6611425   3.807   5.894   1.715 -0.4084 -0.5342  0.0757
   14TAL    C6711426   3.927   5.804   1.749 -0.9230  0.0512  0.7222
   14TAL    C6811427   3.999   5.825   1.876 -0.6972  0.0628 -0.2812
   14TAL    C6911428   3.927   5.888   1.991  0.3561 -0.3380 -0.1316
   14TAL    C7011429   3.986   5.872   2.131 -0.0707 -0.4314 -0.0128
   15HTM    C7111430   3.807   6.110   1.438  0.0184 -0.4956  0.1633
   15HTM    C7211431   3.876   6.088   1.323  0.6237 -0.6150  0.5403
   15HTM    C7311432   3.994   6.169   1.308  0.5910 -0.4859  0.9759
   15HTM    C7411433   4.015   6.255   1.412 -0.0393 -0.2680  0.9311
   15HTM     S811434   3.886   6.238   1.538 -0.6451 -0.2087  0.3305
   16TAL    C7511435   4.113   6.153   1.212  0.2905 -0.6458 -0.9661
   16TAL    C7611436   4.128   6.024   1.121  0.3582 -0.4593  0.3897
   16TAL    C7711437   4.241   6.046   1.024 -0.7520 -0.4308  0.3101
   16TAL    C7811438   4.200   6.036   0.875 -0.2549 -0.2048 -0.9660
   16TAL    C7911439   4.132   5.913   0.827  0.8084 -0.8020  0.1236
   16TAL    C8011440   4.104   5.929   0.685  0.5815  0.3610  0.4387
   17HTM    C8111441   4.127   6.344   1.441 -0.9576  0.7677  0.6461
   17HTM    C8211442   4.181   6.441   1.362 -1.8313  1.5594  0.9742
   17HTM    C8311443   4.295   6.506   1.420 -1.5097  1.3442  0.5928
   17HTM    C8411444   4.328   6.459   1.544 -0.3907  0.3887 -0.0260
   17HTM     S911445   4.217   6.328   1.597  0.3493 -0.3191 -0.1763
   18TAL    C8511446   4.372   6.588   1.318 -0.0306 -0.4985 -0.7308
   18TAL    C8611447   4.468   6.702   1.371 -0.7769  0.5130  0.3253
   18TAL    C8711448   4.397   6.819   1.451 -0.0308  1.1375  0.3747
   18TAL    C8811449   4.491   6.921   1.520 -0.2983 -0.1017  0.2119
   18TAL    C8911450   4.451   7.022   1.626  0.8238 -0.3196 -0.5773
   18TAL    C9011451   4.376   6.977   1.754 -0.7401  0.1544 -0.0125
   19HTM    C9111452   4.422   6.491   1.643 -0.0205 -0.0457  0.2290
   19HTM    C9211453   4.547   6.437   1.654 -0.0708 -0.2152 -0.0043
   19HTM    C9311454   4.626   6.497   1.758  0.3010 -0.1346 -0.3273
   19HTM    C9411455   4.561   6.595   1.827  0.6350  0.0966 -0.3401
   19HTM    S1011456   4.394   6.621   1.765  0.5048  0.2313  0.0577
   20TAL    C9511457   4.771   6.469   1.790 -0.4862  0.7208  0.4744
   20TAL    C9611458   4.846   6.356   1.713 -0.2683 -0.5278 -0.3339
   20TAL    C9711459   4.863   6.357   1.556 -1.6249 -0.6398 -0.5013
   20TAL    C9811460   4.884   6.479   1.471  0.6957 -0.3698 -0.2322
   20TAL    C9911461   4.935   6.614   1.507 -0.5738  0.9956 -0.4324
   20TAL   C10011462   5.028   6.670   1.402 -0.5875 -0.1663  0.6598
   21HTM   C10111463   4.593   6.686   1.931  0.5670  0.0641 -0.1233
   21HTM   C10211464   4.639   6.813   1.913  0.9588 -0.0345  0.1424
   21HTM   C10311465   4.666   6.882   2.036  0.6236 -0.1827  0.3045
   21HTM   C10411466   4.642   6.808   2.148 -0.0238 -0.1973  0.1623
   21HTM    S1111467   4.582   6.643   2.106 -0.2621 -0.0232 -0.1899
   22TAL   C10511468   4.732   7.023   2.032  0.7129  0.2187 -0.0519
   22TAL   C10611469   4.737   7.114   1.912  0.6428  0.4561  0.5557
   22TAL   C10711470   4.779   7.255   1.937 -0.4058  0.9175 -0.8992
   22TAL   C10811471   4.703   7.333   2.062 -0.1692  0.0689  0.5651
   22TAL   C10911472   4.700   7.486   2.040  0.5428  1.1952 -0.0220
   22TAL   C11011473   4.632   7.546   1.918  0.1949  0.6931  0.3225
   23HTM   C11111474   4.644   6.837   2.286 -0.4410  0.2862  0.1688
   23HTM   C11211475   4.546   6.804   2.374 -0.3351  0.0144  0.1875
   23HTM   C11311476   4.576   6.839   2.511 -0.3027 -0.1216  0.2146
   23HTM   C11411477   4.698   6.898   2.526 -0.3836  0.0461  0.2167
   23HTM    S1211478   4.784   6.915   2.369 -0.5083  0.3919  0.1841
   24TAL   C11511479   4.470   6.799   2.609  0.1695  0.2891 -0.1454
   24TAL   C11611480   4.346   6.893   2.635 -0.0338 -0.1113  0.7414
   24TAL   C11711481   4.365   7.016   2.725 -0.0093 -0.3522 -0.5093
   24TAL   C11811482   4.443   7.131   2.655  0.3584 -0.5728  0.5404
   24TAL   C11911483   4.484   7.262   2.733 -0.0604  1.0370 -0.4421
   24TAL   C12011484   4.497   7.383   2.647 -0.3361  0.7874 -0.4732
   25HTM   C12111485   4.763   6.946   2.654 -0.3611 -0.3308 -0.0362
   25HTM   C12211486   4.778   7.074   2.698 -1.0892 -0.3219  0.2099
   25HTM   C12311487   4.860   7.085   2.816 -1.0487 -0.0713  0.1581
   25HTM   C12411488   4.908   6.966   2.862 -0.2892  0.1112 -0.1274
   25HTM    S1311489   4.852   6.829   2.759  0.4387 -0.0207 -0.3549
   26TAL   C12511490   4.899   7.229   2.874 -0.1857  0.5429  0.5839
   26TAL   C12611491   4.798   7.308   2.946 -0.0964 -0.9133 -1.5236
   26TAL   C12711492   4.849   7.445   3.004  0.4227  0.7556  0.6489
   26TAL   C12811493   4.736   7.545   3.043  0.3180  0.2063  0.1824
   26TAL   C12911494   4.772   7.686   3.073 -0.0740 -0.3811 -0.1960
   26TAL   C13011495   4.705   7.786   2.961 -0.1246  1.3218 -0.2472
   27HTM   C13111496   4.990   6.930   2.985 -0.5116  0.3151 -0.0490
   27HTM   C13211497   5.104   6.996   3.019 -0.0941 -0.0252 -0.7464
   27HTM   C13311498   5.172   6.941   3.133  0.5145 -0.2986 -1.2303
   27HTM   C13411499   5.110   6.832   3.186  0.5612 -0.1670 -0.9018
   27HTM    S1411500   4.959   6.791   3.096 -0.1656  0.3166  0.0515
   28TAL   C13511501   5.313   6.983   3.176  0.4456  0.0107  0.2002
   28TAL   C13611502   5.419   6.948   3.074  0.0945 -0.2851 -0.5701
   28TAL   C13711503   5.532   7.048   3.069 -0.1174  0.5587 -0.8728
   28TAL   C13811504   5.675   6.993   3.072 -0.1473  0.2208 -0.6430
   28TAL   C13911505   5.732   6.953   3.210 -0.5401  0.2215 -0.9013
   28TAL   C14011506   5.864   6.884   3.210 -0.6789 -0.7102  0.3637
   29HTM   C14111507   5.139   6.777   3.329  0.1817  0.0560  0.2053
   29HTM   C14211508   5.084   6.827   3.444 -0.6176 -0.3713  0.0234
   29HTM   C14311509   5.115   6.749   3.561 -1.1156 -0.5960  0.0103
   29HTM   C14411510   5.193   6.640   3.535 -0.6957 -0.3398  0.1822
   29HTM    S1511511   5.234   6.628   3.360  0.3692  0.2094  0.3754
   30TAL   C14511512   5.070   6.800   3.693  0.2565 -0.1518  0.4438
   30TAL   C14611513   5.174   6.891   3.756  1.1043 -0.1088 -0.6285
   30TAL   C14711514   5.113   6.959   3.876 -0.0886 -0.1477  0.1283
   30TAL   C14811515   5.053   6.882   3.992 -0.9287  0.0323 -0.2303
   30TAL   C14911516   5.140   6.778   4.058 -0.6183  0.2639  0.6032
   30TAL   C15011517   5.267   6.838   4.117 -1.2161  0.3130 -0.3664
   31HTM   C15111518   5.242   6.539   3.627 -0.9696 -0.0360  0.2445
   31HTM   C15211519   5.242   6.403   3.612 -0.8985 -0.0248  0.1429
   31HTM   C15311520   5.310   6.333   3.717 -0.3062 -0.0343 -0.2351
   31HTM   C15411521   5.362   6.414   3.813  0.0748 -0.0527 -0.4218
   31HTM    S1611522   5.329   6.588   3.778 -0.2879 -0.0597 -0.1323
   32TAL   C15511523   5.299   6.184   3.730  0.3372  1.2528 -1.1037
   32TAL   C15611524   5.360   6.099   3.628 -1.0489  0.6902  0.3120
   32TAL   C15711525   5.342   5.954   3.608  0.4064  0.0135 -0.5301
   32TAL   C15811526   5.200   5.886   3.617 -1.0192  0.1129  0.1847
   32TAL   C15911527   5.189   5.735   3.618 -0.2412 -0.2527  1.2952
   32TAL   C16011528   5.275   5.659   3.721  0.3419 -0.4943  0.4957
   33HTM   C16111529   5.444   6.399   3.942  0.2571  0.5993 -0.1686
   33HTM   C16211530   5.415   6.470   4.054  1.0554  1.4681 -0.4845
   33HTM   C16311531   5.513   6.457   4.158  1.3143  1.4884 -0.7228
   33HTM   C16411532   5.617   6.376   4.126  0.7132  0.6349 -0.5888
   33HTM    S1711533   5.600   6.309   3.959 -0.2335 -0.2675 -0.1474
   34TAL   C16511534   5.486   6.513   4.304  0.1195  1.5377  1.1037
   34TAL   C16611535   5.363   6.449   4.375 -0.6745  0.0037  0.5761
   34TAL   C16711536   5.242   6.541   4.398  0.1976 -0.3609  1.6854
   34TAL   C16811537   5.117   6.455   4.378 -0.7119 -0.7110 -0.1466
   34TAL   C16911538   5.081   6.385   4.514  0.1309 -0.4965  0.0540
   34TAL   C17011539   4.953   6.308   4.510  0.3683  0.1143 -0.6207
   35HTM   C17111540   5.728   6.319   4.204 -0.3314 -0.4255 -0.2348
   35HTM   C17211541   5.813   6.221   4.162 -0.9487 -1.1173  0.0674
   35HTM   C17311542   5.917   6.190   4.256 -1.0731 -1.4102  0.1121
   35HTM   C17411543   5.912   6.264   4.370 -0.5507 -0.9419 -0.1562
   35HTM    S1811544   5.773   6.380   4.368  0.1445 -0.0879 -0.4884
   36TAL   C17511545   6.022   6.081   4.234 -0.2757  0.4226 -0.1477
   36TAL   C17611546   6.031   6.023   4.097 -0.3852 -0.3631 -0.5127
   36TAL   C17711547   6.123   5.890   4.097 -0.3842 -0.5855 -0.1713
   36TAL   C17811548   6.129   5.845   3.949  0.0369  0.0498 -0.5682
   36TAL   C17911549   6.244   5.752   3.902 -0.4486 -0.7749 -0.2709
   36TAL   C18011550   6.260   5.763   3.752  0.2756 -0.0765  0.7061
   37HTM   C18111551   6.006   6.267   4.484  1.1385  0.7322 -0.7961
   37HTM   C18211552   6.079   6.167   4.542  1.5415  0.7997 -1.1742
   37HTM   C18311553   6.132   6.202   4.671  0.7957  0.2905 -0.7150
   37HTM   C18411554   6.099   6.328   4.712 -0.1757 -0.1653  0.0133
   37HTM    S1911555   5.999   6.414   4.589 -0.2246  0.0145  0.1770
   38TAL   C18511556   6.215   6.104   4.769 -0.0503  0.1676  0.4031
   38TAL   C18611557   6.280   5.988   4.686  0.6242 -0.6673 -0.7979
   38TAL   C18711558   6.194   5.859   4.680 -0.5068  0.4060  0.0452
   38TAL   C18811559   6.247   5.780   4.567 -1.6577  0.4421  1.3911
   38TAL   C18911560   6.223   5.629   4.577  0.5019  0.4907  0.0782
   38TAL   C19011561   6.269   5.547   4.456 -0.3777 -0.0391 -0.0873
   39HTM   C19111562   6.147   6.393   4.836  0.0188 -0.0583  0.3464
   39HTM   C19211563   6.090   6.384   4.960  0.1726 -0.0808  0.4162
   39HTM   C19311564   6.139   6.482   5.053  0.1724  0.0060  0.3259
   39HTM   C19411565   6.233   6.566   5.001  0.0185  0.0946  0.1875
   39HTM    S2011566   6.268   6.527   4.828 -0.1397  0.0754  0.1599
   40TAL   C19511567   6.068   6.474   5.187  0.0458 -0.6211  0.6966
   40TAL   C19611568   6.149   6.455   5.313 -0.6803  0.1522 -1.0053
   40TAL   C19711569   6.204   6.311   5.352  0.4146 -0.1597 -0.5157
   40TAL   C19811570   6.341   6.285   5.297 -0.3694 -0.2596  0.7352
   40TAL   C19911571   6.410   6.184   5.378 -0.7687  0.3415 -1.3341
   40TAL   C20011572   6.550   6.141   5.333  0.0058  0.5372 -0.3860
   41HTM   C20111573   6.295   6.685   5.062  0.1425  0.3035  0.1353
   41HTM   C20211574   6.256   6.815   5.073  0.7039  0.4432  0.5833
   41HTM   C20311575   6.350   6.899   5.142  1.1617 -0.1588  0.6994
   41HTM   C20411576   6.462   6.832   5.185  0.9495 -0.7577  0.3399
   41HTM    S2111577   6.455   6.658   5.140  0.1487 -0.6066 -0.1775
   42TAL   C20511578   6.305   7.046   5.163  0.6479  0.8346  0.3928
   42TAL   C20611579   6.202   7.071   5.275  0.3257  0.4155  0.3568
   42TAL   C20711580   6.186   7.208   5.318 -1.2831 -0.7466  0.4312
   42TAL   C20811581   6.163   7.225   5.462  0.3563  0.3163 -0.4760
   42TAL   C20911582   6.262   7.306   5.548 -0.2136  0.1041  0.3892
   42TAL   C21011583   6.406   7.256   5.593 -0.0967 -0.1553  0.4583
   43HTM   C21111584   6.567   6.883   5.261 -0.2199 -0.0924 -0.0014
   43HTM   C21211585   6.697   6.882   5.221 -0.2851  0.2706 -0.2350
   43HTM   C21311586   6.788   6.938   5.318 -0.2311  0.2409 -0.2685
   43HTM   C21411587   6.726   6.981   5.432 -0.1245 -0.1445 -0.0602
   43HTM    S2211588   6.548   6.955   5.425 -0.0837 -0.5029  0.1962
   44TAL   C21511589   6.941   6.949   5.302  0.5326 -0.1490  0.2414
   44TAL   C21611590   7.010   7.035   5.189 -0.7727 -0.7286 -0.3948
   44TAL   C21711591   6.944   7.170   5.146  0.8103  0.4883 -0.2211
   44TAL   C21811592   7.001   7.307   5.127 -0.4370  0.2945  0.9471
   44TAL   C21911593   7.130   7.319   5.211 -0.0192  0.9065  0.7905
   44TAL   C22011594   7.100   7.426   5.328  0.1131 -0.2939  1.1307
   45HTM   C22111595   6.763   7.036   5.564 -0.2302  0.3313  1.0812
   45HTM   C22211596   6.714   6.981   5.678 -0.7367  1.1001  1.2503
   45HTM   C22311597   6.752   7.051   5.798 -0.7414  1.5470  0.9929
   45HTM   C22411598   6.830   7.161   5.775 -0.2385  1.1191  0.6276
   45HTM    S2311599   6.862   7.183   5.599  0.2841  0.1106  0.5801
   46TAL   C22511600   6.694   7.004   5.925 -0.0347  0.4550 -0.3346
   46TAL   C22611601   6.756   6.868   5.969 -0.0317 -1.0339  0.4012
   46TAL   C22711602   6.692   6.813   6.102  0.5003 -0.6073  0.0356
   46TAL   C22811603   6.778   6.709   6.176 -0.8208  0.2506 -0.9152
   46TAL   C22911604   6.749   6.550   6.142 -0.5749 -0.9869 -0.2136
   46TAL   C23011605   6.722   6.515   6.000  1.1273  0.8999 -0.3186
   47HTM   C23111606   6.895   7.242   5.882 -0.0391 -0.3639  0.3641
   47HTM   C23211607   6.851   7.359   5.934 -0.3090 -0.7371  0.9930
   47HTM   C23311608   6.935   7.412   6.038 -0.0837 -0.7824  0.8345
   47HTM   C23411609   7.044   7.334   6.065  0.3580 -0.4438  0.0845
   47HTM    S2411610   7.048   7.188   5.960  0.5249 -0.0385 -0.4839
   48TAL   C23511611   6.898   7.543   6.099 -0.0424 -0.4118 -0.0147
   48TAL   C23611612   6.975   7.582   6.231 -0.1527 -0.0461 -0.6905
   48TAL   C23711613   6.967   7.725   6.295 -0.2933 -0.2684  0.0276
   48TAL   C23811614   7.038   7.717   6.428  0.1533  0.6505 -0.3205
   48TAL   C23911615   7.046   7.847   6.504  0.9989  0.1685  0.5332
   48TAL   C24011616   7.165   7.866   6.599  0.4229  0.3003  1.0229
    1HTM     C111617   3.565   4.879   4.497  0.7572  0.6842  0.1607
    1HTM     C211618   3.689   4.826   4.476  0.6228  0.1987  0.5656
    1HTM     C311619   3.692   4.682   4.481  0.0664  0.1873  0.6826
    1HTM     C411620   3.570   4.625   4.504 -0.2235  0.6644  0.3667
    1HTM     S111621   3.442   4.751   4.524  0.1870  1.1685 -0.1066
    2TAL     C511622   3.826   4.605   4.471 -0.1753 -1.6450  0.9217
    2TAL     C611623   3.927   4.664   4.574 -0.6723  0.4156  0.0322
    2TAL     C711624   4.070   4.664   4.530 -0.9398  0.8486  0.2321
    2TAL     C811625   4.099   4.752   4.408 -0.3313  0.1782 -0.0512
    2TAL     C911626   4.229   4.735   4.325 -0.9376  0.5757 -0.7739
    2TAL    C1011627   4.251   4.845   4.221 -0.9662  0.1063 -0.2293
    3HTM    C1111628   3.523   4.485   4.487 -0.1056  0.0817 -0.2741
    3HTM    C1211629   3.570   4.378   4.417 -0.4305  0.3980 -1.0009
    3HTM    C1311630   3.474   4.272   4.401 -0.6035  0.5989 -1.3130
    3HTM    C1411631   3.353   4.299   4.459 -0.4105  0.4357 -0.8241
    3HTM     S211632   3.352   4.461   4.539  0.0081  0.0124  0.0753
    4TAL    C1511633   3.504   4.132   4.339 -0.2479  0.2404  0.2025
    4TAL    C1611634   3.588   4.041   4.423  0.2876  0.2822 -0.2471
    4TAL    C1711635   3.577   3.898   4.374  0.1754  0.9965  0.7273
    4TAL    C1811636   3.643   3.849   4.245 -0.7358 -0.2498  0.4198
    4TAL    C1911637   3.587   3.742   4.149 -0.0762  0.2079 -1.3422
    4TAL    C2011638   3.603   3.609   4.221  0.5598 -0.8384  0.6303
    5HTM    C2111639   3.241   4.215   4.480  0.6004  0.7059  0.4897
    5HTM    C2211640   3.219   4.103   4.555  0.9930  0.9277  0.9425
    5HTM    C2311641   3.080   4.069   4.569  1.1177  0.4133  0.9551
    5HTM    C2411642   2.996   4.154   4.505  0.8203 -0.2007  0.5121
    5HTM     S311643   3.086   4.286   4.421  0.3558 -0.1769  0.0411
    6TAL    C2511644   3.037   3.947   4.657 -0.7640 -0.6296  0.1636
    6TAL    C2611645   3.124   3.908   4.781  0.6439 -0.1987  0.2234
    6TAL    C2711646   3.038   3.795   4.854 -0.3058 -0.1899  0.1732
    6TAL    C2811647   3.094   3.764   4.992 -0.4009 -0.0674  0.7630
    6TAL    C2911648   2.985   3.707   5.086  0.0979 -0.2318  0.2319
    6TAL    C3011649   3.029   3.678   5.228  1.0509  0.1000 -0.1406
    7HTM    C3111650   2.854   4.129   4.478  0.0284  0.7885  0.6199
    7HTM    C3211651   2.795   4.135   4.355  0.3294  1.1539  0.4882
    7HTM    C3311652   2.652   4.123   4.360  0.3543  0.6328  0.0618
    7HTM    C3411653   2.602   4.108   4.485  0.0724 -0.1302 -0.1321
    7HTM     S411654   2.733   4.108   4.609 -0.2490 -0.2503  0.2118
    8TAL    C3511655   2.571   4.118   4.221 -0.3455 -1.0404  0.2731
    8TAL    C3611656   2.634   4.132   4.085  0.3364  0.7649 -0.1945
    8TAL    C3711657   2.541   4.156   3.961 -0.7154 -0.5196 -0.4447
    8TAL    C3811658   2.468   4.299   3.974 -0.2557 -0.7580 -0.0274
    8TAL    C3911659   2.341   4.308   3.888  0.4791 -0.4944  0.2302
    8TAL    C4011660   2.334   4.406   3.786 -0.6127 -0.1351 -0.0314
    9HTM    C4111661   2.464   4.113   4.538  0.1428  0.4619 -0.0556
    9HTM    C4211662   2.426   4.122   4.668  0.1106 -0.3924  0.0100
    9HTM    C4311663   2.284   4.138   4.686  0.0817 -0.7337  0.0955
    9HTM    C4411664   2.214   4.140   4.569  0.0918 -0.1396  0.0952
    9HTM     S511665   2.323   4.123   4.426  0.1390  0.9049 -0.0139
   10TAL    C4511666   2.210   4.153   4.813  0.7209  0.8813 -0.8176
   10TAL    C4611667   2.272   4.234   4.932 -0.5532  0.2455  0.6379
   10TAL    C4711668   2.177   4.249   5.048 -0.9528  0.6209  0.9325
   10TAL    C4811669   2.220   4.342   5.165  0.0934  0.3256 -0.2482
   10TAL    C4911670   2.185   4.491   5.176 -0.5539  0.0665  0.0211
   10TAL    C5011671   2.264   4.549   5.276  0.3090  0.3022 -0.1725
   11HTM    C5111672   2.074   4.163   4.540  0.4516  0.2355  0.3621
   11HTM    C5211673   2.012   4.120   4.427  0.7223 -0.4270  0.4586
   11HTM    C5311674   1.871   4.152   4.422  0.5984 -0.9848  0.2035
   11HTM    C5411675   1.827   4.220   4.532  0.2332 -0.7476 -0.0874
   11HTM     S611676   1.960   4.249   4.650  0.0159  0.2061 -0.0615
   12TAL    C5511677   1.777   4.096   4.313  0.1112  0.0461 -0.1264
   12TAL    C5611678   1.829   4.082   4.169  0.1229 -0.4032 -1.2779
   12TAL    C5711679   1.744   4.034   4.049  0.2266  0.6960  0.2964
   12TAL    C5811680   1.686   3.889   4.059 -0.5371 -0.7553  0.5607
   12TAL    C5911681   1.592   3.848   3.950 -0.4011  0.7031  0.5723
   12TAL    C6011682   1.653   3.820   3.810  0.0842 -0.0096 -0.1340
   13HTM    C6111683   1.702   4.290   4.560  0.0460  0.5086 -0.4816
   13HTM    C6211684   1.682   4.422   4.590 -0.4961  0.1954  0.6419
   13HTM    C6311685   1.543   4.462   4.586 -0.7201 -0.4355  1.5000
   13HTM    C6411686   1.458   4.360   4.553 -0.3487 -0.6031  1.0308
   13HTM     S711687   1.547   4.206   4.524  0.3178  0.0277 -0.5435
   14TAL    C6511688   1.514   4.605   4.609  0.6682  0.2292  0.3221
   14TAL    C6611689   1.396   4.649   4.692  0.2561  0.0066  0.2845
   14TAL    C6711690   1.377   4.800   4.700 -0.0506 -0.2747 -0.1212
   14TAL    C6811691   1.281   4.867   4.795 -0.2325 -1.0378  0.7759
   14TAL    C6911692   1.137   4.838   4.805 -0.4527 -1.2108 -0.3752
   14TAL    C7011693   1.043   4.868   4.691 -1.1494 -0.5077  0.2683
   15HTM    C7111694   1.306   4.351   4.536  0.5830 -0.1923  0.2075
   15HTM    C7211695   1.231   4.386   4.428  0.5629 -0.8261  0.0094
   15HTM    C7311696   1.089   4.369   4.449  0.5792 -0.8963  0.0643
   15HTM    C7411697   1.057   4.321   4.572  0.6116 -0.3161  0.3042
   15HTM     S811698   1.204   4.294   4.673  0.6242  0.3695  0.4807
   16TAL    C7511699   0.992   4.429   4.354 -0.4073 -0.7712 -0.2377
   16TAL    C7611700   0.948   4.329   4.248 -0.2813 -0.0685 -1.0930
   16TAL    C7711701   0.872   4.388   4.134 -0.8481 -0.6889 -0.2797
   16TAL    C7811702   0.948   4.477   4.039 -0.4249  0.1362  0.5711
   16TAL    C7911703   0.912   4.481   3.894  0.1080 -0.3449  0.2975
   16TAL    C8011704   0.915   4.340   3.826 -0.0827 -0.0081  0.6022
   17HTM    C8111705   0.924   4.304   4.640 -0.4485 -0.6063 -0.2163
   17HTM    C8211706   0.902   4.249   4.762 -0.2666 -0.8546 -0.2934
   17HTM    C8311707   0.763   4.239   4.797 -0.1998 -0.4151  0.1205
   17HTM    C8411708   0.678   4.286   4.701 -0.3308  0.1685  0.5132
   17HTM     S911709   0.769   4.348   4.558 -0.5503  0.2085  0.3897
   18TAL    C8511710   0.708   4.175   4.923 -0.0951  0.1973 -0.5937
   18TAL    C8611711   0.777   4.210   5.051  0.1365 -0.4361  0.4984
   18TAL    C8711712   0.709   4.146   5.173  0.0917  0.0473 -0.7400
   18TAL    C8811713   0.806   4.050   5.260  0.6139 -0.7020 -0.3704
   18TAL    C8911714   0.937   4.128   5.310 -0.2172 -0.2665 -0.3302
   18TAL    C9011715   0.931   4.239   5.421  0.8701 -0.7545 -0.0063
   19HTM    C9111716   0.536   4.277   4.693 -0.4135  0.6554  0.3776
   19HTM    C9211717   0.449   4.194   4.757 -0.2411  0.5059  0.4183
   19HTM    C9311718   0.311   4.222   4.729 -0.2934 -0.0156  0.1267
   19HTM    C9411719   0.292   4.327   4.644 -0.5057 -0.2636 -0.1361
   19HTM    S1011720   0.449   4.399   4.592 -0.6571  0.1455 -0.0351
   20TAL    C9511721   0.194   4.149   4.806 -0.1099 -0.9140  1.2418
   20TAL    C9611722   0.211   4.072   4.924  0.9009 -0.1108  0.0359
   20TAL    C9711723   0.309   3.952   4.924  0.1959  0.0693 -0.4688
   20TAL    C9811724   0.315   3.904   5.072  0.5170  0.8300 -0.9279
   20TAL    C9911725   0.419   3.789   5.112  0.0491  0.1606 -0.8539
   20TAL   C10011726   0.421   3.653   5.033 -0.6851 -0.6653  0.0598
   21HTM   C10111727   0.177   4.417   4.618  0.4294  0.3701 -0.0456
   21HTM   C10211728   0.183   4.549   4.584  0.3387  0.4840  0.3641
   21HTM   C10311729   0.054   4.605   4.551  0.3233  0.4525  0.3699
   21HTM   C10411730  -0.049   4.516   4.560  0.4024  0.3147 -0.0351
   21HTM    S1111731   0.009   4.353   4.612  0.5028  0.2131 -0.4587
   22TAL   C10511732   0.045   4.745   4.500  0.8707  0.4324  0.6919
   22TAL   C10611733   0.004   4.773   4.352 -0.3278 -0.3127 -0.0480
   22TAL   C10711734  -0.134   4.820   4.348  0.2367 -1.3338 -0.4048
   22TAL   C10811735  -0.200   4.855   4.215 -0.0261  0.5512 -0.4264
   22TAL   C10911736  -0.250   4.729   4.149 -0.1889  0.1102  0.6397
   22TAL   C11011737  -0.380   4.666   4.200  0.0831 -0.1718  1.0002
   23HTM   C11111738  -0.200   4.536   4.559 -0.4531  0.7775 -0.2529
   23HTM   C11211739  -0.265   4.646   4.607 -1.0099  0.4615 -0.2559
   23HTM   C11311740  -0.405   4.626   4.630 -0.9100 -0.2506 -0.2364
   23HTM   C11411741  -0.448   4.500   4.600 -0.2773 -0.4775 -0.2180
   23HTM    S1211742  -0.313   4.397   4.539  0.2459  0.1960 -0.2245
   24TAL   C11511743  -0.479   4.739   4.680  0.7607 -0.7275  0.0312
   24TAL   C11611744  -0.495   4.839   4.563  1.2403 -0.5327  1.2451
   24TAL   C11711745  -0.619   4.802   4.482  0.3517  0.8633  0.5001
   24TAL   C11811746  -0.624   4.883   4.355 -0.0441  0.7036 -0.4238
   24TAL   C11911747  -0.748   4.844   4.261 -0.3344 -0.0472 -0.4086
   24TAL   C12011748  -0.772   4.956   4.162  0.7296 -0.2378 -0.1160
   25HTM   C12111749  -0.578   4.439   4.612 -0.3214 -0.2040 -0.6190
   25HTM   C12211750  -0.615   4.315   4.568 -0.5014 -0.3223 -0.1484
   25HTM   C12311751  -0.756   4.289   4.579 -0.4683 -0.2733  0.4324
   25HTM   C12411752  -0.827   4.393   4.632 -0.2633 -0.1178  0.4049
   25HTM    S1311753  -0.720   4.533   4.671 -0.0942 -0.0202 -0.3632
   26TAL   C12511754  -0.801   4.143   4.545 -0.3638 -1.2267  0.2756
   26TAL   C12611755  -0.861   4.122   4.405 -0.2257 -0.3660  0.0674
   26TAL   C12711756  -0.902   3.976   4.376  0.3519 -0.1791 -0.4753
   26TAL   C12811757  -0.975   3.948   4.246 -0.8068 -0.4640  0.7779
   26TAL   C12911758  -1.098   4.025   4.190  0.0494 -0.0591  0.0644
   26TAL   C13011759  -1.161   3.967   4.062 -0.0161 -1.7056  0.5702
   27HTM   C13111760  -0.977   4.408   4.649 -0.1512  0.2769 -0.5493
   27HTM   C13211761  -1.044   4.493   4.732 -0.2060  0.6648 -0.9845
   27HTM   C13311762  -1.187   4.480   4.724 -0.2105  0.8409 -1.2331
   27HTM   C13411763  -1.229   4.385   4.636 -0.1590  0.5871 -0.9877
   27HTM    S1411764  -1.090   4.304   4.555 -0.1004  0.1023 -0.4190
   28TAL   C13511765  -1.270   4.579   4.814 -0.8099 -0.2419 -0.4042
   28TAL   C13611766  -1.285   4.733   4.779 -1.2248 -0.3871 -0.2791
   28TAL   C13711767  -1.372   4.748   4.660  0.7863  1.5260  0.4801
   28TAL   C13811768  -1.333   4.864   4.565 -0.0964  0.5108  0.2803
   28TAL   C13911769  -1.444   4.890   4.451  0.1776 -0.0893 -0.3082
   28TAL   C14011770  -1.471   4.755   4.371  0.0086 -0.4781  0.1001
   29HTM   C14111771  -1.353   4.320   4.612  0.1230 -0.2246  0.3254
   29HTM   C14211772  -1.374   4.218   4.524 -0.0355  0.1655 -0.0944
   29HTM   C14311773  -1.510   4.171   4.521 -0.1810  0.5909 -0.5193
   29HTM   C14411774  -1.592   4.236   4.608 -0.1338  0.5253 -0.4236
   29HTM    S1511775  -1.504   4.364   4.700  0.1004 -0.0838  0.2156
   30TAL   C14511776  -1.542   4.049   4.436  0.5284  0.3407  0.4400
   30TAL   C14611777  -1.534   4.058   4.288  0.6971 -0.2539  0.5805
   30TAL   C14711778  -1.624   4.173   4.221  0.5179  0.3277  0.5292
   30TAL   C14811779  -1.772   4.132   4.213  0.2163 -0.2184 -0.7869
   30TAL   C14911780  -1.856   4.195   4.117  0.5085 -1.3235  0.9395
   30TAL   C15011781  -1.984   4.122   4.112  1.0572 -0.0813  0.6254
   31HTM   C15111782  -1.732   4.211   4.636  0.3657  0.0154  0.4231
   31HTM   C15211783  -1.800   4.093   4.647  0.4569 -0.0361  0.4474
   31HTM   C15311784  -1.941   4.111   4.673  0.4072 -0.1388  0.2438
   31HTM   C15411785  -1.980   4.241   4.680  0.2779 -0.1659  0.0640
   31HTM    S1611786  -1.840   4.353   4.656  0.2080 -0.0628  0.1387
   32TAL   C15511787  -2.027   3.997   4.713 -0.2177 -0.2800 -0.8142
   32TAL   C15611788  -2.031   3.875   4.623  0.3008 -0.9067 -0.0399
   32TAL   C15711789  -2.025   3.896   4.467  0.9151  0.0888  0.7784
   32TAL   C15811790  -2.024   3.744   4.427  0.8545  0.6846  0.3794
   32TAL   C15911791  -2.064   3.717   4.280  0.0960  0.0826 -0.0370
   32TAL   C16011792  -2.060   3.565   4.266  0.4780  0.6924 -0.7008
   33HTM   C16111793  -2.105   4.301   4.700  0.4342  0.3563 -0.2136
   33HTM   C16211794  -2.125   4.412   4.777  0.4381  0.7012 -0.6961
   33HTM   C16311795  -2.254   4.472   4.758  0.2236  0.2941 -0.5659
   33HTM   C16411796  -2.332   4.408   4.666  0.0565 -0.3610  0.0157
   33HTM    S1711797  -2.248   4.265   4.596  0.1577 -0.5159  0.4474
   34TAL   C16511798  -2.275   4.608   4.820 -0.4180 -1.0805 -0.7471
   34TAL   C16611799  -2.206   4.654   4.945 -0.5604 -0.0032 -0.3836
   34TAL   C16711800  -2.218   4.549   5.065  0.5423 -0.0579 -0.4824
   34TAL   C16811801  -2.192   4.586   5.214 -0.1431 -0.0248  0.0748
   34TAL   C16911802  -2.281   4.695   5.265 -1.3085  0.7912 -0.1258
   34TAL   C17011803  -2.293   4.705   5.418  0.5145  0.3494  0.7532
   35HTM   C17111804  -2.456   4.458   4.598  0.1524 -0.0775  0.3181
   35HTM   C17211805  -2.493   4.462   4.467  0.5425  0.1968  0.2108
   35HTM   C17311806  -2.608   4.545   4.442  0.6677  0.3159  0.0287
   35HTM   C17411807  -2.658   4.605   4.554  0.3732  0.1324 -0.0028
   35HTM    S1811808  -2.563   4.560   4.701 -0.0889 -0.2076  0.1967
   36TAL   C17511809  -2.663   4.543   4.302  0.0083  0.2822  0.4175
   36TAL   C17611810  -2.703   4.666   4.226  0.9385  0.2050  0.3290
   36TAL   C17711811  -2.608   4.785   4.209  0.5236 -0.6249 -0.6365
   36TAL   C17811812  -2.673   4.888   4.109 -0.3529 -0.6445  0.5423
   36TAL   C17911813  -2.811   4.948   4.133 -0.1958 -1.4333 -1.1183
   36TAL   C18011814  -2.863   4.999   3.997 -0.0059  0.3836  0.7952
   37HTM   C18111815  -2.771   4.696   4.571 -0.1639 -0.3794 -0.2252
   37HTM   C18211816  -2.901   4.661   4.546 -0.2067 -0.3422 -0.0612
   37HTM   C18311817  -2.997   4.749   4.607 -0.1026 -0.2300 -0.0563
   37HTM   C18411818  -2.941   4.850   4.680  0.0198 -0.1816 -0.2165
   37HTM    S1911819  -2.761   4.842   4.676  0.0127 -0.2746 -0.3873
   38TAL   C18511820  -3.145   4.729   4.609  0.6585  0.8355  1.2186
   38TAL   C18611821  -3.192   4.629   4.498 -0.9131  0.3373  0.6720
   38TAL   C18711822  -3.341   4.618   4.473 -0.0578  0.2267 -1.7788
   38TAL   C18811823  -3.362   4.466   4.427 -0.9582 -0.0485 -0.6057
   38TAL   C18911824  -3.492   4.401   4.457  0.5528 -0.0445 -0.3950
   38TAL   C19011825  -3.510   4.274   4.377 -0.0906 -0.6086 -0.1561
   39HTM   C19111826  -3.007   4.956   4.744 -0.3663 -0.0462  0.1131
   39HTM   C19211827  -3.100   5.043   4.697 -0.0243  0.2060 -0.1036
   39HTM   C19311828  -3.146   5.138   4.795  0.0174  0.3449 -0.2161
   39HTM   C19411829  -3.088   5.122   4.918 -0.2929  0.1987 -0.0855
   39HTM    S2011830  -2.969   4.986   4.918 -0.6644 -0.1285  0.1923
   40TAL   C19511831  -3.247   5.246   4.771 -0.2098 -0.9532 -0.2007
   40TAL   C19611832  -3.385   5.202   4.809  0.0467 -1.3167 -0.1455
   40TAL   C19711833  -3.492   5.320   4.820  0.2609  0.0781 -0.6319
   40TAL   C19811834  -3.495   5.397   4.952 -0.5744  0.3613  0.1632
   40TAL   C19911835  -3.583   5.516   4.956 -0.2259 -0.0942  0.4591
   40TAL   C20011836  -3.594   5.599   5.073 -0.8760 -0.5883  0.1210
   41HTM   C20111837  -3.101   5.181   5.054  0.7999 -0.0503 -0.0031
   41HTM   C20211838  -3.122   5.109   5.168  0.6856 -0.1779 -0.1040
   41HTM   C20311839  -3.158   5.189   5.282  0.2899 -0.3337 -0.1180
   41HTM   C20411840  -3.165   5.322   5.255  0.1028 -0.3247 -0.0277
   41HTM    S2111841  -3.126   5.357   5.082  0.4139 -0.1176  0.0829
   42TAL   C20511842  -3.170   5.133   5.416 -0.2834 -0.2673 -0.2634
   42TAL   C20611843  -3.295   5.049   5.442  0.3855  0.7898  0.1918
   42TAL   C20711844  -3.264   4.903   5.391  0.0662 -0.7606  0.7172
   42TAL   C20811845  -3.184   4.810   5.486 -0.0283 -0.0616  0.4538
   42TAL   C20911846  -3.166   4.664   5.432 -0.5259  0.4227 -0.0589
   42TAL   C21011847  -3.294   4.610   5.374 -0.3966  0.1434 -0.1462
   43HTM   C21111848  -3.197   5.431   5.340  0.0903  0.1520  0.5671
   43HTM   C21211849  -3.114   5.480   5.437 -0.4539  0.2637  0.9831
   43HTM   C21311850  -3.175   5.580   5.520 -1.0455  0.0907  0.7672
   43HTM   C21411851  -3.304   5.608   5.486 -0.9523 -0.1529  0.1866
   43HTM    S2211852  -3.359   5.509   5.346 -0.1036 -0.1829 -0.1349
   44TAL   C21511853  -3.092   5.640   5.626  0.0489  0.3039  0.2337
   44TAL   C21611854  -2.985   5.559   5.709 -1.3804 -0.5665 -0.4273
   44TAL   C21711855  -2.910   5.642   5.810  0.3779 -1.0109  0.6634
   44TAL   C21811856  -2.777   5.594   5.825 -0.1216  1.0666  0.5121
   44TAL   C21911857  -2.685   5.648   5.937  0.7005 -1.0704  1.0258
   44TAL   C22011858  -2.558   5.575   5.942  0.7083  1.6212 -0.1251
   45HTM   C22111859  -3.390   5.721   5.524 -0.5518  0.3372 -0.2075
   45HTM   C22211860  -3.481   5.779   5.442 -0.4591  0.6889 -0.0658
   45HTM   C22311861  -3.561   5.881   5.506 -0.8150  0.1274  0.3970
   45HTM   C22411862  -3.530   5.899   5.638 -1.1795 -0.6521  0.6081
   45HTM    S2311863  -3.396   5.790   5.690 -1.1004 -0.7386  0.2360
   46TAL   C22511864  -3.659   5.964   5.420 -0.5891  1.0760  0.2316
   46TAL   C22611865  -3.794   5.889   5.391  0.7893  0.4325 -0.2135
   46TAL   C22711866  -3.798   5.854   5.241  0.3634 -0.5722  0.0018
   46TAL   C22811867  -3.929   5.900   5.162  0.6266  0.0400 -0.5771
   46TAL   C22911868  -3.969   6.048   5.163  0.9039  1.0711  0.2094
   46TAL   C23011869  -4.066   6.074   5.039 -0.5789  0.0602 -0.6367
   47HTM   C23111870  -3.580   6.004   5.732 -0.2966 -0.1022  0.2187
   47HTM   C23211871  -3.675   5.985   5.828 -0.1875  0.1202  0.3713
   47HTM   C23311872  -3.717   6.107   5.892 -0.0203  0.2542  0.2283
   47HTM   C23411873  -3.654   6.219   5.844 -0.0018  0.1338 -0.0336
   47HTM    S2411874  -3.536   6.178   5.715 -0.1957 -0.1603 -0.1203
   48TAL   C23511875  -3.830   6.099   6.001  0.6443  0.6584  0.1922
   48TAL   C23611876  -3.879   6.223   6.068 -1.0491  0.6021  0.0188
   48TAL   C23711877  -3.776   6.266   6.171  0.1258 -0.0288  0.2809
   48TAL   C23811878  -3.820   6.399   6.234 -0.4040  1.0565  0.8789
   48TAL   C23911879  -3.702   6.483   6.279 -0.5992  0.3054  0.7938
   48TAL   C24011880  -3.662   6.500   6.419  0.2197  0.1657  0.1627
    1HTM     C111881   7.985   5.798   4.969  0.4829  0.2754 -0.2002
    1HTM     C211882   8.118   5.812   4.946  0.5071 -0.0259 -0.2409
    1HTM     C311883   8.190   5.687   4.945  0.2105 -0.1961 -0.3577
    1HTM     C411884   8.110   5.578   4.967 -0.0399 -0.0246 -0.4058
    1HTM     S111885   7.938   5.625   4.990  0.0803  0.3683 -0.3068
    2TAL     C511886   8.341   5.689   4.923 -0.6748  0.0784  0.8652
    2TAL     C611887   8.427   5.806   4.888 -0.0218 -0.7230  0.5361
    2TAL     C711888   8.412   5.868   4.747 -0.5804 -0.3534 -0.5353
    2TAL     C811889   8.481   5.778   4.652  0.5080  1.5372  0.0540
    2TAL     C911890   8.586   5.834   4.561  0.0708  0.0676 -0.6249
    2TAL    C1011891   8.684   5.737   4.512 -0.7490 -0.1303 -1.3093
    3HTM    C1111892   8.140   5.432   4.978 -0.0854 -0.1431  0.1285
    3HTM    C1211893   8.246   5.362   5.026  0.1028 -0.1886 -0.3428
    3HTM    C1311894   8.238   5.220   5.000  0.2003 -0.1150 -0.7895
    3HTM    C1411895   8.126   5.183   4.932  0.0868 -0.0133 -0.6591
    3HTM     S211896   8.021   5.325   4.895 -0.1543 -0.0027  0.0438
    4TAL    C1511897   8.362   5.133   5.028  0.2818 -0.5216 -0.6140
    4TAL    C1611898   8.493   5.175   4.965 -1.1351  0.3702  0.0541
    4TAL    C1711899   8.599   5.068   4.939 -0.2293  1.3134 -0.2949
    4TAL    C1811900   8.728   5.138   4.947 -0.2845  0.3903  0.5608
    4TAL    C1911901   8.845   5.040   4.898 -0.5089 -0.2324  0.3321
    4TAL    C2011902   8.839   4.993   4.756  0.1250  0.7683 -0.5393
    5HTM    C2111903   8.090   5.045   4.905  0.1973  0.0126 -0.1593
    5HTM    C2211904   8.064   4.988   4.784  0.7882  0.0857 -0.3231
    5HTM    C2311905   8.041   4.846   4.790  0.9844  0.0418 -0.5550
    5HTM    C2411906   8.049   4.795   4.916  0.5437 -0.0645 -0.5681
    5HTM     S311907   8.086   4.923   5.038 -0.1595 -0.1181 -0.2865
    6TAL    C2511908   8.001   4.775   4.666 -0.0393 -0.6583  0.4226
    6TAL    C2611909   7.859   4.786   4.633  0.8362  0.6648  0.6794
    6TAL    C2711910   7.815   4.716   4.505  0.2460  0.4044 -0.2230
    6TAL    C2811911   7.695   4.762   4.419 -0.4494  0.5289 -0.0536
    6TAL    C2911912   7.568   4.695   4.468  0.3272 -0.2089  0.4795
    6TAL    C3011913   7.449   4.791   4.455 -0.5823 -0.3211 -0.0834
    7HTM    C3111914   8.068   4.653   4.952 -0.2814  0.6581 -0.4889
    7HTM    C3211915   8.184   4.590   4.987 -0.0315  1.3314 -0.0587
    7HTM    C3311916   8.165   4.453   5.026  0.5226  1.4606  0.6902
    7HTM    C3411917   8.035   4.412   5.022  0.6954  0.8854  0.8309
    7HTM     S411918   7.925   4.544   4.966  0.1674  0.1307  0.0221
    8TAL    C3511919   8.264   4.357   5.084  0.4109  0.0347 -1.1784
    8TAL    C3611920   8.411   4.368   5.090 -0.8425 -1.1792  0.9395
    8TAL    C3711921   8.473   4.260   5.179  0.7619  0.3985  0.7405
    8TAL    C3811922   8.620   4.259   5.197  0.4471  0.8966  0.4792
    8TAL    C3911923   8.726   4.300   5.092 -0.8968  0.9599  0.3231
    8TAL    C4011924   8.726   4.212   4.965 -0.0223  0.0557 -0.2881
    9HTM    C4111925   7.969   4.284   5.055 -0.4005  0.3993  0.3955
    9HTM    C4211926   7.852   4.258   5.120 -0.4231  0.2429  0.2948
    9HTM    C4311927   7.824   4.118   5.137 -0.4021  0.2016 -0.0033
    9HTM    C4411928   7.920   4.036   5.085 -0.3640  0.3262 -0.1298
    9HTM     S511929   8.054   4.131   5.010 -0.3509  0.5070  0.1193
   10TAL    C4511930   7.704   4.071   5.225  0.2770  0.7057  0.6639
   10TAL    C4611931   7.578   4.019   5.139 -0.3272 -1.1785  0.1554
   10TAL    C4711932   7.497   4.122   5.064 -0.0069 -0.0532  0.7845
   10TAL    C4811933   7.407   4.051   4.971  0.0214  0.7116  0.5031
   10TAL    C4911934   7.280   4.131   4.951  0.0326 -0.2103 -0.3168
   10TAL    C5011935   7.181   4.090   4.839 -0.4708 -0.6388  0.0461
   11HTM    C5111936   7.920   3.893   5.054  0.4791 -0.0487  0.0618
   11HTM    C5211937   7.986   3.840   4.946  1.2926 -0.3239  0.6726
   11HTM    C5311938   7.968   3.698   4.932  1.3707 -0.3551  0.8733
   11HTM    C5411939   7.888   3.643   5.028  0.6167 -0.1036  0.4157
   11HTM     S611940   7.830   3.767   5.145 -0.2572  0.1943 -0.3104
   12TAL    C5511941   7.982   3.617   4.809 -0.0168  0.6347 -0.3485
   12TAL    C5611942   8.074   3.667   4.694  0.2468  0.9144 -0.3843
   12TAL    C5711943   8.210   3.594   4.694  1.4782 -0.1816 -0.8417
   12TAL    C5811944   8.250   3.570   4.549 -0.3391  0.0785  0.5851
   12TAL    C5911945   8.357   3.651   4.486 -0.5497  0.3774 -0.7710
   12TAL    C6011946   8.388   3.637   4.340 -0.7286  0.6765  0.9475
   13HTM    C6111947   7.851   3.506   5.063  0.0330 -0.1390  0.9918
   13HTM    C6211948   7.731   3.450   5.093  0.2282 -0.1927  1.7068
   13HTM    C6311949   7.739   3.314   5.140  0.5426 -0.2834  1.3911
   13HTM    C6411950   7.866   3.266   5.144  0.5873 -0.2990  0.4353
   13HTM     S711951   7.986   3.389   5.090  0.2327 -0.1993 -0.1446
   14TAL    C6511952   7.604   3.243   5.169 -0.6179  0.3623 -0.2820
   14TAL    C6611953   7.527   3.188   5.049 -0.0171 -1.0875 -0.5095
   14TAL    C6711954   7.602   3.112   4.950 -0.4331  0.5639  0.9840
   14TAL    C6811955   7.502   3.067   4.848 -0.2102  0.1010  0.5741
   14TAL    C6911956   7.397   2.963   4.871 -0.0400  0.0582  0.4511
   14TAL    C7011957   7.325   2.922   4.737  0.5630  0.0165  0.0171
   15HTM    C7111958   7.909   3.153   5.208 -0.0485  0.8276 -0.4911
   15HTM    C7211959   7.876   3.095   5.326 -0.7389  1.2083 -0.4851
   15HTM    C7311960   7.954   2.978   5.357 -1.1270  1.1182  0.2002
   15HTM    C7411961   8.047   2.948   5.262 -0.7327  0.6688  0.7162
   15HTM     S811962   8.042   3.065   5.125  0.1665  0.3220  0.3744
   16TAL    C7511963   7.951   2.892   5.489 -0.3550  1.1306 -0.4988
   16TAL    C7611964   7.826   2.901   5.575  0.0426 -1.0017 -0.4796
   16TAL    C7711965   7.702   2.872   5.492  0.8594 -0.4371 -0.4524
   16TAL    C7811966   7.566   2.943   5.518 -0.5113 -0.3218 -0.3058
   16TAL    C7911967   7.477   2.908   5.409  0.1500  0.2768  1.0904
   16TAL    C8011968   7.333   2.912   5.450  0.2209 -0.6351  0.7395
   17HTM    C8111969   8.138   2.833   5.242  0.1763 -0.1139  0.1338
   17HTM    C8211970   8.209   2.753   5.326 -0.0858 -0.5393 -0.0411
   17HTM    C8311971   8.294   2.659   5.259 -0.1678 -0.4644 -0.2520
   17HTM    C8411972   8.288   2.666   5.123  0.0318  0.0180 -0.2375
   17HTM     S911973   8.173   2.795   5.069  0.3415  0.4183  0.0455
   18TAL    C8511974   8.376   2.555   5.343 -0.7171 -0.1821  0.3815
   18TAL    C8611975   8.494   2.618   5.426  0.0711 -0.2359  1.0683
   18TAL    C8711976   8.568   2.533   5.529  0.1163 -0.5694  0.7938
   18TAL    C8811977   8.521   2.551   5.672  0.5380 -0.4424 -0.2977
   18TAL    C8911978   8.383   2.493   5.701  0.4625  0.7364 -0.0452
   18TAL    C9011979   8.362   2.476   5.853 -0.3648 -0.2501 -1.2369
   19HTM    C9111980   8.337   2.586   5.008 -0.0273  0.1060  0.0066
   19HTM    C9211981   8.361   2.452   5.006  0.0677  0.1198  0.2222
   19HTM    C9311982   8.415   2.404   4.881  0.3932  0.0077  0.4015
   19HTM    C9411983   8.431   2.502   4.788  0.5458 -0.0915  0.3227
   19HTM    S1011984   8.379   2.663   4.851  0.2886 -0.0508  0.0135
   20TAL    C9511985   8.426   2.249   4.846 -0.0789 -0.6195 -0.0552
   20TAL    C9611986   8.310   2.153   4.819 -0.0551  0.1648 -1.3650
   20TAL    C9711987   8.182   2.229   4.763 -0.6238 -0.5340 -0.1629
   20TAL    C9811988   8.037   2.188   4.794 -0.6749 -0.5411 -0.8070
   20TAL    C9911989   8.013   2.031   4.806  0.3333 -1.3882  0.0425
   20TAL   C10011990   7.870   1.975   4.835  0.0892 -0.3306  0.6633
   21HTM   C10111991   8.483   2.504   4.651  0.4421 -0.1257 -0.2942
   21HTM   C10211992   8.422   2.568   4.547  0.5670  0.1313 -0.2100
   21HTM   C10311993   8.483   2.542   4.419  0.5064  0.1697 -0.2465
   21HTM   C10411994   8.590   2.457   4.425  0.3352 -0.0579 -0.3587
   21HTM    S1111995   8.623   2.404   4.594  0.2369 -0.3407 -0.4272
   22TAL   C10511996   8.421   2.581   4.284  0.2162  0.1554  0.1455
   22TAL   C10611997   8.341   2.706   4.269  0.0806  0.5332 -0.3235
   22TAL   C10711998   8.292   2.738   4.133  0.4976 -0.5394  0.3161
   22TAL   C10811999   8.397   2.788   4.034 -0.1776 -0.6660  0.1858
   22TAL   C10912000   8.352   2.823   3.896 -0.3920  0.7740 -0.5407
   22TAL   C11012001   8.220   2.897   3.875 -0.3152 -0.6454 -0.3725
   23HTM   C11112002   8.691   2.422   4.340 -0.4423  0.5867 -0.6116
   23HTM   C11212003   8.706   2.321   4.249 -0.5717  0.6532 -0.7073
   23HTM   C11312004   8.819   2.340   4.161 -0.2739  0.3656 -0.3914
   23HTM   C11412005   8.889   2.454   4.185  0.0826  0.0797 -0.0548
   23HTM    S1212006   8.818   2.548   4.321  0.0697  0.1522 -0.1113
   24TAL   C11512007   8.833   2.235   4.055  0.8561  0.4005  0.4460
   24TAL   C11612008   8.902   2.104   4.080  0.0859  0.5770 -0.4606
   24TAL   C11712009   9.057   2.118   4.060  0.3055 -0.4740 -1.1045
   24TAL   C11812010   9.134   2.005   4.135 -0.1453 -0.5257 -0.2322
   24TAL   C11912011   9.158   1.867   4.070 -0.6510  0.5753  0.6396
   24TAL   C12012012   9.272   1.794   4.122 -0.2182  1.1352  0.0302
   25HTM   C12112013   9.007   2.509   4.123  0.2110 -0.2508 -0.0919
   25HTM   C12212014   9.099   2.597   4.173 -0.1576 -0.0206  0.1897
   25HTM   C12312015   9.209   2.622   4.084 -0.1237  0.5261  0.3791
   25HTM   C12412016   9.202   2.553   3.966  0.2701  0.7127  0.2420
   25HTM    S1312017   9.054   2.451   3.959  0.6327  0.2085 -0.1399
   26TAL   C12512018   9.310   2.729   4.121 -0.0646 -0.0823  1.0099
   26TAL   C12612019   9.249   2.859   4.184 -0.0128 -0.0639 -0.9285
   26TAL   C12712020   9.224   2.971   4.102  0.9330 -1.0859 -0.2824
   26TAL   C12812021   9.157   3.078   4.196 -0.1377  0.4100 -1.3199
   26TAL   C12912022   9.060   3.171   4.112 -0.8749  0.1947  0.4960
   26TAL   C13012023   9.119   3.309   4.075 -0.1959 -0.0782 -0.3349
   27HTM   C13112024   9.293   2.524   3.864  0.4285 -0.3428 -0.0789
   27HTM   C13212025   9.349   2.599   3.765  0.2656 -0.4873 -0.2824
   27HTM   C13312026   9.429   2.523   3.673  0.1309 -0.6188 -0.2916
   27HTM   C13412027   9.435   2.390   3.702  0.1915 -0.5746 -0.0952
   27HTM    S1412028   9.338   2.350   3.849  0.4249 -0.3618  0.1184
   28TAL   C13512029   9.511   2.600   3.557  0.3971 -0.5532  1.0254
   28TAL   C13612030   9.432   2.717   3.483 -0.0667  0.7467  0.0937
   28TAL   C13712031   9.373   2.661   3.354 -0.3429 -0.2458  0.2665
   28TAL   C13812032   9.454   2.680   3.228 -0.3861 -0.0370  0.2713
   28TAL   C13912033   9.417   2.599   3.105 -1.3508  0.8355 -0.7653
   28TAL   C14012034   9.528   2.501   3.066 -0.4347 -0.8645 -0.0848
   29HTM   C14112035   9.492   2.276   3.642 -0.0262  0.0474 -0.3068
   29HTM   C14212036   9.550   2.170   3.705 -0.5083 -0.1823 -0.2459
   29HTM   C14312037   9.627   2.085   3.618 -0.6680 -0.4298 -0.1482
   29HTM   C14412038   9.627   2.127   3.488 -0.3077 -0.3888 -0.1344
   29HTM    S1512039   9.531   2.278   3.466  0.2657 -0.0317 -0.2447
   30TAL   C14512040   9.701   1.963   3.674  1.0685 -0.9302  0.8285
   30TAL   C14612041   9.612   1.840   3.724 -0.0148 -0.3253 -0.1623
   30TAL   C14712042   9.643   1.771   3.862 -0.7189  0.1358  0.2601
   30TAL   C14812043   9.556   1.661   3.901  0.2764 -0.9750  1.3942
   30TAL   C14912044   9.574   1.587   4.028 -0.4055  0.1019 -0.1971
   30TAL   C15012045   9.715   1.523   4.046  0.3368 -0.6620  0.7165
   31HTM   C15112046   9.656   2.040   3.373  0.3378 -0.3323  0.1183
   31HTM   C15212047   9.614   2.067   3.246 -0.3676 -0.6928  0.2645
   31HTM   C15312048   9.667   1.976   3.147 -0.6812 -0.7966  0.1915
   31HTM   C15412049   9.748   1.880   3.199 -0.2147 -0.5153 -0.0105
   31HTM    S1612050   9.766   1.897   3.378  0.6633 -0.0942 -0.1250
   32TAL   C15512051   9.643   2.002   2.999 -0.9114  0.5052 -0.0163
   32TAL   C15612052   9.507   1.983   2.944  0.2149  0.1255  0.2495
   32TAL   C15712053   9.395   2.073   2.988 -0.1576 -0.5141  0.0402
   32TAL   C15812054   9.265   2.044   2.916  0.4258 -0.9666 -0.8067
   32TAL   C15912055   9.271   2.004   2.773  0.9086 -0.3201 -0.3712
   32TAL   C16012056   9.282   2.117   2.666  0.3830 -0.9098 -0.9717
   33HTM   C16112057   9.815   1.767   3.130  0.4738  0.2161 -0.1739
   33HTM   C16212058   9.842   1.760   2.997  0.8388  0.5883 -0.1249
   33HTM   C16312059   9.945   1.665   2.963  0.6371  0.3741 -0.1441
   33HTM   C16412060   9.997   1.600   3.071  0.1183 -0.1615 -0.2078
   33HTM    S1712061   9.919   1.653   3.225 -0.1578 -0.4389 -0.2488
   34TAL   C16512062   9.962   1.642   2.817  0.2771 -0.2282  1.0940
   34TAL   C16612063  10.069   1.721   2.738 -0.3903  0.3778 -0.3219
   34TAL   C16712064  10.052   1.876   2.742 -0.9335  0.3819  0.2603
   34TAL   C16812065  10.163   1.961   2.685 -0.0157  0.5443 -0.3241
   34TAL   C16912066  10.306   1.911   2.672 -0.5364 -0.3738 -0.0095
   34TAL   C17012067  10.349   1.846   2.546 -0.4158 -0.1317  0.5333
   35HTM   C17112068  10.098   1.494   3.082  0.0193  0.5009 -0.0515
   35HTM   C17212069  10.154   1.452   3.199 -0.3435  0.5395  0.1363
   35HTM   C17312070  10.255   1.351   3.182 -0.5281  0.2853  0.5105
   35HTM   C17412071  10.278   1.317   3.052 -0.3060  0.0529  0.6081
   35HTM    S1812072  10.171   1.410   2.940  0.1570  0.1378  0.2320
   36TAL   C17512073  10.329   1.296   3.303  0.8378  0.3580 -0.4190
   36TAL   C17612074  10.427   1.400   3.369  0.6190 -0.2529  0.2766
   36TAL   C17712075  10.482   1.360   3.512  1.1713 -0.9723  0.1781
   36TAL   C17812076  10.485   1.222   3.560  0.3418  0.1755 -0.6819
   36TAL   C17912077  10.545   1.116   3.481 -0.0147  1.4015 -0.6513
   36TAL   C18012078  10.538   0.978   3.538 -0.1850  0.1925  0.2666
   37HTM   C18112079  10.392   1.247   2.998 -0.1204  0.1084 -0.7436
   37HTM   C18212080  10.431   1.259   2.868  0.7537  0.0225 -0.5008
   37HTM   C18312081  10.513   1.150   2.822  1.0900  0.0022  0.1226
   37HTM   C18412082  10.537   1.055   2.917  0.4723  0.0726  0.3554
   37HTM    S1912083  10.456   1.096   3.073 -0.5903  0.1707 -0.1992
   38TAL   C18512084  10.542   1.137   2.670  0.2133 -0.2624  0.0006
   38TAL   C18612085  10.424   1.060   2.597 -0.4715  0.4536  0.6257
   38TAL   C18712086  10.423   0.906   2.606  1.6562  0.6348 -0.3206
   38TAL   C18812087  10.329   0.865   2.502  0.2876 -0.2135  0.8421
   38TAL   C18912088  10.341   0.717   2.479 -0.8621  0.7201 -0.8930
   38TAL   C19012089  10.284   0.662   2.347  0.2288 -0.5298  0.0211
   39HTM   C19112090  10.612   0.930   2.896  0.3135 -0.8506  0.0516
   39HTM   C19212091  10.564   0.807   2.930  0.5099 -0.9075  0.1245
   39HTM   C19312092  10.665   0.705   2.936  0.6952 -0.7156  0.3138
   39HTM   C19412093  10.790   0.750   2.906  0.6400 -0.5125  0.3854
   39HTM    S2012094  10.790   0.927   2.868  0.3476 -0.5480  0.2178
   40TAL   C19512095  10.627   0.558   2.954 -0.5793 -1.2267  0.3499
   40TAL   C19612096  10.571   0.511   3.102 -0.1240 -0.8840  0.9039
   40TAL   C19712097  10.474   0.586   3.181  0.4261  0.7455  0.7058
   40TAL   C19812098  10.498   0.610   3.327 -0.0206 -0.5171 -0.6563
   40TAL   C19912099  10.383   0.696   3.377  0.4858  0.2090 -1.1078
   40TAL   C20012100  10.345   0.669   3.524 -0.1443 -0.9072 -0.8500
   41HTM   C20112101  10.925   0.697   2.903  0.0132  0.0307 -0.3517
   41HTM   C20212102  10.967   0.570   2.876  0.2011  0.2344 -1.0595
   41HTM   C20312103  11.108   0.550   2.895  0.2447  0.3526 -1.2504
   41HTM   C20412104  11.174   0.662   2.937  0.0901  0.2389 -0.6880
   41HTM    S2112105  11.061   0.802   2.955 -0.1244 -0.0282  0.1327
   42TAL   C20512106  11.175   0.414   2.884  0.2799 -0.3156 -0.9603
   42TAL   C20612107  11.099   0.286   2.919  0.2969 -0.2084 -1.5943
   42TAL   C20712108  11.079   0.248   3.075  0.0921 -0.6703  0.4638
   42TAL   C20812109  11.213   0.256   3.159  1.3429  0.2012  0.0058
   42TAL   C20912110  11.168   0.254   3.302  0.3016  0.5562 -0.6953
   42TAL   C21012111  11.080   0.367   3.359  0.2209  0.4626 -0.3720
   43HTM   C21112112  11.314   0.704   2.940  0.4005  0.2391  0.1473
   43HTM   C21212113  11.358   0.833   2.944  0.5781  0.1708  0.6540
   43HTM   C21312114  11.501   0.846   2.932  0.6126  0.0120  0.8954
   43HTM   C21412115  11.566   0.727   2.921  0.4614 -0.0409  0.5725
   43HTM    S2212116  11.450   0.588   2.923  0.2621  0.1070 -0.0661
   44TAL   C21512117  11.551   0.984   2.935 -0.8379 -0.0269 -0.7374
   44TAL   C21612118  11.479   1.105   2.892  0.8544 -0.9538 -0.0223
   44TAL   C21712119  11.566   1.230   2.874 -0.7325  0.2304 -0.4836
   44TAL   C21812120  11.668   1.267   2.979 -0.9972  0.5629 -0.1765
   44TAL   C21912121  11.630   1.317   3.117  1.5968  1.1747 -0.9684
   44TAL   C22012122  11.758   1.336   3.208  0.7102  0.4954  0.8168
   45HTM   C22112123  11.699   0.700   2.911 -0.2540  0.5337 -0.0081
   45HTM   C22212124  11.757   0.577   2.905 -0.1879  0.5783 -0.3038
   45HTM   C22312125  11.901   0.580   2.901 -0.1900  0.6647 -0.3049
   45HTM   C22412126  11.953   0.706   2.904 -0.2574  0.6861 -0.0100
   45HTM    S2312127  11.823   0.831   2.913 -0.3243  0.5980  0.2943
   46TAL   C22512128  11.984   0.452   2.899  0.5757  0.3392 -0.1347
   46TAL   C22612129  11.947   0.333   2.804  0.7359 -0.6402 -0.7081
   46TAL   C22712130  12.014   0.355   2.666 -0.4004  0.8022  0.1667
   46TAL   C22812131  11.983   0.226   2.585 -0.3801  0.5737 -0.4079
   46TAL   C22912132  12.034   0.217   2.442  0.3444  0.3714  0.1822
   46TAL   C23012133  11.978   0.098   2.372  0.2135  0.8821  0.1952
   47HTM   C23112134  12.095   0.736   2.926  0.1728 -1.3518 -0.4310
   47HTM   C23212135  12.167   0.754   3.040  0.0192 -1.3460 -0.3337
   47HTM   C23312136  12.309   0.770   3.017 -0.0482 -0.4731 -0.2217
   47HTM   C23412137  12.344   0.764   2.885  0.0539  0.1866 -0.2338
   47HTM    S2412138  12.200   0.737   2.780  0.2447 -0.2469 -0.3886
   48TAL   C23512139  12.412   0.804   3.121 -1.2249  0.9964  0.5772
   48TAL   C23612140  12.467   0.700   3.227  0.3854 -0.2194  0.8490
   48TAL   C23712141  12.419   0.704   3.374  0.8314 -0.4115  0.2214
   48TAL   C23812142  12.510   0.812   3.446  1.4147 -0.5402 -0.1515
   48TAL   C23912143  12.529   0.770   3.589  0.1076  0.0484  0.2995
   48TAL   C24012144  12.619   0.859   3.671  0.5446  0.1112 -0.5891
    1HTM     C112145   5.080   9.160   4.458 -0.0134  0.0467  0.0150
    1HTM     C212146   5.209   9.185   4.495  0.2435 -0.2649 -0.6273
    1HTM     C312147   5.267   9.299   4.430  0.2164 -0.4385 -0.9592
    1HTM     C412148   5.182   9.362   4.342 -0.0614 -0.2593 -0.5697
    1HTM     S112149   5.022   9.280   4.336 -0.3120  0.1457  0.2524
    2TAL     C512150   5.404   9.330   4.455 -1.0783  0.5188  0.4257
    2TAL     C612151   5.508   9.254   4.387 -0.0949 -0.2917  0.9147
    2TAL     C712152   5.532   9.111   4.424  0.0742 -0.1788 -0.0802
    2TAL     C812153   5.670   9.061   4.373 -0.3259 -0.2179 -0.1903
    2TAL     C912154   5.711   8.934   4.437 -0.3642  0.5186  0.0053
    2TAL    C1012155   5.803   8.840   4.355  0.2050  0.4322  0.5507
    3HTM    C1112156   5.203   9.482   4.263 -0.1916  0.4957 -0.0630
    3HTM    C1212157   5.112   9.523   4.171  0.1447  0.5186 -0.3909
    3HTM    C1312158   5.146   9.648   4.108  0.4636  0.4470 -0.3663
    3HTM    C1412159   5.263   9.702   4.152  0.3702  0.3696 -0.0197
    3HTM     S212160   5.340   9.598   4.278 -0.1313  0.3811  0.3051
    4TAL    C1512161   5.040   9.703   4.011  0.3738 -0.2318 -0.9228
    4TAL    C1612162   5.001   9.628   3.892 -0.2143 -0.1244  0.3471
    4TAL    C1712163   5.106   9.598   3.787 -0.0181  0.0934 -0.0976
    4TAL    C1812164   5.154   9.708   3.682  0.7726  0.6278 -1.1759
    4TAL    C1912165   5.033   9.740   3.597 -0.0926  0.2461 -0.3946
    4TAL    C2012166   4.986   9.646   3.492 -0.0230 -0.4172 -0.4614
    5HTM    C2112167   5.342   9.818   4.124 -0.3525 -0.1289 -0.0296
    5HTM    C2212168   5.448   9.869   4.192 -0.4636 -0.1551  0.1644
    5HTM    C2312169   5.481  10.004   4.154 -0.4303 -0.1237  0.3040
    5HTM    C2412170   5.400  10.056   4.057 -0.2939 -0.0737  0.2165
    5HTM     S312171   5.275   9.937   4.005 -0.1962 -0.0621 -0.0512
    6TAL    C2512172   5.585  10.081   4.231  0.3834 -0.4779 -0.9935
    6TAL    C2612173   5.704  10.106   4.145 -0.0069 -0.4533  0.3389
    6TAL    C2712174   5.839  10.093   4.213 -0.8173 -0.2573 -0.7060
    6TAL    C2812175   5.961  10.120   4.120  0.2056  0.5770  0.0359
    6TAL    C2912176   6.057   9.998   4.089  0.0729 -0.7840 -0.4342
    6TAL    C3012177   6.013   9.855   4.095  0.7863  0.0712 -0.9932
    7HTM    C3112178   5.405  10.176   3.994 -0.4562 -0.1190  0.2051
    7HTM    C3212179   5.451  10.207   3.869 -0.5960 -0.4919  0.0609
    7HTM    C3312180   5.436  10.345   3.834 -0.2487 -0.5111 -0.1746
    7HTM    C3412181   5.379  10.421   3.932  0.1560 -0.1529 -0.2098
    7HTM     S412182   5.340  10.322   4.077  0.1295  0.2395  0.0536
    8TAL    C3512183   5.461  10.380   3.688  0.0645 -0.3991  0.6403
    8TAL    C3612184   5.344  10.341   3.593  0.3302 -0.1078 -1.2869
    8TAL    C3712185   5.299  10.189   3.568 -0.6527 -0.0954 -1.2514
    8TAL    C3812186   5.387  10.127   3.461  0.3533 -0.8504  0.0471
    8TAL    C3912187   5.372   9.980   3.443 -0.3310  0.9431 -0.2782
    8TAL    C4012188   5.386   9.921   3.299 -0.3670 -0.1755 -0.8474
    9HTM    C4112189   5.359  10.567   3.944  0.0887 -0.2790 -0.1604
    9HTM    C4212190   5.292  10.639   4.038 -0.2462 -0.4906 -0.2334
    9HTM    C4312191   5.311  10.781   4.026 -0.5804 -0.4373 -0.1329
    9HTM    C4412192   5.392  10.818   3.923 -0.5004 -0.1849  0.0166
    9HTM     S512193   5.452  10.674   3.832  0.0072  0.0063  0.0423
   10TAL    C4512194   5.224  10.881   4.100  0.2011  0.9662  0.3696
   10TAL    C4612195   5.263  10.906   4.249 -0.7422  0.4102 -0.1041
   10TAL    C4712196   5.200  11.021   4.331 -0.0204  0.2618  0.4677
   10TAL    C4812197   5.229  11.149   4.251  0.3802 -0.2556  0.0514
   10TAL    C4912198   5.103  11.254   4.237 -0.7760  0.6399 -0.7716
   10TAL    C5012199   5.124  11.351   4.124 -0.3336  0.0918  0.0939
   11HTM    C5112200   5.410  10.950   3.867  0.3941 -0.5063 -0.1350
   11HTM    C5212201   5.331  11.012   3.775  0.0836 -0.5433  0.1065
   11HTM    C5312202   5.377  11.142   3.736 -0.4331 -0.2545  0.4260
   11HTM    C5412203   5.493  11.180   3.798 -0.5168  0.0027  0.4280
   11HTM     S612204   5.552  11.053   3.912  0.0551 -0.1007  0.0236
   12TAL    C5512205   5.297  11.227   3.636 -0.4866  0.3941  0.4046
   12TAL    C5612206   5.315  11.382   3.602 -0.9718  0.2938 -0.6845
   12TAL    C5712207   5.207  11.472   3.640 -0.0679 -0.1261 -0.5790
   12TAL    C5812208   5.245  11.541   3.763  0.0267  0.2494  0.6929
   12TAL    C5912209   5.135  11.642   3.798  0.5512 -1.0365 -0.5607
   12TAL    C6012210   5.172  11.709   3.936  0.1733 -0.1881 -0.7859
   13HTM    C6112211   5.574  11.294   3.773 -0.4847  0.6774 -0.7912
   13HTM    C6212212   5.575  11.397   3.862 -0.9344  0.9132 -1.0523
   13HTM    C6312213   5.678  11.495   3.837 -0.4841  0.5878 -0.5087
   13HTM    C6412214   5.756  11.465   3.729  0.3090  0.1038  0.1669
   13HTM     S712215   5.705  11.312   3.649  0.5503  0.0210  0.1689
   14TAL    C6512216   5.683  11.588   3.953  0.2092  0.2729 -0.0309
   14TAL    C6612217   5.718  11.739   3.949  0.5218 -0.4552  0.4936
   14TAL    C6712218   5.608  11.833   3.895 -0.4851  0.6795 -0.4735
   14TAL    C6812219   5.500  11.873   3.991 -0.7331 -0.0836  0.2529
   14TAL    C6912220   5.412  11.991   3.947  1.0104 -0.6462  0.1539
   14TAL    C7012221   5.368  12.070   4.073  0.1473 -0.3195  0.5665
   15HTM    C7112222   5.874  11.537   3.664  0.4947 -0.6896 -0.4325
   15HTM    C7212223   5.873  11.615   3.552  0.8879 -1.0928 -0.7240
   15HTM    C7312224   6.002  11.669   3.518  0.9439 -0.9193 -0.2522
   15HTM    C7412225   6.101  11.633   3.603  0.5931 -0.3838  0.3990
   15HTM     S812226   6.039  11.526   3.735  0.1617 -0.0546  0.4675
   16TAL    C7512227   6.022  11.766   3.411 -0.0153  0.0188  0.0790
   16TAL    C7612228   6.049  11.680   3.287  1.0060  0.5822 -0.4064
   16TAL    C7712229   6.037  11.739   3.147 -0.2233  0.2977  0.0566
   16TAL    C7812230   6.108  11.658   3.035  0.3802 -0.4627  0.1540
   16TAL    C7912231   6.029  11.550   2.968 -0.0077 -0.3216  0.2046
   16TAL    C8012232   6.108  11.420   2.927  0.1416 -0.1682 -0.1179
   17HTM    C8112233   6.237  11.676   3.615 -0.0068 -0.3538 -0.3451
   17HTM    C8212234   6.332  11.710   3.523  0.2048 -0.6682 -0.2438
   17HTM    C8312235   6.460  11.741   3.582  0.0782 -0.4935 -0.0566
   17HTM    C8412236   6.462  11.732   3.718 -0.2303 -0.0460 -0.0150
   17HTM     S912237   6.302  11.682   3.783 -0.3858  0.1914 -0.2108
   18TAL    C8512238   6.580  11.804   3.513  0.0413 -0.8010 -0.0860
   18TAL    C8612239   6.560  11.917   3.413  1.3097  0.2951  0.3798
   18TAL    C8712240   6.653  11.951   3.307 -0.3384  0.3969  0.3801
   18TAL    C8812241   6.795  11.987   3.354 -0.9788 -0.3942  0.8946
   18TAL    C8912242   6.810  12.124   3.426 -1.0705  0.9322  0.1966
   18TAL    C9012243   6.813  12.242   3.329  0.1959 -0.0630 -0.1964
   19HTM    C9112244   6.569  11.724   3.814 -0.4594  0.4773  0.5305
   19HTM    C9212245   6.685  11.797   3.814 -0.9054  1.2144  0.6235
   19HTM    C9312246   6.774  11.764   3.922 -0.5264  1.3452  0.3564
   19HTM    C9412247   6.726  11.667   4.005  0.2084  0.7077  0.0599
   19HTM    S1012248   6.563  11.609   3.953  0.4812 -0.1135  0.0951
   20TAL    C9512249   6.923  11.821   3.931  0.8816  0.0963 -0.6967
   20TAL    C9612250   7.000  11.799   3.803  0.6580  1.1134 -0.4151
   20TAL    C9712251   7.143  11.765   3.856  0.4631  0.0826  1.6618
   20TAL    C9812252   7.224  11.743   3.729  0.8450 -0.1293 -0.0636
   20TAL    C9912253   7.371  11.696   3.732 -0.0981 -0.5133  0.7551
   20TAL   C10012254   7.453  11.776   3.834 -0.2114  0.0694 -0.2714
   21HTM   C10112255   6.785  11.600   4.120  0.2763  0.0060  0.2385
   21HTM   C10212256   6.848  11.480   4.128  0.3104  0.0354  0.4154
   21HTM   C10312257   6.886  11.444   4.262  0.0701  0.1140  0.5068
   21HTM   C10412258   6.853  11.536   4.356 -0.1474  0.1445  0.3995
   21HTM    S1112259   6.769  11.678   4.282 -0.0648  0.0758  0.1729
   22TAL   C10512260   6.987  11.328   4.295  0.4048  1.3103  0.5351
   22TAL   C10612261   6.939  11.185   4.267 -0.4738 -1.1345 -0.1001
   22TAL   C10712262   6.837  11.151   4.379 -0.1109  0.0461  0.1382
   22TAL   C10812263   6.766  11.012   4.356  0.7381 -0.1086 -0.1009
   22TAL   C10912264   6.675  11.008   4.241  0.2256 -0.7319  0.7595
   22TAL   C11012265   6.574  10.899   4.248 -0.6220  0.3925  0.3842
   23HTM   C11112266   6.868  11.541   4.500 -0.0475 -0.1092 -0.3423
   23HTM   C11212267   6.776  11.495   4.590 -0.2158 -0.0645 -0.4908
   23HTM   C11312268   6.820  11.502   4.727 -0.5200  0.1189 -0.3992
   23HTM   C11412269   6.946  11.553   4.742 -0.5836  0.2141 -0.1811
   23HTM    S1212270   7.018  11.597   4.583 -0.2617  0.0784 -0.0734
   24TAL   C11512271   6.735  11.491   4.852  0.2759 -0.2664  1.0577
   24TAL   C11612272   6.627  11.382   4.855  1.4528 -1.4645  0.3930
   24TAL   C11712273   6.546  11.407   4.981  0.4267  0.2854 -0.2323
   24TAL   C11812274   6.395  11.371   4.993 -0.3349 -0.8447  0.7126
   24TAL   C11912275   6.312  11.409   4.865  0.2930  0.3885 -0.3988
   24TAL   C12012276   6.201  11.322   4.844  0.1317  1.5726  0.1607
   25HTM   C12112277   7.022  11.599   4.860  0.2883 -0.0864  0.5422
   25HTM   C12212278   7.149  11.557   4.884  0.3129 -0.0410  0.4913
   25HTM   C12312279   7.219  11.637   4.981  0.3546  0.0397  0.3947
   25HTM   C12412280   7.145  11.740   5.030  0.3619  0.0558  0.3719
   25HTM    S1312281   6.980  11.744   4.958  0.3161 -0.0303  0.4715
   26TAL   C12512282   7.365  11.622   5.021  1.0740  0.2395 -0.2702
   26TAL   C12612283   7.447  11.518   4.940  0.4020 -0.4023  0.1424
   26TAL   C12712284   7.580  11.460   4.995 -0.1963  0.3019 -0.7471
   26TAL   C12812285   7.667  11.557   5.076  1.0522 -0.2689  0.8463
   26TAL   C12912286   7.743  11.466   5.178 -0.7883 -1.1651 -0.2860
   26TAL   C13012287   7.842  11.551   5.254 -0.2032  0.1704  0.8253
   27HTM   C13112288   7.177  11.859   5.115 -0.0814 -0.5518  0.3925
   27HTM   C13212289   7.272  11.952   5.083  0.0192 -0.7476  0.1112
   27HTM   C13312290   7.263  12.073   5.161  0.1677 -0.5133 -0.2326
   27HTM   C13412291   7.161  12.072   5.251  0.1802 -0.1389 -0.2135
   27HTM    S1412292   7.068  11.918   5.246  0.0041 -0.0526  0.2438
   28TAL   C13512293   7.369  12.189   5.171  0.6214 -0.0064  0.0689
   28TAL   C13612294   7.395  12.283   5.043  0.5543  0.4664  0.6977
   28TAL   C13712295   7.298  12.377   4.962 -0.1296 -0.0389 -0.8767
   28TAL   C13812296   7.185  12.304   4.901  0.3786  0.4226  0.1213
   28TAL   C13912297   7.205  12.192   4.799  0.2232 -0.6515  0.3421
   28TAL   C14012298   7.097  12.088   4.779  0.5773  0.0168 -0.6533
   29HTM   C14112299   7.096  12.165   5.347  0.6669 -0.3838  0.2325
   29HTM   C14212300   7.027  12.129   5.459  0.4116 -0.3155  0.0968
   29HTM   C14312301   6.988  12.241   5.541 -0.4014 -0.1986 -0.4182
   29HTM   C14412302   7.029  12.362   5.492 -0.7657 -0.1778 -0.6749
   29HTM    S1512303   7.119  12.344   5.337 -0.1055 -0.3051 -0.2835
   30TAL   C14512304   6.916  12.223   5.669  0.8085 -0.2704  0.1142
   30TAL   C14612305   6.930  12.088   5.746  0.3858 -0.6478 -1.5245
   30TAL   C14712306   6.892  12.105   5.893 -0.1245 -0.1623 -0.7866
   30TAL   C14812307   6.977  12.020   5.986  0.4217 -0.1506  0.0363
   30TAL   C14912308   6.917  12.021   6.134 -0.5003  0.1418 -0.2257
   30TAL   C15012309   6.778  11.971   6.167 -0.7662 -0.0902  0.1304
   31HTM   C15112310   7.020  12.501   5.553  0.2346  0.2823  0.2263
   31HTM   C15212311   6.938  12.601   5.510  0.4133  0.2638 -0.1687
   31HTM   C15312312   6.938  12.717   5.595  0.3145  0.4411 -0.4075
   31HTM   C15412313   7.020  12.705   5.703  0.0603  0.5946 -0.1947
   31HTM    S1612314   7.105  12.546   5.705 -0.0746  0.5269  0.3280
   32TAL   C15512315   6.840  12.825   5.554  0.8872 -0.9766 -0.1300
   32TAL   C15612316   6.723  12.827   5.658 -0.4245  0.7640  0.2922
   32TAL   C15712317   6.586  12.781   5.612 -0.8877  0.5107  0.1625
   32TAL   C15812318   6.505  12.858   5.517 -0.7192  1.8082 -0.0563
   32TAL   C15912319   6.434  12.980   5.585 -1.2720 -0.3428 -0.9040
   32TAL   C16012320   6.407  13.100   5.487  0.3840  0.6519 -0.0604
   33HTM   C16112321   7.065  12.814   5.787  0.0353 -0.1890  0.4789
   33HTM   C16212322   6.999  12.894   5.876 -0.1190 -0.1519  0.3330
   33HTM   C16312323   7.086  12.983   5.949 -0.2878  0.1357  0.1860
   33HTM   C16412324   7.218  12.971   5.915 -0.2621  0.3176  0.2200
   33HTM    S1712325   7.243  12.845   5.788 -0.0210  0.1387  0.4417
   34TAL   C16512326   7.019  13.077   6.049  0.6098  0.6594  0.3483
   34TAL   C16612327   7.097  13.134   6.165 -0.0542 -0.2839 -0.4351
   34TAL   C16712328   7.095  13.038   6.287  0.1376 -0.1326 -0.5051
   34TAL   C16812329   6.954  13.031   6.358  0.6254 -0.0374  0.1530
   34TAL   C16912330   6.949  12.949   6.491 -1.4901 -0.2618 -0.1563
   34TAL   C17012331   6.977  12.803   6.481 -0.3478  0.7040  0.4889
   35HTM   C17112332   7.344  13.045   5.950  0.3349 -0.0866  0.2246
   35HTM   C17212333   7.457  12.991   6.005  0.3061  0.2519  0.6312
   35HTM   C17312334   7.557  13.088   6.040  0.1081  0.5113  0.4865
   35HTM   C17412335   7.521  13.216   6.013 -0.0141  0.3708 -0.0302
   35HTM    S1812336   7.356  13.225   5.939  0.1125 -0.1038 -0.3771
   36TAL   C17512337   7.685  13.053   6.095 -0.6963  0.6811  0.3090
   36TAL   C17612338   7.682  13.003   6.239  0.5368 -0.4604  0.2713
   36TAL   C17712339   7.821  12.982   6.292 -0.9161 -1.2307 -0.8450
   36TAL   C17812340   7.831  12.934   6.438 -0.2493 -0.1045  0.4873
   36TAL   C17912341   7.803  13.046   6.531  0.1421 -0.4800 -1.5010
   36TAL   C18012342   7.776  12.999   6.668 -0.1303  0.8856 -0.0265
   37HTM   C18112343   7.584  13.351   6.051  0.2860  0.4366 -1.1265
   37HTM   C18212344   7.520  13.471   6.058  0.7470  0.7753 -2.2179
   37HTM   C18312345   7.606  13.581   6.092  0.9379  0.5034 -1.8072
   37HTM   C18412346   7.736  13.545   6.110  0.6224 -0.0427 -0.4024
   37HTM    S1912347   7.760  13.368   6.086  0.0552 -0.2575  0.5177
   38TAL   C18512348   7.548  13.716   6.123 -0.2237 -0.0508  0.3373
   38TAL   C18612349   7.504  13.781   5.988 -0.2283  0.2353 -0.4358
   38TAL   C18712350   7.406  13.894   6.012  0.3330  0.3082 -0.8036
   38TAL   C18812351   7.348  13.944   5.885  0.5622 -0.3412  0.3307
   38TAL   C18912352   7.252  14.054   5.908  0.1592 -1.0782 -0.0907
   38TAL   C19012353   7.305  14.196   5.866 -0.8003  0.9658 -0.1470
   39HTM   C19112354   7.842  13.641   6.140  0.3630 -0.1882 -0.1523
   39HTM   C19212355   7.956  13.608   6.206  0.3779  0.2065  0.0226
   39HTM   C19312356   8.055  13.713   6.207  0.0868  0.4854  0.0241
   39HTM   C19412357   8.017  13.825   6.140 -0.1504  0.3035 -0.1500
   39HTM    S2012358   7.851  13.808   6.072 -0.0233 -0.2384 -0.3306
   40TAL   C19512359   8.203  13.691   6.242 -0.1316 -0.1725  0.4556
   40TAL   C19612360   8.269  13.720   6.379  0.1962 -1.0156 -0.8985
   40TAL   C19712361   8.203  13.637   6.488 -0.2038 -1.7233  0.3987
   40TAL   C19812362   8.127  13.698   6.594  0.9606 -0.1063 -0.1192
   40TAL   C19912363   8.203  13.800   6.682  0.5533 -0.7136  0.2244
   40TAL   C20012364   8.319  13.781   6.777 -0.2392 -0.0613  0.4193
   41HTM   C20112365   8.077  13.952   6.110 -0.1611  0.4907 -0.1627
   41HTM   C20212366   8.013  14.072   6.109  0.2041  0.6903 -0.3968
   41HTM   C20312367   8.101  14.185   6.103  0.5572  0.4129 -0.4998
   41HTM   C20412368   8.233  14.151   6.098  0.4610  0.0022 -0.3442
   41HTM    S2112369   8.256  13.973   6.101 -0.0866 -0.0673 -0.0534
   42TAL   C20512370   8.026  14.319   6.070 -0.5199  0.7117 -0.5616
   42TAL   C20612371   7.871  14.323   6.060  0.5549  0.3048 -0.1878
   42TAL   C20712372   7.804  14.355   6.186  0.1026 -0.2784  0.1593
   42TAL   C20812373   7.654  14.332   6.186  0.1146  0.1773 -0.5123
   42TAL   C20912374   7.586  14.386   6.319  0.2226 -0.4647 -0.2642
   42TAL   C21012375   7.609  14.541   6.335  0.5665  0.2650 -0.7632
   43HTM   C21112376   8.341  14.248   6.100  0.0528 -0.2287  0.3205
   43HTM   C21212377   8.339  14.382   6.073  0.1056 -0.3922 -0.5496
   43HTM   C21312378   8.468  14.445   6.084  0.1926 -0.4166 -1.2790
   43HTM   C21412379   8.568  14.360   6.120  0.2055 -0.2718 -0.9653
   43HTM    S2212380   8.507  14.192   6.142  0.1088 -0.0920  0.2858
   44TAL   C21512381   8.499  14.590   6.053  0.7071  0.0997  0.0806
   44TAL   C21612382   8.456  14.657   5.921  0.5642 -0.1240  0.1605
   44TAL   C21712383   8.473  14.809   5.929  0.0061 -0.2038 -1.0367
   44TAL   C21812384   8.366  14.891   6.016  0.7452  0.0317  0.6430
   44TAL   C21912385   8.408  15.033   6.049  0.8988  0.4952  0.4846
   44TAL   C22012386   8.420  15.137   5.935 -0.0215  0.7761 -0.3581
   45HTM   C22112387   8.711  14.384   6.149 -0.1216  0.1391  0.2840
   45HTM   C22212388   8.816  14.304   6.116 -0.2227  0.0138  0.2615
   45HTM   C22312389   8.940  14.342   6.179 -0.1318 -0.0399  0.1168
   45HTM   C22412390   8.929  14.451   6.261  0.0388  0.0446  0.0286
   45HTM    S2312391   8.760  14.514   6.264  0.0981  0.1997  0.1226
   46TAL   C22512392   9.076  14.274   6.148  0.1874 -0.7094  0.2936
   46TAL   C22612393   9.067  14.165   6.042 -0.1783  0.2332 -0.5128
   46TAL   C22712394   9.204  14.099   6.030 -1.5256  0.2282  0.0112
   46TAL   C22812395   9.299  14.177   5.934 -0.1468 -0.5873  0.3259
   46TAL   C22912396   9.426  14.117   5.871  0.6716  0.3569  0.4815
   46TAL   C23012397   9.398  14.007   5.771  0.2579  0.1747  0.2385
   47HTM   C23112398   9.020  14.522   6.335 -0.3979  0.0100 -0.8216
   47HTM   C23212399   9.043  14.518   6.469 -1.1761 -0.0743 -0.6832
   47HTM   C23312400   9.162  14.589   6.510 -1.2970 -0.2644  0.0266
   47HTM   C23412401   9.229  14.647   6.407 -0.6115 -0.3251  0.4296
   47HTM    S2412402   9.148  14.616   6.249  0.2470 -0.1454 -0.0602
   48TAL   C23512403   9.206  14.577   6.657 -0.3163  0.0574  0.0717
   48TAL   C23612404   9.359  14.602   6.690  0.2555 -0.7049  1.1004
   48TAL   C23712405   9.389  14.621   6.839  1.4606 -0.1996  0.5814
   48TAL   C23812406   9.336  14.758   6.905 -1.4354  1.0600 -0.2784
   48TAL   C23912407   9.411  14.793   7.037  0.2885 -0.5243  0.2519
   48TAL   C24012408   9.562  14.814   7.032  0.6784  1.0969 -0.0180
    1HTM     C112409   7.581   5.640   5.051  1.0847 -0.6151 -1.1117
    1HTM     C212410   7.606   5.682   5.178  1.4305 -1.5351 -0.8649
    1HTM     C312411   7.635   5.822   5.189  0.8360 -1.4677  0.1465
    1HTM     C412412   7.632   5.888   5.069  0.0370 -0.4964  0.6706
    1HTM     S112413   7.592   5.777   4.933 -0.0270  0.4156 -0.0780
    2TAL     C512414   7.683   5.882   5.321 -0.5463 -0.9218 -0.0011
    2TAL     C612415   7.575   5.966   5.390 -0.7801 -0.2682 -0.3719
    2TAL     C712416   7.646   6.050   5.492  0.4747 -0.7618  0.6328
    2TAL     C812417   7.716   6.178   5.445  0.9925 -1.1675  0.4747
    2TAL     C912418   7.635   6.301   5.387 -0.6227  0.1335 -0.2653
    2TAL    C1012419   7.733   6.395   5.319 -0.4850  0.2039 -0.6885
    3HTM    C1112420   7.642   6.032   5.028  0.6265 -0.0033 -0.7467
    3HTM    C1212421   7.549   6.129   5.003  0.4960 -0.0871 -0.5888
    3HTM    C1312422   7.606   6.252   4.954  0.3546  0.1519 -0.1670
    3HTM    C1412423   7.741   6.249   4.941  0.3775  0.4180 -0.0035
    3HTM     S212424   7.809   6.090   4.991  0.5807  0.3873 -0.3721
    4TAL    C1512425   7.528   6.380   4.926 -0.0030 -0.1757  0.0286
    4TAL    C1612426   7.377   6.369   4.904  0.2248 -1.0949  0.4230
    4TAL    C1712427   7.303   6.498   4.853  0.1979  0.1438  0.5600
    4TAL    C1812428   7.345   6.542   4.714  0.0599 -0.0879 -0.4991
    4TAL    C1912429   7.277   6.480   4.598  0.5187  0.2433  0.5103
    4TAL    C2012430   7.133   6.520   4.572  1.3487 -0.7995  0.9127
    5HTM    C2112431   7.838   6.352   4.904 -0.1841  0.0105  0.4306
    5HTM    C2212432   7.890   6.387   4.784 -0.4548 -0.3065  0.2159
    5HTM    C2312433   8.002   6.477   4.793 -0.3841 -0.3361 -0.2704
    5HTM    C2412434   8.035   6.511   4.922 -0.0596 -0.0419 -0.4266
    5HTM     S312435   7.926   6.430   5.041  0.1840  0.2983  0.0323
    6TAL    C2512436   8.085   6.519   4.671 -0.7649 -0.0340 -0.4218
    6TAL    C2612437   8.135   6.406   4.586 -0.4589 -0.0418  0.0929
    6TAL    C2712438   8.227   6.298   4.645 -0.2175  0.0978 -0.1120
    6TAL    C2812439   8.293   6.180   4.561  0.7071 -0.0983 -0.9532
    6TAL    C2912440   8.207   6.101   4.452 -0.5043  0.0903 -0.4283
    6TAL    C3012441   8.090   6.032   4.520  0.7907  0.3287 -0.2780
    7HTM    C3112442   8.148   6.600   4.961  0.2634 -0.4582  0.1236
    7HTM    C3212443   8.242   6.669   4.890 -0.0544 -0.1822 -0.0303
    7HTM    C3312444   8.335   6.741   4.973 -0.2081  0.1984 -0.1855
    7HTM    C3412445   8.312   6.727   5.107 -0.0076  0.2124 -0.1498
    7HTM     S412446   8.171   6.620   5.139  0.3939 -0.2575  0.0844
    8TAL    C3512447   8.446   6.820   4.905  0.2317  1.5402  0.3390
    8TAL    C3612448   8.551   6.722   4.845 -0.1706 -0.1108  0.1339
    8TAL    C3712449   8.606   6.760   4.704 -0.0292 -0.3615  0.1130
    8TAL    C3812450   8.678   6.634   4.645  0.7565  0.1896  0.3421
    8TAL    C3912451   8.599   6.498   4.607 -0.0368  0.4639 -0.0338
    8TAL    C4012452   8.684   6.390   4.572  0.6529  1.3114  0.0919
    9HTM    C4112453   8.404   6.754   5.221 -0.2972 -0.2145 -0.0000
    9HTM    C4212454   8.446   6.875   5.267  0.2990 -0.3062 -0.2813
    9HTM    C4312455   8.540   6.867   5.375  0.6785 -0.5145 -0.6207
    9HTM    C4412456   8.570   6.739   5.412  0.3722 -0.5816 -0.5980
    9HTM     S512457   8.481   6.619   5.312 -0.4262 -0.3854 -0.1429
   10TAL    C4512458   8.596   6.986   5.451  0.0718  0.0473  0.3499
   10TAL    C4612459   8.588   7.129   5.385 -1.0597  0.3111 -1.1695
   10TAL    C4712460   8.648   7.245   5.454 -0.6075  0.2418 -0.1097
   10TAL    C4812461   8.690   7.353   5.367 -0.9027 -0.9953  0.6974
   10TAL    C4912462   8.714   7.488   5.448  0.6112  0.9545 -1.1597
   10TAL    C5012463   8.742   7.607   5.363 -0.3661 -0.0354  0.8892
   11HTM    C5112464   8.664   6.684   5.499 -0.0638  0.4072  0.2971
   11HTM    C5212465   8.755   6.586   5.474 -0.1521  0.3985 -0.0002
   11HTM    C5312466   8.861   6.579   5.572  0.1035  0.3144 -0.2799
   11HTM    C5412467   8.850   6.672   5.671  0.3866  0.2587 -0.1960
   11HTM     S612468   8.705   6.776   5.649  0.3523  0.3089  0.2464
   12TAL    C5512469   8.962   6.471   5.560  0.1407  0.0395  0.7700
   12TAL    C5612470   9.075   6.520   5.471 -0.5916 -0.3238  0.1279
   12TAL    C5712471   9.054   6.524   5.316  0.8480  0.7507 -0.3373
   12TAL    C5812472   9.150   6.610   5.251 -1.0353 -2.1133  0.1139
   12TAL    C5912473   9.303   6.603   5.253 -0.5557 -0.0902  0.4716
   12TAL    C6012474   9.363   6.716   5.333 -0.0896  0.0279  0.0325
   13HTM    C6112475   8.948   6.704   5.781  0.1509  0.2359  0.8859
   13HTM    C6212476   8.969   6.636   5.897  1.0786 -0.2867  0.4307
   13HTM    C6312477   9.081   6.684   5.974  1.8482 -0.7902 -0.3402
   13HTM    C6412478   9.146   6.789   5.916  1.5073 -0.6516 -0.4725
   13HTM     S712479   9.069   6.836   5.760  0.1770  0.1321  0.3726
   14TAL    C6512480   9.112   6.619   6.103 -0.1832  0.5589 -0.3128
   14TAL    C6612481   9.139   6.468   6.097  0.5102 -0.0957  0.2847
   14TAL    C6712482   9.144   6.383   6.233 -0.8190  0.3495  0.0664
   14TAL    C6812483   9.213   6.245   6.216  0.1583 -0.0154 -0.1489
   14TAL    C6912484   9.235   6.138   6.336  0.7161 -0.7027  1.0450
   14TAL    C7012485   9.128   6.126   6.446 -0.1854  0.2771 -0.3920
   15HTM    C7112486   9.258   6.871   5.954  0.0280  0.7824 -0.1524
   15HTM    C7212487   9.337   6.942   5.867  0.6227  0.4513  0.1079
   15HTM    C7312488   9.468   6.969   5.918  0.6168 -0.2071  0.5062
   15HTM    C7412489   9.490   6.921   6.044  0.0176 -0.3782  0.5496
   15HTM     S812490   9.345   6.835   6.108 -0.5900  0.2842  0.0871
   16TAL    C7512491   9.570   7.052   5.846  0.3541  1.1364 -0.4249
   16TAL    C7612492   9.687   6.970   5.785 -0.0911  1.0601  0.4133
   16TAL    C7712493   9.639   6.892   5.661 -0.2428  0.2527  0.2217
   16TAL    C7812494   9.761   6.816   5.605 -0.1101  0.3081 -0.7071
   16TAL    C7912495   9.749   6.724   5.480 -0.0407  0.2156 -0.7547
   16TAL    C8012496   9.749   6.798   5.350 -0.0611 -0.3566  0.1042
   17HTM    C8112497   9.612   6.904   6.108  0.6965  0.3987 -0.2418
   17HTM    C8212498   9.716   6.991   6.125  0.6862  0.2863  0.4419
   17HTM    C8312499   9.830   6.933   6.191  0.2530  0.1202  1.0657
   17HTM    C8412500   9.814   6.801   6.224 -0.0671  0.1058  0.8577
   17HTM     S912501   9.651   6.740   6.174  0.1554  0.3026 -0.1501
   18TAL    C8512502   9.951   7.020   6.218  0.1473  0.4957 -0.4608
   18TAL    C8612503   9.929   7.125   6.320  0.3778  0.0118 -0.7213
   18TAL    C8712504   9.802   7.204   6.325 -0.2493 -0.5461  0.0222
   18TAL    C8812505   9.778   7.302   6.443  0.1304  0.7841  0.8631
   18TAL    C8912506   9.635   7.364   6.431 -0.8872 -0.3173 -0.5626
   18TAL    C9012507   9.528   7.331   6.321  0.4867  0.5207  0.8952
   19HTM    C9112508   9.905   6.706   6.297  0.1514  0.1973 -0.0137
   19HTM    C9212509   9.882   6.660   6.423  0.0881  0.3248  0.0215
   19HTM    C9312510   9.972   6.555   6.464 -0.2540  0.0176 -0.0131
   19HTM    C9412511  10.063   6.520   6.368 -0.4515 -0.3442 -0.0748
   19HTM    S1012512  10.043   6.619   6.219 -0.2189 -0.3247 -0.0938
   20TAL    C9512513   9.958   6.494   6.602  0.5919 -1.0879  0.3636
   20TAL    C9612514  10.053   6.561   6.703  0.3365 -1.1166 -0.0480
   20TAL    C9712515  10.065   6.502   6.843 -0.2098  0.3918  0.9174
   20TAL    C9812516  10.077   6.354   6.835  0.2644  0.5773  0.9621
   20TAL    C9912517  10.159   6.300   6.953  1.1403  0.2984 -0.2087
   20TAL   C10012518  10.129   6.148   6.970  0.4205 -0.8862  0.2635
   21HTM   C10112519  10.188   6.437   6.365  0.0280  0.1221  0.4031
   21HTM   C10212520  10.262   6.382   6.466  0.3247  0.4348  0.3605
   21HTM   C10312521  10.377   6.309   6.420  0.3240  0.4948  0.2623
   21HTM   C10412522  10.391   6.309   6.284  0.0267  0.2282  0.2300
   21HTM    S1112523  10.259   6.401   6.204 -0.2777 -0.1222  0.3220
   22TAL   C10512524  10.473   6.253   6.520 -0.1323  0.1385 -0.6694
   22TAL   C10612525  10.506   6.351   6.627 -0.0528 -0.8470  0.0220
   22TAL   C10712526  10.625   6.319   6.708 -1.5979 -0.0154 -0.2528
   22TAL   C10812527  10.677   6.421   6.815  0.1184 -0.4282 -0.2861
   22TAL   C10912528  10.764   6.360   6.919 -0.1726  0.7880 -0.0003
   22TAL   C11012529  10.766   6.429   7.054  0.3147  0.1277 -0.2299
   23HTM   C11112530  10.478   6.247   6.188 -0.0414  0.4641 -0.1839
   23HTM   C11212531  10.447   6.227   6.056  0.0675  0.6775 -0.2437
   23HTM   C11312532  10.545   6.148   5.985 -0.1521  0.3141 -0.1469
   23HTM   C11412533  10.650   6.108   6.062 -0.4285 -0.1761 -0.0131
   23HTM    S1212534  10.634   6.168   6.232 -0.4328 -0.2174  0.0009
   24TAL   C11512535  10.526   6.123   5.833  0.2543 -0.6425  0.3806
   24TAL   C11612536  10.468   6.213   5.722  0.4538  0.4690 -1.3500
   24TAL   C11712537  10.311   6.235   5.722  0.6922 -0.1781  0.7833
   24TAL   C11812538  10.288   6.361   5.629  1.0888 -0.2588  1.1754
   24TAL   C11912539  10.318   6.360   5.474  0.0216  0.0641  0.0634
   24TAL   C12012540  10.343   6.500   5.411  0.4817  0.3684  0.7930
   25HTM   C12112541  10.759   6.020   6.037 -0.1225 -0.0311 -0.2254
   25HTM   C12212542  10.894   6.037   6.043 -0.0754 -0.1758 -0.8209
   25HTM   C12312543  10.969   5.918   6.015 -0.3271 -0.2867 -1.0295
   25HTM   C12412544  10.891   5.809   5.988 -0.5661 -0.2262 -0.5933
   25HTM    S1312545  10.716   5.850   5.996 -0.4912 -0.0231  0.1204
   26TAL   C12512546  11.112   5.944   5.977  0.5510  0.4565 -0.4008
   26TAL   C12612547  11.211   5.928   6.095  0.0099 -0.6361 -0.7057
   26TAL   C12712548  11.179   5.835   6.214 -0.0703  0.1470  0.3521
   26TAL   C12812549  11.292   5.780   6.298  0.3697  0.4778 -0.0585
   26TAL   C12912550  11.381   5.670   6.241  0.1511 -0.6533 -0.6257
   26TAL   C13012551  11.411   5.568   6.355 -0.8280  0.2386  0.3283
   27HTM   C13112552  10.929   5.668   5.968  0.1519 -0.2583  0.0053
   27HTM   C13212553  10.895   5.578   5.871  0.3516  0.0031 -0.3128
   27HTM   C13312554  10.951   5.447   5.893  0.2622 -0.0707 -0.5260
   27HTM   C13412555  11.026   5.437   6.006 -0.0057 -0.3884 -0.3703
   27HTM    S1412556  11.034   5.594   6.095 -0.1671 -0.6207  0.0608
   28TAL   C13512557  10.965   5.333   5.790 -0.4426  0.0844 -0.4286
   28TAL   C13612558  10.908   5.348   5.654  0.3210 -0.8851 -0.3211
   28TAL   C13712559  10.756   5.300   5.642 -0.2589  1.8001 -0.5149
   28TAL   C13812560  10.735   5.154   5.673  0.6581  0.1123  0.6610
   28TAL   C13912561  10.608   5.094   5.612 -0.6497  0.1043 -0.1511
   28TAL   C14012562  10.472   5.137   5.658  0.2712 -1.2801  0.0880
   29HTM   C14112563  11.080   5.319   6.073  0.0037  0.4942 -0.1928
   29HTM   C14212564  11.032   5.196   6.106 -0.2266  0.6267 -0.0284
   29HTM   C14312565  11.131   5.110   6.166 -0.3855  0.5213  0.0813
   29HTM   C14412566  11.254   5.167   6.179 -0.2764  0.3084  0.0005
   29HTM    S1512567  11.255   5.336   6.115  0.0380  0.2239 -0.2221
   30TAL   C14512568  11.100   4.968   6.222  1.0461 -0.4338 -0.1339
   30TAL   C14612569  10.959   4.902   6.207  0.3488 -0.8865  0.2553
   30TAL   C14712570  10.915   4.785   6.288  0.4071 -0.2685 -0.7842
   30TAL   C14812571  10.874   4.808   6.434  0.3956 -0.7791 -0.7108
   30TAL   C14912572  10.751   4.893   6.468  0.1982  0.5279  0.0425
   30TAL   C15012573  10.766   4.927   6.629  0.4090  0.7979  0.4956
   31HTM   C15112574  11.382   5.121   6.232 -0.0263 -0.2891 -0.8740
   31HTM   C15212575  11.409   5.005   6.300 -0.0803 -0.0482 -0.4312
   31HTM   C15312576  11.550   4.981   6.319 -0.1117  0.3920  0.4365
   31HTM   C15412577  11.630   5.079   6.267 -0.0816  0.4864  0.6555
   31HTM    S1612578  11.533   5.209   6.188 -0.0107  0.0235 -0.2242
   32TAL   C15512579  11.589   4.860   6.406  0.4410  0.1804 -0.2946
   32TAL   C15612580  11.579   4.901   6.559  0.0050 -0.2062  0.5748
   32TAL   C15712581  11.673   4.807   6.636  0.1611  0.8178  0.3720
   32TAL   C15812582  11.710   4.835   6.781 -0.6511  0.1155  0.7564
   32TAL   C15912583  11.598   4.789   6.866 -0.0216 -0.4582  0.5469
   32TAL   C16012584  11.585   4.882   6.978  1.4458 -0.3151  0.1510
   33HTM   C16112585  11.777   5.105   6.272 -0.0754 -0.2675 -0.4525
   33HTM   C16212586  11.838   5.222   6.237  0.0200 -0.2497 -0.2314
   33HTM   C16312587  11.981   5.219   6.251 -0.0178 -0.2500  0.1709
   33HTM   C16412588  12.029   5.100   6.297 -0.1419 -0.2675  0.2566
   33HTM    S1712589  11.897   4.981   6.326 -0.2214 -0.2857 -0.1676
   34TAL   C16512590  12.047   5.350   6.210  0.1560 -0.5917  0.5940
   34TAL   C16612591  12.161   5.363   6.116  0.4865  0.0962  0.3207
   34TAL   C16712592  12.119   5.339   5.975 -0.4633 -0.2401 -0.0196
   34TAL   C16812593  12.245   5.351   5.891  0.3720  0.4665  0.1099
   34TAL   C16912594  12.247   5.282   5.748  0.6646 -0.8056 -1.0964
   34TAL   C17012595  12.166   5.353   5.634  0.4555  0.2733 -0.3611
   35HTM   C17112596  12.170   5.050   6.338  0.1219 -0.0213  0.4039
   35HTM   C17212597  12.294   5.099   6.309  0.0839 -0.2414 -0.1576
   35HTM   C17312598  12.401   5.023   6.368  0.2256 -0.4703 -0.6980
   35HTM   C17412599  12.359   4.916   6.442  0.3716 -0.4251 -0.5485
   35HTM    S1812600  12.180   4.903   6.443  0.3413 -0.0870  0.2929
   36TAL   C17512601  12.556   5.046   6.359  0.9900  0.0007  0.2560
   36TAL   C17612602  12.606   5.167   6.286  0.4501  0.6512 -0.2092
   36TAL   C17712603  12.640   5.146   6.143 -0.4969 -0.3606 -0.0993
   36TAL   C17812604  12.684   5.279   6.081  0.5898  0.4016 -0.7168
   36TAL   C17912605  12.731   5.273   5.943 -1.1999  0.2302 -0.2212
   36TAL   C18012606  12.818   5.395   5.919 -0.4858  0.0278  0.5251
   37HTM   C18112607  12.442   4.808   6.501  0.2207  0.4300 -0.3189
   37HTM   C18212608  12.442   4.679   6.459  0.6118  0.5505 -0.7046
   37HTM   C18312609  12.530   4.593   6.535  0.8036  0.5685 -0.9032
   37HTM   C18412610  12.596   4.657   6.635  0.5587  0.4617 -0.6686
   37HTM    S1912611  12.554   4.833   6.641  0.0630  0.3290 -0.1752
   38TAL   C18512612  12.533   4.442   6.504  0.8019  0.4509 -0.2598
   38TAL   C18612613  12.391   4.382   6.453 -0.5498  0.0702 -0.9848
   38TAL   C18712614  12.419   4.235   6.428  0.0987  0.1836 -0.3954
   38TAL   C18812615  12.289   4.163   6.385 -0.0204  0.7967 -0.3083
   38TAL   C18912616  12.185   4.146   6.494  0.1791 -0.7508 -0.2428
   38TAL   C19012617  12.053   4.108   6.436  0.5068 -0.3423 -0.7910
   39HTM   C19112618  12.678   4.593   6.745 -0.3820 -0.9399 -0.4216
   39HTM   C19212619  12.784   4.650   6.810 -0.4506 -0.5552 -0.6421
   39HTM   C19312620  12.834   4.571   6.919 -0.5274  0.0572 -0.1515
   39HTM   C19412621  12.767   4.454   6.938 -0.5174  0.1395  0.4430
   39HTM    S2012622  12.634   4.434   6.818 -0.4092 -0.5556  0.4291
   40TAL   C19512623  12.957   4.627   6.989  0.8640 -0.3435  0.1529
   40TAL   C19612624  12.990   4.598   7.133 -0.1418  0.8138  0.0879
   40TAL   C19712625  12.885   4.640   7.238 -0.1943 -0.3604  1.2893
   40TAL   C19812626  12.916   4.786   7.279  0.5036 -0.0449  0.2828
   40TAL   C19912627  12.847   4.841   7.407 -0.3059  0.6301  0.1620
   40TAL   C20012628  12.762   4.751   7.487  1.0003 -0.3408  0.4009
   41HTM   C20112629  12.798   4.341   7.022 -0.1988 -0.5605 -0.2231
   41HTM   C20212630  12.723   4.276   7.116 -0.3821 -0.2257 -0.1333
   41HTM   C20312631  12.792   4.167   7.179 -0.5225 -0.0377  0.3561
   41HTM   C20412632  12.919   4.148   7.134 -0.4460 -0.2294  0.6394
   41HTM    S2112633  12.962   4.269   7.006 -0.1889 -0.6653  0.3078
   42TAL   C20512634  12.737   4.090   7.292  0.0367  0.8789 -0.0391
   42TAL   C20612635  12.773   4.136   7.434  1.0116 -0.7191 -0.2454
   42TAL   C20712636  12.695   4.260   7.485  0.2680 -0.0182  0.7706
   42TAL   C20812637  12.724   4.304   7.618  0.6565 -0.1411 -0.5766
   42TAL   C20912638  12.597   4.382   7.652  1.1938  0.6208  0.2697
   42TAL   C21012639  12.636   4.469   7.765  0.1770 -0.1675 -0.7985
   43HTM   C21112640  13.000   4.026   7.138  0.0802  0.0423  0.0492
   43HTM   C21212641  13.106   4.004   7.221 -0.3139 -0.0885  0.5246
   43HTM   C21312642  13.151   3.867   7.222 -0.5101 -0.1523  0.7583
   43HTM   C21412643  13.080   3.785   7.140 -0.2655 -0.0706  0.4609
   43HTM    S2212644  12.949   3.875   7.054  0.2354  0.0949 -0.1419
   44TAL   C21512645  13.268   3.814   7.314  0.1053 -0.0294  0.6015
   44TAL   C21612646  13.387   3.903   7.325  0.1052  0.7608  0.3585
   44TAL   C21712647  13.471   3.859   7.438 -0.5214 -0.5908 -0.1221
   44TAL   C21812648  13.611   3.931   7.477  0.9554  1.3555 -0.9121
   44TAL   C21912649  13.610   4.079   7.482 -0.5968  0.0751  0.2147
   44TAL   C22012650  13.741   4.128   7.540 -0.5845  0.8248 -0.4371
   45HTM   C22112651  13.104   3.645   7.113  0.2671 -0.3573 -0.0800
   45HTM   C22212652  13.209   3.562   7.134  0.1250 -0.4273  0.3886
   45HTM   C22312653  13.181   3.424   7.101  0.0055 -0.5051  0.8081
   45HTM   C22412654  13.055   3.403   7.056  0.0566 -0.4943  0.6591
   45HTM    S2312655  12.960   3.556   7.051  0.2612 -0.3842 -0.0277
   46TAL   C22512656  13.287   3.314   7.112 -0.6736 -0.6046  0.7648
   46TAL   C22612657  13.400   3.348   7.012 -0.0795 -0.4816 -0.2978
   46TAL   C22712658  13.498   3.227   6.974  0.1688 -0.0204 -1.2113
   46TAL   C22812659  13.564   3.148   7.086  0.1703  0.1332  0.0420
   46TAL   C22912660  13.587   3.012   7.038 -0.1138  1.0946 -0.2621
   46TAL   C23012661  13.635   2.914   7.144  0.2831  0.7647  0.6003
   47HTM   C23112662  12.994   3.283   7.008 -0.2913  0.4746 -0.4162
   47HTM   C23212663  12.878   3.224   7.049  0.2823 -0.1489  0.3935
   47HTM   C23312664  12.855   3.095   6.990  0.8766 -0.5881  1.0910
   47HTM   C23412665  12.953   3.055   6.904  0.7563 -0.2994  0.8131
   47HTM    S2412666  13.084   3.179   6.892 -0.1239  0.5560 -0.3599
   48TAL   C23512667  12.730   3.016   7.012  0.2323  1.1838 -0.1386
   48TAL   C23612668  12.685   3.007   7.163 -0.6672  0.0888  0.8563
   48TAL   C23712669  12.740   2.889   7.237  0.6272 -0.2385 -1.1889
   48TAL   C23812670  12.892   2.864   7.266 -0.1820 -0.9407 -0.2147
   48TAL   C23912671  12.950   2.987   7.324 -0.7197  0.5015 -0.3176
   48TAL   C24012672  13.067   2.970   7.430 -0.4025  0.2868 -0.1927
    1HTM     C112673   7.078   3.756   4.680  0.4528 -0.6234 -0.2494
    1HTM     C212674   7.083   3.621   4.702  0.0007 -0.5912  0.0590
    1HTM     C312675   6.970   3.550   4.648 -0.4042 -0.3008  0.5052
    1HTM     C412676   6.879   3.629   4.585 -0.2609 -0.1113  0.5370
    1HTM     S112677   6.930   3.802   4.588  0.4019 -0.2865  0.0018
    2TAL     C512678   6.951   3.399   4.665  0.4235  0.2552  0.3813
    2TAL     C612679   7.052   3.315   4.585 -0.1166  0.6261  1.7286
    2TAL     C712680   7.199   3.301   4.634  0.3656  0.2907 -0.3139
    2TAL     C812681   7.294   3.216   4.549  0.1214 -0.0649  1.3923
    2TAL     C912682   7.452   3.225   4.565  0.3697 -0.3825 -0.9226
    2TAL    C1012683   7.530   3.357   4.559 -0.6325 -0.4909  0.2351
    3HTM    C1112684   6.760   3.597   4.518 -0.0890 -0.8302  0.4570
    3HTM    C1212685   6.748   3.518   4.408 -0.1947 -1.1215  0.6752
    3HTM    C1312686   6.613   3.504   4.361 -0.1441 -0.5534  0.3432
    3HTM    C1412687   6.521   3.572   4.435  0.0003  0.1709 -0.1279
    3HTM     S212688   6.600   3.661   4.571  0.0840  0.1920 -0.1896
    4TAL    C1512689   6.575   3.396   4.259 -0.4280  0.0551 -0.9242
    4TAL    C1612690   6.470   3.437   4.150 -0.2656  0.5587  0.2075
    4TAL    C1712691   6.487   3.357   4.019 -1.2360 -0.5214  0.2028
    4TAL    C1812692   6.620   3.303   3.981 -0.6158  0.2544 -0.8653
    4TAL    C1912693   6.598   3.238   3.848 -0.4262 -0.2561  0.3683
    4TAL    C2012694   6.529   3.103   3.855 -1.0375 -0.7506  0.0730
    5HTM    C2112695   6.378   3.595   4.416  0.3344 -0.2015 -1.3111
    5HTM    C2212696   6.276   3.506   4.428  0.5114 -0.4578 -1.6752
    5HTM    C2312697   6.146   3.561   4.399  0.3253 -0.4084 -0.8116
    5HTM    C2412698   6.149   3.693   4.365  0.0063 -0.1145  0.2110
    5HTM     S312699   6.317   3.758   4.366 -0.0844  0.1246  0.1622
    6TAL    C2512700   6.026   3.473   4.404  0.7550  0.2823 -0.1731
    6TAL    C2612701   6.022   3.337   4.468  0.0936  0.7588 -0.7563
    6TAL    C2712702   6.091   3.219   4.396  0.8427 -0.2817  0.7330
    6TAL    C2812703   6.071   3.087   4.473 -0.4495  0.4763  0.5333
    6TAL    C2912704   5.939   3.009   4.496 -0.4789 -0.4152  0.1856
    6TAL    C3012705   5.836   2.997   4.379 -0.5081  0.3441  0.2475
    7HTM    C3112706   6.041   3.787   4.320  0.3879 -0.0728  0.3077
    7HTM    C3212707   5.909   3.797   4.351  0.4036 -0.4438  0.4956
    7HTM    C3312708   5.847   3.918   4.305 -0.0808 -0.7577  0.3052
    7HTM    C3412709   5.932   4.001   4.238 -0.4661 -0.6261 -0.0281
    7HTM     S412710   6.098   3.932   4.228 -0.2448 -0.0914 -0.1280
    8TAL    C3512711   5.703   3.941   4.330  0.0525  0.2201 -0.1001
    8TAL    C3612712   5.679   3.966   4.480 -0.0761  0.8187  0.0710
    8TAL    C3712713   5.534   4.000   4.509 -0.0134 -1.0584 -0.0468
    8TAL    C3812714   5.496   4.093   4.618  0.9753  0.5668 -0.6398
    8TAL    C3912715   5.342   4.106   4.638 -0.0523 -0.2656 -0.2088
    8TAL    C4012716   5.256   4.190   4.541 -0.5972 -0.1744  1.0117
    9HTM    C4112717   5.898   4.131   4.174  0.1339 -0.3543  0.0388
    9HTM    C4212718   5.782   4.174   4.115  0.2905 -0.2229 -0.1771
    9HTM    C4312719   5.792   4.306   4.059  0.5271 -0.2081 -0.1061
    9HTM    C4412720   5.914   4.364   4.074  0.5511 -0.3285  0.1638
    9HTM     S512721   6.028   4.255   4.162  0.2744 -0.4705  0.3511
   10TAL    C4512722   5.670   4.366   3.976 -1.5893  0.4940 -0.1424
   10TAL    C4612723   5.536   4.292   3.974 -0.4803 -0.5524  0.5658
   10TAL    C4712724   5.405   4.377   3.954 -1.4146  0.4496 -0.3339
   10TAL    C4812725   5.281   4.292   3.963 -1.8189 -0.7367  0.8072
   10TAL    C4912726   5.162   4.383   3.959  0.3545 -0.1901  0.6128
   10TAL    C5012727   5.039   4.291   3.950 -0.0027  0.5102 -0.6662
   11HTM    C5112728   5.962   4.501   4.034  0.3156 -0.1075  0.1655
   11HTM    C5212729   6.068   4.565   4.090  0.1485 -0.0482  0.4163
   11HTM    C5312730   6.079   4.703   4.053  0.1990 -0.0597  0.3886
   11HTM    C5412731   5.981   4.745   3.967  0.4045 -0.1279  0.1168
   11HTM     S612732   5.867   4.611   3.928  0.5515 -0.1830 -0.1272
   12TAL    C5512733   6.208   4.780   4.085 -0.3647  0.8338 -0.8798
   12TAL    C5612734   6.332   4.728   4.024 -1.3130  0.7845 -0.7298
   12TAL    C5712735   6.449   4.777   4.122  0.8368  0.0242  0.6587
   12TAL    C5812736   6.593   4.749   4.080 -1.0763 -0.1447  1.4836
   12TAL    C5912737   6.663   4.612   4.056 -0.9426 -0.6321 -0.1389
   12TAL    C6012738   6.729   4.534   4.174  0.0166  0.5497 -1.4903
   13HTM    C6112739   5.954   4.879   3.908 -0.4328 -0.2297  0.0917
   13HTM    C6212740   5.928   4.990   3.982 -0.1533 -0.2633  0.2454
   13HTM    C6312741   5.884   5.103   3.903  0.2139 -0.0139  0.3886
   13HTM    C6412742   5.876   5.076   3.770  0.2141  0.2099  0.3440
   13HTM     S712743   5.925   4.907   3.732 -0.2527  0.1223  0.1161
   14TAL    C6512744   5.891   5.238   3.964  0.2095 -0.0275  1.0292
   14TAL    C6612745   6.029   5.278   4.010 -0.2854 -0.5966  0.3249
   14TAL    C6712746   6.061   5.420   4.041 -0.2507 -0.1876  0.1180
   14TAL    C6812747   5.969   5.501   4.137  0.2835  0.4192  0.9863
   14TAL    C6912748   5.895   5.433   4.260  0.0192 -0.2933  0.4469
   14TAL    C7012749   5.834   5.545   4.329 -0.6299 -0.3775 -1.1703
   15HTM    C7112750   5.830   5.151   3.646 -0.5557 -0.1669 -0.5211
   15HTM    C7212751   5.744   5.117   3.545  0.0585  0.3194 -1.2276
   15HTM    C7312752   5.697   5.230   3.469  0.5918  0.6852 -1.0275
   15HTM    C7412753   5.747   5.350   3.512  0.3842  0.4778 -0.1682
   15HTM     S812754   5.858   5.329   3.653 -0.5078 -0.2007  0.4596
   16TAL    C7512755   5.602   5.192   3.360  0.0970  0.1300  0.6140
   16TAL    C7612756   5.655   5.164   3.216  0.0033 -0.1774 -0.3885
   16TAL    C7712757   5.555   5.158   3.100  0.7968 -1.6446 -0.5035
   16TAL    C7812758   5.489   5.294   3.063  0.5523  0.5853 -0.2236
   16TAL    C7912759   5.588   5.399   3.032 -0.1472 -0.5050  1.5188
   16TAL    C8012760   5.539   5.516   2.949 -0.3851 -1.3517 -0.5271
   17HTM    C8112761   5.721   5.486   3.472 -0.1419 -0.2395  0.0401
   17HTM    C8212762   5.764   5.594   3.543 -0.9546 -0.2456  0.5656
   17HTM    C8312763   5.736   5.720   3.479 -1.1090 -0.1870  0.7467
   17HTM    C8412764   5.672   5.708   3.359 -0.4138 -0.1362  0.3592
   17HTM     S912765   5.641   5.535   3.317  0.4967 -0.1586 -0.2693
   18TAL    C8512766   5.776   5.849   3.549  0.5181 -0.5732  1.3281
   18TAL    C8612767   5.851   5.869   3.684 -0.0607  0.2911  0.4488
   18TAL    C8712768   5.790   5.833   3.814 -0.2046 -0.3016  0.4572
   18TAL    C8812769   5.659   5.915   3.856 -0.3361  0.7974  0.5413
   18TAL    C8912770   5.593   5.878   3.992  0.2601  0.5164  0.8226
   18TAL    C9012771   5.451   5.903   4.004 -0.2818 -0.0970 -1.6025
   19HTM    C9112772   5.595   5.814   3.289 -0.7143 -0.0973 -0.1392
   19HTM    C9212773   5.473   5.794   3.231 -0.7131  0.1800 -0.2406
   19HTM    C9312774   5.404   5.916   3.199 -0.4157  0.3392 -0.2869
   19HTM    C9412775   5.473   6.028   3.232 -0.1899  0.1835 -0.2207
   19HTM    S1012776   5.632   5.989   3.307 -0.3371 -0.1793 -0.0939
   20TAL    C9512777   5.273   5.918   3.130 -0.1206 -0.0180  0.1220
   20TAL    C9612778   5.170   5.830   3.195 -1.0305 -0.2739 -0.1069
   20TAL    C9712779   5.058   5.773   3.112  0.0856  0.0812  0.3629
   20TAL    C9812780   4.977   5.667   3.179  1.2902  0.7223  0.3655
   20TAL    C9912781   4.891   5.709   3.299  0.0983  0.2542 -0.3985
   20TAL   C10012782   4.766   5.617   3.323  0.3201  0.2999 -0.6593
   21HTM   C10112783   5.453   6.165   3.207 -0.3170  0.5338  0.2114
   21HTM   C10212784   5.519   6.270   3.262 -0.4696  0.6267  0.2195
   21HTM   C10312785   5.501   6.394   3.191 -0.2365  0.4976 -0.0698
   21HTM   C10412786   5.420   6.383   3.082  0.0943  0.3063 -0.2982
   21HTM    S1112787   5.361   6.214   3.060  0.1369  0.2742 -0.1648
   22TAL   C10512788   5.573   6.526   3.226 -0.8155  1.0139  0.6803
   22TAL   C10612789   5.614   6.547   3.376 -0.3906 -0.5208  0.3791
   22TAL   C10712790   5.769   6.562   3.395 -0.3218  0.1687  0.1956
   22TAL   C10812791   5.867   6.507   3.294 -0.3301  0.5148  0.5151
   22TAL   C10912792   6.011   6.499   3.356  0.8758 -0.5877 -0.0922
   22TAL   C11012793   6.125   6.514   3.251 -0.3944 -0.1972 -0.4376
   23HTM   C11112794   5.371   6.467   2.974 -0.0860  0.0558 -0.1604
   23HTM   C11212795   5.257   6.455   2.901  0.1822  0.0287 -0.5769
   23HTM   C11312796   5.243   6.556   2.799  0.6025 -0.0671 -0.7345
   23HTM   C11412797   5.346   6.645   2.795  0.6547 -0.1130 -0.4382
   23HTM    S1212798   5.470   6.608   2.921  0.1733 -0.0383  0.0669
   24TAL   C11512799   5.137   6.537   2.699  0.5789 -1.0361  0.0641
   24TAL   C11612800   5.082   6.625   2.586 -0.8257  0.9373 -0.3411
   24TAL   C11712801   4.943   6.563   2.532  0.0017 -0.1642 -0.2481
   24TAL   C11812802   4.953   6.463   2.422 -0.0862 -0.4083  0.1931
   24TAL   C11912803   4.808   6.415   2.385 -0.5155  0.0607 -0.1268
   24TAL   C12012804   4.777   6.282   2.318 -0.0812 -0.4609 -1.2214
   25HTM   C12112805   5.373   6.763   2.715  0.1479 -0.4089 -0.3218
   25HTM   C12212806   5.315   6.885   2.730  0.4883 -0.3207  0.3704
   25HTM   C12312807   5.353   6.980   2.628  0.5320  0.0682  0.7418
   25HTM   C12412808   5.440   6.930   2.536  0.2251  0.2762  0.3328
   25HTM    S1312809   5.481   6.757   2.571 -0.1459 -0.0052 -0.5602
   26TAL   C12512810   5.290   7.117   2.623 -0.5110 -0.3513 -0.2085
   26TAL   C12612811   5.153   7.150   2.577 -0.5056  0.3555 -0.1033
   26TAL   C12712812   5.127   7.296   2.593 -0.7516  0.0124 -1.0850
   26TAL   C12812813   4.987   7.357   2.558 -0.9722 -0.3614  0.0730
   26TAL   C12912814   4.914   7.311   2.437  0.6969  0.0238 -1.0299
   26TAL   C13012815   4.790   7.399   2.410 -0.8684  0.2117 -0.1136
   27HTM   C13112816   5.491   6.989   2.414 -0.2257 -0.0772  0.1584
   27HTM   C13212817   5.535   6.922   2.304  0.2136 -0.2775  0.4532
   27HTM   C13312818   5.609   7.005   2.212  0.5770 -0.4437  0.5924
   27HTM   C13412819   5.621   7.135   2.252  0.4147 -0.3700  0.4037
   27HTM    S1412820   5.539   7.163   2.410 -0.2145 -0.0829  0.0329
   28TAL   C13512821   5.643   6.936   2.087 -0.0003 -0.0031  1.7675
   28TAL   C13612822   5.536   6.895   1.989  0.5591  0.3149  0.1523
   28TAL   C13712823   5.496   7.007   1.896 -0.4589  0.4309  0.5422
   28TAL   C13812824   5.397   6.929   1.796  0.4332 -1.0609 -0.7460
   28TAL   C13912825   5.319   7.033   1.716  0.3895 -0.6876 -0.1364
   28TAL   C14012826   5.176   6.983   1.684 -0.6765  0.6521 -0.2535
   29HTM   C14112827   5.681   7.249   2.190  0.0544 -0.7975 -0.2462
   29HTM   C14212828   5.621   7.319   2.090 -0.1063 -0.5826 -0.0014
   29HTM   C14312829   5.699   7.429   2.041 -0.3400 -0.2531  0.3533
   29HTM   C14412830   5.820   7.443   2.104 -0.3576 -0.2170  0.3789
   29HTM    S1512831   5.843   7.317   2.231 -0.0780 -0.5990 -0.0463
   30TAL   C14512832   5.637   7.506   1.920 -0.7996 -0.0057  0.5577
   30TAL   C14612833   5.621   7.424   1.795  0.6887 -0.4179 -0.1151
   30TAL   C14712834   5.631   7.528   1.680 -0.7058  0.1026  0.5671
   30TAL   C14812835   5.609   7.487   1.543  0.2692  1.0369  0.9535
   30TAL   C14912836   5.723   7.404   1.465  0.3621  0.6784 -0.3134
   30TAL   C15012837   5.692   7.370   1.325 -0.2197  0.0546 -0.0060
   31HTM   C15112838   5.928   7.538   2.078 -0.5574 -0.2794 -0.3598
   31HTM   C15212839   6.057   7.503   2.052 -0.7399 -0.5569 -0.9304
   31HTM   C15312840   6.144   7.615   2.030 -0.4764 -0.7153 -0.7096
   31HTM   C15412841   6.082   7.736   2.039 -0.0928 -0.5582  0.0294
   31HTM    S1612842   5.906   7.717   2.076 -0.0342 -0.1955  0.5076
   32TAL   C15512843   6.298   7.583   2.041  0.5732  0.1461  0.0791
   32TAL   C15612844   6.378   7.574   1.918 -0.1533 -0.0137 -0.0231
   32TAL   C15712845   6.517   7.544   1.909 -0.8239 -0.3722  0.5518
   32TAL   C15812846   6.604   7.659   1.954  0.0048  0.6447 -0.1511
   32TAL   C15912847   6.757   7.643   1.930  0.2098 -0.2752 -0.0143
   32TAL   C16012848   6.824   7.731   1.826  0.6678  0.3178  0.2963
   33HTM   C16112849   6.143   7.869   2.002 -0.5892  0.2294 -0.2086
   33HTM   C16212850   6.161   7.918   1.876 -1.3583  0.6669 -0.1613
   33HTM   C16312851   6.201   8.056   1.873 -1.1655  0.6189  0.0900
   33HTM   C16412852   6.213   8.112   1.996 -0.2496  0.1448  0.2344
   33HTM    S1712853   6.175   7.994   2.127  0.4460 -0.2810  0.0628
   34TAL   C16512854   6.208   8.133   1.747 -0.7025 -0.3190  0.9858
   34TAL   C16612855   6.308   8.074   1.637  0.9058  0.1318 -0.7062
   34TAL   C16712856   6.441   8.048   1.695 -0.1803 -0.6075 -0.7557
   34TAL   C16812857   6.559   8.139   1.681 -0.0645  0.0025 -0.4685
   34TAL   C16912858   6.651   8.061   1.778 -0.1669  1.1424 -0.2634
   34TAL   C17012859   6.797   8.084   1.762  0.0870  0.3045  0.3522
   35HTM   C17112860   6.268   8.242   2.036  0.0249  0.3892 -0.0141
   35HTM   C17212861   6.378   8.251   2.117 -0.2930  0.5028  0.4111
   35HTM   C17312862   6.436   8.382   2.122 -0.4028  0.5453  0.5754
   35HTM   C17412863   6.371   8.474   2.046 -0.1683  0.4638  0.2755
   35HTM    S1812864   6.230   8.401   1.960  0.2122  0.3260 -0.2418
   36TAL   C17512865   6.549   8.412   2.216  0.2848 -0.3490 -0.1175
   36TAL   C17612866   6.675   8.322   2.230 -0.4298 -0.0813  0.4043
   36TAL   C17712867   6.741   8.255   2.105 -0.4876  0.6258  0.0721
   36TAL   C17812868   6.894   8.229   2.132 -0.1393 -0.5712  0.0111
   36TAL   C17912869   6.997   8.163   2.032  0.9050 -0.0340  0.2244
   36TAL   C18012870   7.126   8.168   2.101  0.7734  0.1272 -0.2031
   37HTM   C18112871   6.384   8.619   2.020  0.4412  0.0538 -0.4958
   37HTM   C18212872   6.457   8.700   2.102  1.1466 -0.2153 -0.8436
   37HTM   C18312873   6.438   8.840   2.077  1.3149 -0.1373 -0.5471
   37HTM   C18412874   6.350   8.866   1.976  0.7378  0.1913  0.0266
   37HTM    S1912875   6.284   8.714   1.905 -0.0691  0.4293  0.2386
   38TAL   C18512876   6.521   8.944   2.151  0.1098 -0.1169  0.7385
   38TAL   C18612877   6.555   8.902   2.295 -0.7888 -0.1274 -0.4734
   38TAL   C18712878   6.456   8.932   2.406  0.3189  0.5868  0.0189
   38TAL   C18812879   6.494   9.025   2.517  1.0089 -0.8801 -0.9333
   38TAL   C18912880   6.571   8.953   2.641 -0.0516  0.0899  1.7351
   38TAL   C19012881   6.523   8.825   2.696  0.2734  0.5908  0.1366
   39HTM   C19112882   6.313   8.992   1.911  0.2565 -0.1364  0.0073
   39HTM   C19212883   6.304   9.033   1.782  0.9915  0.0160 -0.0032
   39HTM   C19312884   6.282   9.174   1.767  0.9927  0.0203  0.0383
   39HTM   C19412885   6.274   9.241   1.886  0.2583 -0.1291  0.0805
   39HTM    S2012886   6.294   9.129   2.026 -0.4974 -0.2873  0.0709
   40TAL   C19512887   6.264   9.254   1.636 -0.3801  0.4162  0.3547
   40TAL   C19612888   6.139   9.236   1.557  0.5040 -0.2193  0.3635
   40TAL   C19712889   6.159   9.243   1.407 -0.7807  0.3286  0.0377
   40TAL   C19812890   6.235   9.119   1.348  0.0934  0.4500 -0.3416
   40TAL   C19912891   6.268   9.145   1.200  0.4339 -0.5782 -0.4108
   40TAL   C20012892   6.313   9.018   1.133 -0.4669 -0.7302 -0.3646
   41HTM   C20112893   6.256   9.375   1.942  0.5311  0.2326  0.5210
   41HTM   C20212894   6.302   9.490   1.887  0.7777  0.1392  0.5302
   41HTM   C20312895   6.258   9.609   1.955  0.7499  0.2415  0.3343
   41HTM   C20412896   6.177   9.584   2.062  0.4822  0.4129  0.1757
   41HTM    S2112897   6.151   9.407   2.085  0.2425  0.4594  0.2621
   42TAL   C20512898   6.260   9.753   1.914 -0.0948 -0.7398  0.1078
   42TAL   C20612899   6.296   9.794   1.765  0.6975 -0.0412 -0.0880
   42TAL   C20712900   6.299   9.943   1.720  0.1064 -0.3786 -0.2651
   42TAL   C20812901   6.310   9.967   1.566 -0.6656 -0.7919  0.5611
   42TAL   C20912902   6.183   9.944   1.484  0.2885 -1.6913  0.3875
   42TAL   C21012903   6.216   9.976   1.336  0.1494  0.2692 -0.5150
   43HTM   C21112904   6.099   9.666   2.155  0.5430 -0.3549 -0.0790
   43HTM   C21212905   6.117   9.791   2.207  1.0808 -0.7048  0.6099
   43HTM   C21312906   6.004   9.839   2.283  1.2980 -0.6497  0.8987
   43HTM   C21412907   5.901   9.751   2.289  0.9258 -0.2578  0.4300
   43HTM    S2212908   5.937   9.599   2.199  0.2671  0.0747 -0.4191
   44TAL   C21512909   6.012   9.980   2.349  0.6534  0.4365 -0.1853
   44TAL   C21612910   6.145  10.057   2.376 -0.4490  0.6745 -0.1590
   44TAL   C21712911   6.135  10.179   2.461  0.2682  0.4569 -1.1885
   44TAL   C21812912   6.262  10.256   2.501  0.8153  0.7117 -0.1622
   44TAL   C21912913   6.307  10.371   2.408  0.1489 -0.8586 -0.6205
   44TAL   C22012914   6.400  10.482   2.475  0.6825  0.8865 -0.2845
   45HTM   C22112915   5.759   9.773   2.330 -0.3223 -0.2428 -0.3286
   45HTM   C22212916   5.661   9.839   2.260 -0.6295 -0.1985  0.1363
   45HTM   C22312917   5.527   9.802   2.300 -0.4609 -0.2919  0.6341
   45HTM   C22412918   5.523   9.709   2.399 -0.0247 -0.4073  0.5489
   45HTM    S2312919   5.689   9.660   2.451  0.2082 -0.4072 -0.1723
   46TAL   C22512920   5.399   9.856   2.235  0.9378 -0.0275  0.3022
   46TAL   C22612921   5.378   9.879   2.084  0.8906  1.6061 -0.4789
   46TAL   C22712922   5.400   9.770   1.972  0.4364 -0.5766  0.3943
   46TAL   C22812923   5.285   9.680   1.928  1.0583 -0.5020  0.2129
   46TAL   C22912924   5.308   9.594   1.807 -0.1294 -0.1297 -0.2874
   46TAL   C23012925   5.360   9.661   1.680 -0.5685 -0.0574  0.4111
   47HTM   C23112926   5.417   9.626   2.453 -0.0782 -0.2731 -0.5756
   47HTM   C23212927   5.445   9.504   2.506  0.1374 -0.6213 -1.4588
   47HTM   C23312928   5.328   9.432   2.551  0.3443 -0.7272 -1.0781
   47HTM   C23412929   5.211   9.500   2.532  0.2865 -0.4598  0.0955
   47HTM    S2412930   5.240   9.661   2.456 -0.0363 -0.0503  0.8163
   48TAL   C23512931   5.345   9.287   2.599 -1.1400 -0.3662  0.4529
   48TAL   C23612932   5.345   9.179   2.488 -0.2215  0.7981  0.2966
   48TAL   C23712933   5.420   9.057   2.545 -0.3437  0.0594  0.2460
   48TAL   C23812934   5.484   8.992   2.425  1.2293 -0.0051 -0.1853
   48TAL   C23912935   5.592   8.888   2.460 -0.0437 -0.6925  0.1423
   48TAL   C24012936   5.675   8.835   2.337  0.1150 -0.0246 -0.2789
    1HTM     C112937   0.624   1.746   8.690 -0.3894  0.0788 -0.4781
    1HTM     C212938   0.628   1.713   8.822 -0.7164  0.6596 -0.3171
    1HTM     C312939   0.628   1.571   8.847 -0.5800  0.7612  0.2980
    1HTM     C412940   0.623   1.496   8.734 -0.1491  0.2580  0.6065
    1HTM     S112941   0.619   1.599   8.585  0.1201 -0.3884  0.1405
    2TAL     C512942   0.633   1.504   8.985  0.5204 -0.9920  0.2354
    2TAL     C612943   0.730   1.577   9.074  1.0965  0.6138  0.2932
    2TAL     C712944   0.714   1.554   9.218  0.6166 -0.9396 -0.0372
    2TAL     C812945   0.846   1.530   9.296  0.3570 -0.0430 -0.7054
    2TAL     C912946   0.918   1.670   9.337  0.6062 -0.2748  0.2567
    2TAL    C1012947   1.019   1.708   9.225 -0.1411 -0.5895  0.2418
    3HTM    C1112948   0.628   1.352   8.713  0.3036  0.1187  0.3507
    3HTM    C1212949   0.536   1.278   8.644  0.2943  0.5963 -0.1602
    3HTM    C1312950   0.564   1.137   8.644  0.0571  0.5450 -0.7892
    3HTM    C1412951   0.676   1.103   8.713 -0.1145  0.0281 -0.7575
    3HTM     S212952   0.757   1.247   8.784  0.0112 -0.4374  0.0749
    4TAL    C1512953   0.458   1.037   8.589 -0.2315  0.2183 -0.3173
    4TAL    C1612954   0.501   0.951   8.467 -0.4309 -0.0316  0.7118
    4TAL    C1712955   0.403   0.841   8.431  0.6587  0.3732 -0.6141
    4TAL    C1812956   0.331   0.853   8.297 -0.0147 -0.1965  0.4075
    4TAL    C1912957   0.214   0.766   8.293 -0.3682  0.8564  0.3814
    4TAL    C2012958   0.254   0.639   8.210  0.0493  0.1263  0.3992
    5HTM    C2112959   0.745   0.973   8.757  0.3611 -0.1006 -0.0322
    5HTM    C2212960   0.878   0.960   8.785  0.4938 -0.5296 -0.8144
    5HTM    C2312961   0.920   0.824   8.808  0.2006 -0.6673 -1.0786
    5HTM    C2412962   0.818   0.733   8.799 -0.1556 -0.3433 -0.4982
    5HTM     S312963   0.662   0.813   8.759 -0.1484  0.1648  0.4345
    6TAL    C2512964   1.064   0.802   8.851  1.1729  0.5763 -0.0882
    6TAL    C2612965   1.160   0.751   8.740 -0.4714 -0.1801  0.2359
    6TAL    C2712966   1.176   0.839   8.624 -0.1633 -0.3023 -0.1070
    6TAL    C2812967   1.285   0.843   8.518  0.2967 -0.2324 -0.3899
    6TAL    C2912968   1.433   0.839   8.566  0.3544  0.9263  0.0907
    6TAL    C3012969   1.484   0.957   8.632  0.1785  0.4611  0.1044
    7HTM    C3112970   0.805   0.592   8.839 -0.4644 -0.1964 -0.5090
    7HTM    C3212971   0.875   0.483   8.795  0.2381  0.1391 -0.2527
    7HTM    C3312972   0.836   0.360   8.858  1.0665  0.0298  0.0722
    7HTM    C3412973   0.736   0.374   8.950  0.9956 -0.3891  0.0642
    7HTM     S412974   0.684   0.546   8.964 -0.1317 -0.6802 -0.3581
    8TAL    C3512975   0.897   0.226   8.833  0.4101 -0.8147 -0.0082
    8TAL    C3612976   0.931   0.176   8.697  1.2493 -0.0138 -0.2687
    8TAL    C3712977   1.073   0.196   8.643  0.2839  0.4184 -0.2515
    8TAL    C3812978   1.087   0.333   8.575 -0.5942 -0.1439 -0.8298
    8TAL    C3912979   1.222   0.386   8.514  0.5452 -0.1104 -0.4066
    8TAL    C4012980   1.343   0.419   8.609 -1.3211 -0.6325 -0.2234
    9HTM    C4112981   0.670   0.268   9.024 -0.5696 -0.5430 -0.5053
    9HTM    C4212982   0.544   0.220   9.002 -0.5005 -0.9030 -0.1504
    9HTM    C4312983   0.507   0.110   9.088 -0.1377 -0.6706  0.3085
    9HTM    C4412984   0.605   0.075   9.176  0.0698 -0.1335  0.3037
    9HTM     S512985   0.752   0.177   9.157 -0.1788  0.1225 -0.2859
   10TAL    C4512986   0.370   0.050   9.097  0.4494 -0.7103  0.5112
   10TAL    C4612987   0.331  -0.021   8.962 -0.3408  0.1805 -0.8679
   10TAL    C4712988   0.225  -0.119   8.992  1.0499 -0.0062 -0.7457
   10TAL    C4812989   0.269  -0.249   9.059  0.3663 -0.2801 -1.0018
   10TAL    C4912990   0.161  -0.341   9.141 -0.1648 -0.1119 -0.6438
   10TAL    C5012991   0.210  -0.487   9.142  0.0251 -0.3868 -0.3780
   11HTM    C5112992   0.614  -0.019   9.285 -0.3580  0.0658  0.0902
   11HTM    C5212993   0.673   0.001   9.406 -1.5882  0.4802  0.6590
   11HTM    C5312994   0.685  -0.119   9.485 -1.7264  0.6096  0.8781
   11HTM    C5412995   0.635  -0.230   9.424 -0.6015  0.2940  0.4767
   11HTM     S612996   0.568  -0.192   9.261  0.7299 -0.1949 -0.2153
   12TAL    C5512997   0.719  -0.106   9.635 -0.0795  0.4317 -0.6115
   12TAL    C5612998   0.822   0.000   9.669 -0.0769  0.2179 -0.2580
   12TAL    C5712999   0.868  -0.011   9.823  0.1231 -1.1686  0.0401
   12TAL    C5813000   0.986   0.076   9.876  0.3071  0.2159  0.4800
   12TAL    C5913001   1.014   0.202   9.804  0.1818 -0.5153  0.3377
   12TAL    C6013002   0.915   0.313   9.815  0.3878 -0.4205  0.2420
   13HTM    C6113003   0.641  -0.366   9.459 -0.2145  0.3062 -0.4156
   13HTM    C6213004   0.587  -0.474   9.397 -0.5783  0.4857 -0.4158
   13HTM    C6313005   0.612  -0.599   9.465 -0.6927  0.3588 -0.6044
   13HTM    C6413006   0.686  -0.585   9.579 -0.4163  0.0824 -0.7484
   13HTM     S713007   0.730  -0.413   9.609  0.0135 -0.0400 -0.6559
   14TAL    C6513008   0.570  -0.737   9.400  0.2500 -1.1535 -0.2846
   14TAL    C6613009   0.576  -0.866   9.481  0.6360 -0.7398 -0.4788
   14TAL    C6713010   0.454  -0.872   9.588 -0.3063  0.3515 -0.3933
   14TAL    C6813011   0.298  -0.861   9.556 -0.2618  0.2630  0.5896
   14TAL    C6913012   0.238  -0.962   9.462  0.3484 -0.1554  0.3376
   14TAL    C7013013   0.134  -1.049   9.534  0.2550  0.1639 -0.8319
   15HTM    C7113014   0.741  -0.682   9.675 -0.2434 -0.2320 -0.1429
   15HTM    C7213015   0.705  -0.684   9.806 -0.8847 -0.8867 -0.3154
   15HTM    C7313016   0.780  -0.778   9.885 -0.7269 -0.7267 -0.2739
   15HTM    C7413017   0.873  -0.848   9.814  0.0349  0.0497 -0.0697
   15HTM     S813018   0.873  -0.800   9.640  0.6164  0.6441  0.0872
   16TAL    C7513019   0.743  -0.782  10.026 -0.2544  0.3285  0.4362
   16TAL    C7613020   0.852  -0.815  10.125  0.8306  0.0798 -0.6595
   16TAL    C7713021   0.796  -0.834  10.270 -0.0108 -0.0245 -0.3505
   16TAL    C7813022   0.905  -0.900  10.356  0.6125  0.2381 -0.1510
   16TAL    C7913023   0.849  -1.035  10.429 -0.3371 -0.2048  0.4399
   16TAL    C8013024   0.775  -1.137  10.352 -0.0497  0.0607  0.2337
   17HTM    C8113025   0.979  -0.943   9.853  0.0229 -0.1332 -1.2069
   17HTM    C8213026   0.996  -1.077   9.841  0.3067 -0.0818 -1.3713
   17HTM    C8313027   1.125  -1.123   9.888  0.2649  0.0854 -1.0853
   17HTM    C8413028   1.205  -1.023   9.935 -0.0507  0.1616 -0.7028
   17HTM     S913029   1.124  -0.863   9.925 -0.3219  0.0271 -0.6740
   18TAL    C8513030   1.145  -1.276   9.891 -0.9505  0.9178  0.1719
   18TAL    C8613031   1.088  -1.356  10.014 -0.5497 -0.0253  0.0918
   18TAL    C8713032   1.105  -1.286  10.148  0.0585  0.1498  0.1992
   18TAL    C8813033   1.248  -1.262  10.204 -0.6525  0.0708  0.6019
   18TAL    C8913034   1.321  -1.397  10.243  0.5273  0.2214  0.5929
   18TAL    C9013035   1.304  -1.435  10.383  0.4723  0.6375 -0.4831
   19HTM    C9113036   1.340  -1.013   9.983 -0.0722 -0.5463 -0.0357
   19HTM    C9213037   1.446  -1.096   9.958  0.0424 -0.4029 -0.0229
   19HTM    C9313038   1.567  -1.056  10.026  0.0884 -0.0072 -0.3293
   19HTM    C9413039   1.553  -0.944  10.102  0.0088  0.1513 -0.5756
   19HTM    S1013040   1.385  -0.879  10.094 -0.1314 -0.1894 -0.4387
   20TAL    C9513041   1.674  -1.162  10.004 -1.2891 -0.2367  0.8516
   20TAL    C9613042   1.761  -1.211  10.118 -0.8768  0.4142 -1.9364
   20TAL    C9713043   1.847  -1.335  10.083 -0.3273  1.3320  0.3045
   20TAL    C9813044   1.987  -1.295  10.127  0.2341 -0.9270  0.2258
   20TAL    C9913045   2.077  -1.415  10.145  0.0906 -0.6881  0.2883
   20TAL   C10013046   2.136  -1.456  10.278 -0.0442  0.3763  0.4223
   21HTM   C10113047   1.660  -0.867  10.178 -0.0519  0.1897  0.3553
   21HTM   C10213048   1.750  -0.907  10.272  0.4712  0.1290 -0.1562
   21HTM   C10313049   1.851  -0.809  10.302  0.7254  0.0515 -0.7529
   21HTM   C10413050   1.839  -0.694  10.229  0.3962  0.0536 -0.6964
   21HTM    S1113051   1.697  -0.701  10.118 -0.2656  0.1540  0.1211
   22TAL   C10513052   1.968  -0.840  10.400  0.0920  0.1218  0.3086
   22TAL   C10613053   1.945  -0.942  10.504 -0.1258 -0.8242  0.0529
   22TAL   C10713054   2.083  -0.991  10.549  1.1271  0.3376 -0.8715
   22TAL   C10813055   2.074  -1.068  10.681  0.6126 -0.5875  0.1424
   22TAL   C10913056   2.039  -1.219  10.707  0.0836  1.2485  0.4189
   22TAL   C11013057   2.129  -1.311  10.635  0.0808  0.2802 -0.2550
   23HTM   C11113058   1.913  -0.569  10.235  0.0849  0.2760  0.2612
   23HTM   C11213059   2.042  -0.540  10.269 -0.3287  0.8607  1.4700
   23HTM   C11313060   2.072  -0.399  10.269 -0.9176  0.9928  1.5940
   23HTM   C11413061   1.966  -0.320  10.236 -0.9530  0.5095  0.4797
   23HTM    S1213062   1.819  -0.418  10.201 -0.2398 -0.1560 -0.8227
   24TAL   C11513063   2.221  -0.362  10.296 -0.3313  1.0217 -0.8771
   24TAL   C11613064   2.293  -0.454  10.403  0.0877 -0.5705  0.5122
   24TAL   C11713065   2.289  -0.412  10.550 -1.3937 -0.5453 -0.1601
   24TAL   C11813066   2.157  -0.357  10.607  0.5745 -0.2218 -0.4711
   24TAL   C11913067   2.194  -0.322  10.752  0.5082  0.4663 -1.1669
   24TAL   C12013068   2.074  -0.272  10.841 -0.3468  0.1410 -0.0119
   25HTM   C12113069   1.980  -0.177  10.216  0.7864 -0.1402  0.3295
   25HTM   C12213070   2.023  -0.085  10.308  0.7738  0.1011  0.0942
   25HTM   C12313071   2.046   0.045  10.252 -0.0219  0.1721 -0.0889
   25HTM   C12413072   2.021   0.053  10.118 -0.6160 -0.0151  0.0068
   25HTM    S1313073   1.966  -0.106  10.052 -0.2134 -0.2976  0.3382
   26TAL   C12513074   2.101   0.152  10.341 -0.8562 -0.4473  0.3199
   26TAL   C12613075   2.112   0.116  10.493  0.5398  0.2966 -0.3335
   26TAL   C12713076   2.152   0.242  10.575  1.7838  0.2305  0.3329
   26TAL   C12813077   2.148   0.237  10.722  0.1619 -1.6310 -1.1377
   26TAL   C12913078   2.259   0.142  10.767 -0.7709 -0.1027 -0.1890
   26TAL   C13013079   2.274   0.140  10.915 -1.4733  0.0961 -0.1829
   27HTM   C13113080   2.032   0.170  10.032 -0.2311 -0.0523 -0.3348
   27HTM   C13213081   2.104   0.182   9.917 -0.3748 -0.1689 -0.4385
   27HTM   C13313082   2.079   0.305   9.846 -0.0632  0.0024 -0.2519
   27HTM   C13413083   1.989   0.387   9.907  0.3181  0.2497 -0.0059
   27HTM    S1413084   1.926   0.314  10.060  0.3131  0.2856  0.0093
   28TAL   C13513085   2.159   0.332   9.723 -1.2067  0.2192 -0.0066
   28TAL   C13613086   2.122   0.257   9.594  0.1938 -0.4208 -0.2436
   28TAL   C13713087   2.233   0.286   9.495  0.4870 -0.1289  0.8997
   28TAL   C13813088   2.216   0.194   9.376  0.9790  1.0145 -0.1462
   28TAL   C13913089   2.348   0.192   9.309 -0.2320  1.1475  0.3197
   28TAL   C14013090   2.349   0.066   9.223 -0.5764 -0.2518  0.5798
   29HTM   C14113091   1.928   0.511   9.868 -0.2997 -0.4902 -0.1498
   29HTM   C14213092   1.867   0.606   9.944 -1.1592 -1.1915  0.0726
   29HTM   C14313093   1.809   0.714   9.868 -1.7827 -1.3339  0.3389
   29HTM   C14413094   1.825   0.701   9.734 -1.3988 -0.7413  0.3197
   29HTM    S1513095   1.916   0.550   9.692 -0.2106  0.0487 -0.0395
   30TAL   C14513096   1.794   0.850   9.942 -0.3689 -0.6386 -0.9707
   30TAL   C14613097   1.681   0.873  10.045 -0.0863  0.2428 -0.4944
   30TAL   C14713098   1.548   0.815   9.977  0.3420  0.1287  0.3806
   30TAL   C14813099   1.421   0.832  10.049 -0.6782  0.1359 -0.5699
   30TAL   C14913100   1.378   0.974  10.079  0.3447  0.2024 -0.0638
   30TAL   C15013101   1.249   0.963  10.153  0.4743 -0.3524  0.5177
   31HTM   C15113102   1.754   0.765   9.628 -0.5765 -0.7120 -0.5126
   31HTM   C15213103   1.641   0.711   9.573 -0.4234 -0.3856 -1.1609
   31HTM   C15313104   1.568   0.804   9.491 -0.0656  0.0443 -1.0066
   31HTM   C15413105   1.624   0.928   9.483  0.0541  0.0458 -0.2404
   31HTM    S1613106   1.776   0.937   9.580 -0.2784 -0.5000  0.3500
   32TAL   C15513107   1.455   0.744   9.409  0.1940  0.9019  1.3354
   32TAL   C15613108   1.313   0.781   9.443  0.4821  0.3709 -0.1019
   32TAL   C15713109   1.223   0.726   9.327  0.3833  0.1327 -1.1023
   32TAL   C15813110   1.143   0.601   9.359  1.0594  0.1290 -0.1494
   32TAL   C15913111   1.074   0.536   9.238  0.4435  0.1059 -0.2275
   32TAL   C16013112   1.049   0.381   9.269 -0.0051  0.2099  0.1538
   33HTM   C16113113   1.567   1.055   9.432 -0.6344 -0.5591 -0.3696
   33HTM   C16213114   1.441   1.102   9.455 -0.7503 -0.4233 -1.2083
   33HTM   C16313115   1.421   1.239   9.414 -0.3096 -0.3800 -1.2829
   33HTM   C16413116   1.532   1.296   9.359  0.1423 -0.4827 -0.5007
   33HTM    S1713117   1.671   1.181   9.356  0.0455 -0.6433  0.3973
   34TAL   C16513118   1.291   1.314   9.418 -0.9692  0.3216 -0.0462
   34TAL   C16613119   1.233   1.325   9.556  0.3594 -0.9659  0.4794
   34TAL   C16713120   1.086   1.371   9.545  0.3465 -0.2248  0.4830
   34TAL   C16813121   1.007   1.410   9.664  0.7101  0.7163 -0.1292
   34TAL   C16913122   1.054   1.510   9.772  0.5175 -0.3906 -0.6927
   34TAL   C17013123   1.166   1.480   9.872 -0.0061 -0.1966  0.3674
   35HTM   C17113124   1.544   1.425   9.299  0.6137  0.3636  0.1116
   35HTM   C17213125   1.561   1.544   9.364  0.8162  0.4199 -0.0451
   35HTM   C17313126   1.589   1.654   9.275  0.4770  0.3542 -0.2365
   35HTM   C17413127   1.593   1.619   9.143  0.0157  0.2477 -0.2258
   35HTM    S1813128   1.562   1.442   9.121 -0.0262  0.2220  0.0287
   36TAL   C17513129   1.586   1.795   9.341  0.2270  0.5642 -0.1855
   36TAL   C17613130   1.456   1.864   9.357  1.3747  0.2210 -1.1110
   36TAL   C17713131   1.341   1.811   9.458 -0.5674 -0.2743  0.1518
   36TAL   C17813132   1.318   1.857   9.596  0.1698 -1.1801  0.2502
   36TAL   C17913133   1.423   1.836   9.702  1.2497  0.3150  0.4252
   36TAL   C18013134   1.492   1.701   9.696  0.2053 -0.4564 -0.2475
   37HTM   C18113135   1.592   1.708   9.025  0.1793  0.3080 -0.1144
   37HTM   C18213136   1.625   1.840   9.017 -0.0357  0.3704  0.0060
   37HTM   C18313137   1.619   1.894   8.883 -0.2255  0.5089  0.0701
   37HTM   C18413138   1.580   1.802   8.789 -0.1552  0.5520 -0.0013
   37HTM    S1913139   1.549   1.641   8.863  0.1586  0.4201 -0.1562
   38TAL   C18513140   1.668   2.027   8.854 -0.2023 -0.4713  0.0687
   38TAL   C18613141   1.608   2.149   8.926 -0.2406  0.6018 -0.1027
   38TAL   C18713142   1.582   2.280   8.857  0.4293  0.3361 -0.3042
   38TAL   C18813143   1.685   2.394   8.880 -0.2800  0.5369 -0.0123
   38TAL   C18913144   1.664   2.534   8.838  0.1665 -1.0221  0.5307
   38TAL   C19013145   1.520   2.599   8.845 -0.6587  0.1446 -0.0169
   39HTM   C19113146   1.582   1.791   8.648  0.1142  0.3867  0.2187
   39HTM   C19213147   1.636   1.682   8.587 -0.7314 -0.0294  0.1850
   39HTM   C19313148   1.666   1.703   8.448 -1.1096 -0.4224  0.0405
   39HTM   C19413149   1.635   1.828   8.403 -0.5523 -0.3060 -0.0363
   39HTM    S2013150   1.564   1.930   8.534  0.5015  0.3138  0.0689
   40TAL   C19513151   1.729   1.591   8.370  0.8148 -0.0900 -0.2368
   40TAL   C19613152   1.616   1.492   8.330 -0.8356  1.0582 -0.1238
   40TAL   C19713153   1.605   1.363   8.253  1.0044  0.4493 -0.2083
   40TAL   C19813154   1.667   1.229   8.308 -0.0782  1.1113 -0.4181
   40TAL   C19913155   1.651   1.106   8.216  0.4133 -1.0024 -0.0017
   40TAL   C20013156   1.510   1.080   8.165 -0.3911  0.3250  0.2827
   41HTM   C20113157   1.659   1.881   8.275 -0.4009 -0.1324 -0.1519
   41HTM   C20213158   1.611   2.003   8.238 -0.5710 -0.3370 -0.6227
   41HTM   C20313159   1.623   2.030   8.097 -0.0834 -0.6309 -0.6413
   41HTM   C20413160   1.681   1.929   8.026  0.4582 -0.6504 -0.1851
   41HTM    S2113161   1.725   1.790   8.133  0.3942 -0.2963  0.3082
   42TAL   C20513162   1.594   2.174   8.043  0.4688  0.0080 -0.3837
   42TAL   C20613163   1.557   2.290   8.135 -0.0765  0.0153 -0.9308
   42TAL   C20713164   1.432   2.279   8.225  1.0523 -0.2251 -0.3549
   42TAL   C20813165   1.412   2.401   8.308  0.1358 -0.0096  0.0521
   42TAL   C20913166   1.285   2.372   8.391 -1.0919 -0.3044  0.2013
   42TAL   C21013167   1.322   2.291   8.515  0.5324  0.4670 -0.9271
   43HTM   C21113168   1.708   1.913   7.888 -0.1027 -0.4500  0.0036
   43HTM   C21213169   1.829   1.902   7.826 -0.1039 -0.9458  0.0833
   43HTM   C21313170   1.821   1.908   7.682  0.0265 -0.8052  0.0814
   43HTM   C21413171   1.694   1.924   7.635  0.1271 -0.2024  0.0005
   43HTM    S2213172   1.574   1.933   7.769  0.0646  0.2381 -0.0805
   44TAL   C21513173   1.941   1.899   7.589 -0.9548 -0.0270  0.1142
   44TAL   C21613174   1.965   1.764   7.524 -0.0297 -0.3744 -0.2516
   44TAL   C21713175   1.961   1.635   7.602  0.2219 -0.3564  0.6291
   44TAL   C21813176   2.082   1.610   7.691 -0.0625  0.4546  0.5660
   44TAL   C21913177   2.052   1.495   7.796  0.5298 -1.8706 -0.5303
   44TAL   C22013178   2.092   1.550   7.935 -0.0294 -0.3982 -0.7002
   45HTM   C22113179   1.648   1.923   7.498  0.2335 -0.1263 -0.1542
   45HTM   C22213180   1.545   1.857   7.438  0.1698 -0.1408 -0.0293
   45HTM   C22313181   1.511   1.909   7.308 -0.1658  0.0240  0.1191
   45HTM   C22413182   1.589   2.013   7.268 -0.3579  0.1641  0.1074
   45HTM    S2313183   1.712   2.055   7.394 -0.1282  0.0981 -0.0934
   46TAL   C22513184   1.410   1.833   7.227 -0.3924 -0.9194  0.5015
   46TAL   C22613185   1.274   1.843   7.294  0.3648  0.7010  0.2306
   46TAL   C22713186   1.153   1.813   7.210  0.8899  0.1874  0.7805
   46TAL   C22813187   1.042   1.774   7.315 -0.6621 -0.9300  0.1677
   46TAL   C22913188   0.908   1.836   7.275 -0.4557  1.4909  0.6168
   46TAL   C23013189   0.799   1.837   7.376 -0.6659 -0.0085  0.6845
   47HTM   C23113190   1.589   2.097   7.155  1.0286 -0.3353 -0.7004
   47HTM   C23213191   1.543   2.070   7.029  0.9676 -0.2945 -0.6871
   47HTM   C23313192   1.562   2.178   6.936  0.1756  0.0551 -0.4605
   47HTM   C23413193   1.623   2.287   6.990 -0.3673  0.2808 -0.3009
   47HTM    S2413194   1.660   2.262   7.165  0.0831  0.0679 -0.4255
   48TAL   C23513195   1.523   2.191   6.789 -1.5719 -0.2209 -0.5293
   48TAL   C23613196   1.428   2.098   6.713  0.3682 -0.7399  0.6443
   48TAL   C23713197   1.465   1.951   6.707 -0.4197 -0.3380 -0.3671
   48TAL   C23813198   1.364   1.857   6.629 -0.3248 -1.4398  0.9703
   48TAL   C23913199   1.344   1.719   6.674  0.2607  0.8127 -0.8005
   48TAL   C24013200   1.461   1.616   6.654  1.0184 -0.7684 -0.0780
    1HTM     C113201   0.100   8.882   9.082  0.0964  0.3117  0.0351
    1HTM     C213202   0.039   8.761   9.063  0.0891  0.2472  0.4411
    1HTM     C313203   0.014   8.731   8.925 -0.0141 -0.1693  0.5491
    1HTM     C413204   0.056   8.828   8.838 -0.0854 -0.4225  0.2252
    1HTM     S113205   0.131   8.967   8.926 -0.0273 -0.1526 -0.2448
    2TAL     C513206  -0.057   8.607   8.897 -0.0507 -0.3219 -1.1018
    2TAL     C613207  -0.103   8.562   8.762  0.1520 -0.1325 -0.5170
    2TAL     C713208  -0.134   8.413   8.758 -0.3961 -1.4868 -0.4583
    2TAL     C813209  -0.106   8.349   8.623  0.1640  0.3872 -0.2333
    2TAL     C913210   0.027   8.327   8.556  0.5674  0.2009 -0.2224
    2TAL    C1013211   0.024   8.235   8.433 -0.0517 -0.7128 -1.1244
    3HTM    C1113212   0.062   8.843   8.691 -0.4602  0.0224 -0.1848
    3HTM    C1213213   0.004   8.922   8.597 -0.7907 -0.5848 -0.5078
    3HTM    C1313214   0.044   8.892   8.462 -0.6126 -0.9122 -0.3829
    3HTM    C1413215   0.133   8.789   8.453 -0.1463 -0.5544  0.0350
    3HTM     S213216   0.173   8.722   8.616  0.1060  0.2293  0.3058
    4TAL    C1513217  -0.025   8.991   8.371  0.2165  0.8772  0.2059
    4TAL    C1613218   0.052   9.044   8.259  0.5302 -0.4509  0.0581
    4TAL    C1713219   0.191   9.117   8.286  0.3542  0.2102  0.3004
    4TAL    C1813220   0.233   9.203   8.165  1.1260  0.4728 -0.2168
    4TAL    C1913221   0.373   9.241   8.209 -0.6876 -0.5714  1.0311
    4TAL    C2013222   0.442   9.340   8.095 -0.1770  0.2361 -0.6269
    5HTM    C2113223   0.190   8.724   8.344 -0.3778 -0.0330  0.1585
    5HTM    C2213224   0.314   8.748   8.292 -0.2602 -0.2227  0.3471
    5HTM    C2313225   0.330   8.702   8.156  0.0062 -0.6063  0.5071
    5HTM    C2413226   0.219   8.642   8.105  0.0917 -0.7093  0.4398
    5HTM     S313227   0.084   8.640   8.225 -0.1596 -0.3266  0.1677
    6TAL    C2513228   0.467   8.713   8.086 -0.8744  0.0070  0.6418
    6TAL    C2613229   0.583   8.630   8.152  0.2655 -0.4395  0.8490
    6TAL    C2713230   0.600   8.487   8.110  0.4974  0.8294 -0.2346
    6TAL    C2813231   0.502   8.386   8.165  0.3175  0.0457 -0.5565
    6TAL    C2913232   0.488   8.363   8.310 -0.3830  0.2247 -0.2385
    6TAL    C3013233   0.614   8.367   8.392  0.8678  0.1271 -0.5978
    7HTM    C3113234   0.197   8.574   7.973  0.3324  0.4478 -0.4044
    7HTM    C3213235   0.136   8.627   7.863  0.6552  0.5174 -0.5513
    7HTM    C3313236   0.099   8.530   7.764  0.6684  0.5441 -0.5825
    7HTM    C3413237   0.132   8.402   7.797  0.3557  0.4951 -0.4594
    7HTM     S413238   0.212   8.394   7.959  0.0176  0.4103 -0.2930
    8TAL    C3513239   0.009   8.565   7.648 -0.6923  0.2221 -0.2038
    8TAL    C3613240  -0.136   8.529   7.658  0.3859 -0.3652 -0.5953
    8TAL    C3713241  -0.239   8.643   7.679 -1.4001  0.0299 -0.0307
    8TAL    C3813242  -0.371   8.654   7.610 -0.6733  0.5390  0.1325
    8TAL    C3913243  -0.388   8.645   7.461  0.0176  0.4440 -0.7753
    8TAL    C4013244  -0.336   8.761   7.381 -0.5719  0.5879 -0.2075
    9HTM    C4113245   0.113   8.272   7.728  0.0824 -0.6441  0.4142
    9HTM    C4213246   0.097   8.148   7.784 -0.2265 -0.7858  0.0230
    9HTM    C4313247   0.071   8.044   7.688 -0.4021 -0.4332 -0.3191
    9HTM    C4413248   0.067   8.088   7.559 -0.2270 -0.0225 -0.1887
    9HTM     S513249   0.097   8.265   7.548  0.1762 -0.0492  0.3805
   10TAL    C4513250   0.058   7.895   7.741  0.2821 -0.2526  0.3757
   10TAL    C4613251   0.117   7.783   7.653 -0.0308  0.2069 -0.1219
   10TAL    C4713252   0.109   7.635   7.696 -0.0829  0.2128  0.3017
   10TAL    C4813253  -0.009   7.559   7.763  0.0778 -0.2215  0.8451
   10TAL    C4913254  -0.094   7.476   7.678 -0.0433 -0.2246  0.2061
   10TAL    C5013255  -0.216   7.396   7.745 -0.8043  0.2271 -0.2569
   11HTM    C5113256   0.037   8.015   7.436 -0.3542  0.6385 -0.2127
   11HTM    C5213257   0.109   7.999   7.321 -0.3814  0.1574 -0.1681
   11HTM    C5313258   0.039   7.926   7.219 -0.1236 -0.9296  0.4076
   11HTM    C5413259  -0.086   7.885   7.255  0.1007 -1.2772  0.8020
   11HTM     S613260  -0.125   7.937   7.424  0.0023 -0.2513  0.4740
   12TAL    C5513261   0.081   7.927   7.068 -0.0168 -0.3716  0.2940
   12TAL    C5613262   0.226   7.875   7.050 -1.8992  0.4152 -0.7579
   12TAL    C5713263   0.268   7.752   7.127  0.2535 -0.3831  0.0503
   12TAL    C5813264   0.403   7.717   7.090  0.3172  0.5654 -0.1577
   12TAL    C5913265   0.437   7.623   6.982  0.7109 -0.1467  0.1109
   12TAL    C6013266   0.554   7.541   7.017 -0.1596 -0.1416 -0.0433
   13HTM    C6113267  -0.190   7.796   7.201 -0.3349  0.0778 -0.1556
   13HTM    C6213268  -0.191   7.661   7.181 -0.3254  0.1303 -0.5230
   13HTM    C6313269  -0.320   7.609   7.142 -0.2565  0.2638 -0.9379
   13HTM    C6413270  -0.417   7.704   7.133 -0.2136  0.3131 -0.8868
   13HTM     S713271  -0.352   7.868   7.172 -0.2568  0.1939 -0.3060
   14TAL    C6513272  -0.345   7.461   7.129  0.4920  0.7361  0.6563
   14TAL    C6613273  -0.281   7.366   7.029  1.0406  0.7166  0.9803
   14TAL    C6713274  -0.343   7.381   6.894  0.5214 -0.9562 -0.8444
   14TAL    C6813275  -0.379   7.254   6.831  0.4758  0.4581  0.6166
   14TAL    C6913276  -0.451   7.260   6.706 -0.1616 -0.0237  1.5026
   14TAL    C7013277  -0.594   7.219   6.709  0.2177  0.1792 -0.7958
   15HTM    C7113278  -0.556   7.687   7.108 -0.3678 -0.1287  0.2221
   15HTM    C7213279  -0.670   7.739   7.161 -0.4258 -0.6565  0.6268
   15HTM    C7313280  -0.789   7.705   7.088 -0.4573 -0.7069  0.7013
   15HTM    C7413281  -0.766   7.627   6.979 -0.4233 -0.2176  0.3534
   15HTM     S813282  -0.591   7.590   6.959 -0.3484  0.3492 -0.0987
   16TAL    C7513283  -0.915   7.775   7.133  0.7229  0.1517  0.9527
   16TAL    C7613284  -0.925   7.919   7.082 -0.9545  0.5150  0.8789
   16TAL    C7713285  -1.047   7.972   7.127  0.3520 -0.9271 -0.2039
   16TAL    C7813286  -1.079   8.111   7.080  1.3791 -0.4884  0.3321
   16TAL    C7913287  -1.223   8.146   7.119 -0.1938  0.0210  0.5629
   16TAL    C8013288  -1.321   8.158   7.010 -0.5446 -0.1448  0.6853
   17HTM    C8113289  -0.869   7.595   6.879  0.3031  0.3960 -0.0554
   17HTM    C8213290  -0.951   7.486   6.876  0.4272  0.2857  0.4818
   17HTM    C8313291  -1.036   7.479   6.760  0.2296 -0.2353  0.6489
   17HTM    C8413292  -1.019   7.584   6.674 -0.0454 -0.5224  0.2391
   17HTM     S913293  -0.893   7.699   6.734 -0.0756 -0.1539 -0.3946
   18TAL    C8513294  -1.132   7.376   6.738  0.3942  0.7284 -0.5811
   18TAL    C8613295  -1.079   7.246   6.661  1.4751 -0.7325 -0.0705
   18TAL    C8713296  -1.196   7.143   6.669 -0.5198  1.2188  0.6745
   18TAL    C8813297  -1.121   7.000   6.650 -0.1488 -0.1196 -0.3841
   18TAL    C8913298  -1.214   6.879   6.653 -0.2401  0.3324 -0.7085
   18TAL    C9013299  -1.261   6.840   6.522 -0.3588 -0.2883 -0.2790
   19HTM    C9113300  -1.065   7.607   6.539 -0.2121 -0.6772 -0.5798
   19HTM    C9213301  -1.193   7.607   6.492 -0.1626 -0.5563 -0.7161
   19HTM    C9313302  -1.204   7.632   6.351 -0.0372  0.2162 -0.5962
   19HTM    C9413303  -1.083   7.652   6.290  0.0091  0.6843 -0.3685
   19HTM    S1013304  -0.947   7.639   6.407 -0.1028  0.1817 -0.2872
   20TAL    C9513305  -1.327   7.637   6.275 -0.6009 -0.0427  0.7418
   20TAL    C9613306  -1.460   7.649   6.343  0.9087  0.5729 -0.0436
   20TAL    C9713307  -1.548   7.719   6.238  0.4472  1.2114 -0.4397
   20TAL    C9813308  -1.650   7.781   6.335 -0.1934 -0.4213  0.6787
   20TAL    C9913309  -1.760   7.866   6.269  0.5715 -0.5067  0.2573
   20TAL   C10013310  -1.796   7.993   6.343 -0.0505  0.1329  0.3662
   21HTM   C10113311  -1.037   7.686   6.161  0.8512  0.4501  0.5260
   21HTM   C10213312  -0.945   7.618   6.086  1.2770  0.7346  0.7769
   21HTM   C10313313  -0.916   7.680   5.959  0.8032  0.4032  0.4990
   21HTM   C10413314  -0.985   7.795   5.937  0.0160 -0.1341  0.0363
   21HTM    S1113315  -1.093   7.836   6.076 -0.1898 -0.2639 -0.0854
   22TAL   C10513316  -0.815   7.634   5.854  0.1418 -0.0802 -0.0746
   22TAL   C10613317  -0.744   7.498   5.862 -0.4102 -0.0525 -0.6421
   22TAL   C10713318  -0.625   7.448   5.771  0.7027 -0.2891  0.0099
   22TAL   C10813319  -0.598   7.305   5.797 -0.1154 -0.2940  1.0058
   22TAL   C10913320  -0.491   7.269   5.694 -0.6475 -0.6750  0.4212
   22TAL   C11013321  -0.507   7.151   5.601  0.5873  0.5545 -0.2414
   23HTM   C11113322  -0.982   7.895   5.835  0.8443 -0.5539  0.1533
   23HTM   C11213323  -1.006   8.028   5.852  0.8595 -0.5949  0.5044
   23HTM   C11313324  -1.006   8.103   5.729  0.4804 -0.3355  0.6597
   23HTM   C11413325  -0.982   8.027   5.618  0.1761 -0.0972  0.4271
   23HTM    S1213326  -0.957   7.854   5.661  0.3462 -0.1824 -0.0096
   24TAL   C11513327  -1.022   8.262   5.720 -0.2838  0.1590 -0.2504
   24TAL   C11613328  -0.943   8.330   5.845  0.8379  0.2565 -0.2875
   24TAL   C11713329  -0.962   8.483   5.846  0.0012 -0.5709 -0.6536
   24TAL   C11813330  -0.909   8.562   5.725  0.2505 -0.1286  1.0534
   24TAL   C11913331  -0.867   8.701   5.758 -0.5770  1.0576  0.0124
   24TAL   C12013332  -0.751   8.706   5.653 -0.2919 -0.1405  0.3737
   25HTM   C12113333  -0.934   8.063   5.486 -0.4742 -0.1899  0.4358
   25HTM   C12213334  -0.812   8.113   5.455 -0.2921 -0.3493  0.8764
   25HTM   C12313335  -0.796   8.146   5.315  0.2344 -0.3192  0.9373
   25HTM   C12413336  -0.907   8.120   5.240  0.4539 -0.1374  0.5432
   25HTM    S1313337  -1.041   8.053   5.341  0.0094  0.0119  0.0609
   26TAL   C12513338  -0.665   8.147   5.247  0.1887  0.0269  0.0783
   26TAL   C12613339  -0.531   8.196   5.323 -0.7259  0.0221  1.3544
   26TAL   C12713340  -0.533   8.345   5.348 -0.1173 -0.1382  0.0995
   26TAL   C12813341  -0.568   8.444   5.235 -0.2023  0.8068 -0.3616
   26TAL   C12913342  -0.584   8.591   5.266 -0.6090  0.6550 -0.5742
   26TAL   C13013343  -0.449   8.670   5.295  0.9312  0.5402 -0.1728
   27HTM   C13113344  -0.931   8.139   5.098 -0.2274  0.7706 -0.0931
   27HTM   C13213345  -0.902   8.055   4.995  0.1719  0.5927  0.1611
   27HTM   C13313346  -0.932   8.109   4.865  0.3319  0.2298 -0.0314
   27HTM   C13413347  -0.984   8.235   4.869  0.0543  0.1310 -0.4323
   27HTM    S1413348  -1.000   8.295   5.039 -0.4345  0.4914 -0.5991
   28TAL   C13513349  -0.916   8.011   4.742 -0.6000  0.4830 -0.0237
   28TAL   C13613350  -1.040   7.983   4.658  0.4564  0.1101  0.8272
   28TAL   C13713351  -1.127   7.862   4.696 -0.5023  0.3732 -0.5013
   28TAL   C13813352  -1.225   7.885   4.816 -0.7813 -0.6164  0.4789
   28TAL   C13913353  -1.323   7.767   4.819  0.5347  0.2007 -0.0299
   28TAL   C14013354  -1.434   7.771   4.929  0.0747  0.1328 -0.0845
   29HTM   C14113355  -1.030   8.330   4.767 -0.3278  0.5058  0.1937
   29HTM   C14213356  -1.155   8.353   4.718 -0.3986  1.2465  0.6857
   29HTM   C14313357  -1.159   8.452   4.613 -0.2072  1.2040  0.6374
   29HTM   C14413358  -1.037   8.504   4.583  0.0086  0.4312  0.1088
   29HTM    S1513359  -0.907   8.432   4.684 -0.0122 -0.3085 -0.3727
   30TAL   C14513360  -1.286   8.475   4.544  0.6612  0.8216 -1.1245
   30TAL   C14613361  -1.316   8.368   4.444  0.8303  0.2820  0.2559
   30TAL   C14713362  -1.455   8.376   4.383  0.9938  0.2947  1.2234
   30TAL   C14813363  -1.492   8.494   4.286 -1.1101 -0.6853  0.3204
   30TAL   C14913364  -1.631   8.509   4.223  0.3875 -0.3209 -0.8816
   30TAL   C15013365  -1.681   8.384   4.152  0.2240  0.1228 -0.0267
   31HTM   C15113366  -0.982   8.591   4.478  0.5653  0.1913 -0.1339
   31HTM   C15213367  -1.037   8.698   4.415  0.9925  0.3958 -0.1678
   31HTM   C15313368  -0.955   8.751   4.309  1.2033  0.0272 -0.1938
   31HTM   C15413369  -0.837   8.685   4.292  0.9365 -0.4579 -0.1797
   31HTM    S1613370  -0.821   8.548   4.409  0.3944 -0.4876 -0.1324
   32TAL   C15513371  -1.037   8.838   4.208  0.2679  0.3558 -0.5960
   32TAL   C15613372  -1.187   8.857   4.222 -0.2205  0.1201 -0.0358
   32TAL   C15713373  -1.257   8.911   4.101 -0.5080 -0.2616 -0.2997
   32TAL   C15813374  -1.346   8.793   4.040  0.3998 -0.7164 -0.1671
   32TAL   C15913375  -1.457   8.847   3.946 -0.6843 -0.1327  0.1279
   32TAL   C16013376  -1.569   8.928   3.995  0.1287 -0.9433 -0.2034
   33HTM   C16113377  -0.731   8.696   4.201  0.1020  0.0251  0.1724
   33HTM   C16213378  -0.745   8.720   4.067  0.0119 -0.0162  0.1746
   33HTM   C16313379  -0.625   8.699   3.991 -0.0503 -0.0801  0.0943
   33HTM   C16413380  -0.519   8.658   4.066 -0.0084 -0.0871  0.0305
   33HTM    S1713381  -0.562   8.644   4.240  0.1148 -0.0135  0.0676
   34TAL   C16513382  -0.634   8.697   3.839 -0.2000  0.1784  0.8410
   34TAL   C16613383  -0.696   8.567   3.784  0.0133  0.0347 -0.5094
   34TAL   C16713384  -0.700   8.528   3.629  0.1435 -0.5622  0.0456
   34TAL   C16813385  -0.724   8.638   3.520 -0.0259 -0.6171 -0.2723
   34TAL   C16913386  -0.727   8.591   3.378 -0.1527 -0.3223 -0.1744
   34TAL   C17013387  -0.595   8.569   3.308 -0.2770 -0.7424 -0.6744
   35HTM   C17113388  -0.383   8.619   4.042 -0.3488  0.0103 -0.6736
   35HTM   C17213389  -0.290   8.569   4.129 -0.3436  0.6576 -0.2980
   35HTM   C17313390  -0.160   8.551   4.069 -0.0741  1.1654  0.1136
   35HTM   C17413391  -0.154   8.586   3.938  0.1256  0.9055  0.0518
   35HTM    S1813392  -0.314   8.645   3.878 -0.0114 -0.0078 -0.5356
   36TAL   C17513393  -0.044   8.486   4.156 -0.3793  0.7725  0.1929
   36TAL   C17613394  -0.066   8.431   4.301  1.0788  0.7342 -0.1499
   36TAL   C17713395  -0.171   8.321   4.327  0.5629  0.2579  0.1809
   36TAL   C17813396  -0.206   8.209   4.224  0.4038  0.8794 -1.9199
   36TAL   C17913397  -0.101   8.130   4.175 -0.4604  0.6931  0.1472
   36TAL   C18013398  -0.028   8.040   4.270  0.8527 -0.7688  1.0672
   37HTM   C18113399  -0.046   8.557   3.841  0.1399 -0.4094  0.4186
   37HTM   C18213400   0.085   8.591   3.855  0.0806 -0.3943  1.0047
   37HTM   C18313401   0.169   8.543   3.748  0.4957 -0.0563  1.1722
   37HTM   C18413402   0.102   8.471   3.653  0.8711  0.1869  0.7140
   37HTM    S1913403  -0.074   8.460   3.692  0.7289  0.0059  0.0299
   38TAL   C18513404   0.322   8.577   3.749  0.5085  0.7480  0.7704
   38TAL   C18613405   0.341   8.705   3.674 -0.2551 -0.4403 -0.3000
   38TAL   C18713406   0.480   8.762   3.647 -0.7786 -0.1934 -0.3605
   38TAL   C18813407   0.579   8.680   3.547 -0.8533 -0.4982  0.0864
   38TAL   C18913408   0.649   8.765   3.442 -0.0424 -0.3213 -0.0235
   38TAL   C19013409   0.782   8.834   3.462 -0.3307 -0.4553 -0.6727
   39HTM   C19113410   0.147   8.406   3.532  0.0512 -0.3039 -0.0750
   39HTM   C19213411   0.250   8.437   3.449 -0.0982 -0.0236 -0.1616
   39HTM   C19313412   0.257   8.354   3.331 -0.2950  0.3567 -0.4436
   39HTM   C19413413   0.158   8.261   3.324 -0.2956  0.3668 -0.5719
   39HTM    S2013414   0.048   8.270   3.467 -0.0458 -0.1077 -0.3449
   40TAL   C19513415   0.371   8.373   3.225 -0.0157 -0.0781  0.2943
   40TAL   C19613416   0.451   8.495   3.225 -1.0275 -0.2631 -0.4702
   40TAL   C19713417   0.513   8.498   3.081  0.0198 -0.7884  0.6140
   40TAL   C19813418   0.581   8.630   3.041  0.1641 -0.4894 -0.0526
   40TAL   C19913419   0.482   8.741   3.017 -0.6128  0.7444 -0.9558
   40TAL   C20013420   0.525   8.864   2.956  0.6645  1.3547  0.1725
   41HTM   C20113421   0.140   8.153   3.230  0.2983 -0.1435 -0.0447
   41HTM   C20213422   0.026   8.125   3.162  0.4302  0.1392 -0.3867
   41HTM   C20313423   0.034   8.003   3.085  0.4192  0.2151 -0.5090
   41HTM   C20413424   0.154   7.939   3.096  0.2789 -0.0099 -0.2601
   41HTM    S2113425   0.267   8.028   3.204  0.1488 -0.3376  0.1510
   42TAL   C20513426  -0.086   7.955   3.001 -0.2775  0.6659 -0.4035
   42TAL   C20613427  -0.131   8.046   2.892 -0.7829 -0.2268  0.7411
   42TAL   C20713428  -0.045   8.061   2.767 -0.1887  0.5529  0.0185
   42TAL   C20813429  -0.121   8.177   2.694  0.2167  0.0822  0.5773
   42TAL   C20913430  -0.086   8.231   2.553  1.0361 -0.7293  0.4642
   42TAL   C21013431  -0.111   8.123   2.448 -0.1859 -0.8212 -0.1320
   43HTM   C21113432   0.203   7.819   3.029 -0.0419 -0.2791 -0.1543
   43HTM   C21213433   0.137   7.700   3.031  0.3963 -0.5248  0.1958
   43HTM   C21313434   0.212   7.592   2.973  0.5927 -0.3040  0.0316
   43HTM   C21413435   0.335   7.628   2.928  0.3044  0.1101 -0.4437
   43HTM    S2213436   0.366   7.804   2.955 -0.2419  0.2545 -0.7230
   44TAL   C21513437   0.141   7.463   2.957 -1.0846  0.3397 -0.3014
   44TAL   C21613438   0.029   7.464   2.844 -0.7087 -0.8033  0.8858
   44TAL   C21713439   0.083   7.483   2.698  0.5060 -0.1983 -0.0244
   44TAL   C21813440   0.118   7.337   2.659 -0.2019  0.4864  1.0641
   44TAL   C21913441   0.185   7.332   2.516 -0.5494 -1.0536  0.2012
   44TAL   C22013442   0.205   7.185   2.470  0.3058 -0.2899  0.1569
   45HTM   C22113443   0.444   7.541   2.887 -0.6008 -0.3713 -1.0171
   45HTM   C22213444   0.525   7.559   2.779 -0.8551 -0.6397 -1.2561
   45HTM   C22313445   0.610   7.446   2.751 -0.4745 -0.4736 -0.7910
   45HTM   C22413446   0.594   7.342   2.838  0.0700 -0.0787 -0.1974
   45HTM    S2313447   0.468   7.379   2.962  0.1448  0.1155 -0.1796
   46TAL   C22513448   0.705   7.467   2.644 -0.2669 -0.5611 -0.1672
   46TAL   C22613449   0.854   7.418   2.642  0.0593 -0.1227 -0.4368
   46TAL   C22713450   0.933   7.461   2.767 -0.0858 -0.5521  0.2427
   46TAL   C22813451   1.071   7.407   2.785  0.7121 -0.0822 -0.1253
   46TAL   C22913452   1.170   7.470   2.893  0.3426 -0.5465 -0.4669
   46TAL   C23013453   1.234   7.609   2.869  0.1758 -0.5224 -0.3622
   47HTM   C23113454   0.652   7.208   2.842 -0.2283 -0.0867 -0.1686
   47HTM   C23213455   0.657   7.112   2.745 -0.5484 -0.2894  0.0123
   47HTM   C23313456   0.717   6.989   2.788 -0.6998 -0.3107  0.1634
   47HTM   C23413457   0.758   6.990   2.918 -0.4951 -0.1242  0.0976
   47HTM    S2413458   0.724   7.149   2.996 -0.0921  0.0944 -0.1623
   48TAL   C23513459   0.770   6.876   2.699 -0.0564 -0.4276  0.3546
   48TAL   C23613460   0.814   6.737   2.742  0.9818  0.3802 -0.7071
   48TAL   C23713461   0.874   6.661   2.630  0.5114 -0.2439 -1.1742
   48TAL   C23813462   0.894   6.513   2.648 -0.2650  0.0908 -0.2639
   48TAL   C23913463   0.950   6.445   2.766  0.4081  0.8803 -0.1288
   48TAL   C24013464   1.062   6.515   2.844 -0.4324 -0.0771 -0.2084
    1HTM     C113465   8.232   4.157   7.431  0.1595  0.0871 -0.2271
    1HTM     C213466   8.134   4.135   7.524  0.4184 -0.0356  0.0211
    1HTM     C313467   8.019   4.066   7.472  0.4215 -0.2832  0.3402
    1HTM     C413468   8.029   4.034   7.340  0.1648 -0.3494  0.3353
    1HTM     S113469   8.186   4.090   7.270 -0.1027 -0.1018 -0.0759
    2TAL     C513470   7.911   4.023   7.568  0.7989  0.9634 -0.3616
    2TAL     C613471   7.954   3.929   7.679  0.7185 -1.3173  0.9722
    2TAL     C713472   7.842   3.870   7.765 -0.0060  0.0634 -0.4741
    2TAL     C813473   7.871   3.914   7.906 -0.7224 -0.0079  0.0379
    2TAL     C913474   7.747   3.906   7.995  0.2933  0.6039 -0.3202
    2TAL    C1013475   7.772   3.915   8.146  0.2643  0.6006 -0.0628
    3HTM    C1113476   7.924   3.977   7.249 -0.3535  0.0725 -0.0695
    3HTM    C1213477   7.915   4.000   7.115 -0.4708  0.0906 -0.0582
    3HTM    C1313478   7.811   3.925   7.050 -0.2775 -0.1882 -0.0454
    3HTM    C1413479   7.741   3.843   7.135 -0.0130 -0.4187 -0.0472
    3HTM     S213480   7.802   3.856   7.304  0.0129 -0.3009 -0.0651
    4TAL    C1513481   7.798   3.944   6.906  0.8850 -0.9772 -0.2618
    4TAL    C1613482   7.721   4.064   6.860 -0.1400  0.7373 -0.1742
    4TAL    C1713483   7.767   4.101   6.727 -0.5676  0.7003 -0.9757
    4TAL    C1813484   7.695   4.213   6.664 -0.2859  0.4500  0.5765
    4TAL    C1913485   7.747   4.269   6.531 -0.3288  1.0590 -0.6131
    4TAL    C2013486   7.762   4.175   6.403  0.0676  0.5095 -0.3075
    5HTM    C2113487   7.619   3.767   7.130  0.1079  0.5851  0.5561
    5HTM    C2213488   7.575   3.701   7.020  0.8689  0.3426  0.3839
    5HTM    C2313489   7.445   3.640   7.037  1.2168 -0.5448 -0.0256
    5HTM    C2413490   7.391   3.660   7.160  0.7208 -0.9791 -0.1655
    5HTM     S313491   7.500   3.758   7.265 -0.2312 -0.2956  0.2119
    6TAL    C2513492   7.376   3.574   6.919  0.8130 -0.3443  0.9402
    6TAL    C2613493   7.440   3.443   6.886 -0.5790 -0.0546  0.0654
    6TAL    C2713494   7.366   3.386   6.768  0.9847 -0.4780  1.1672
    6TAL    C2813495   7.417   3.242   6.728  0.6700  0.3864  0.2222
    6TAL    C2913496   7.301   3.146   6.707 -1.0224 -0.3031 -0.5641
    6TAL    C3013497   7.343   3.015   6.640  0.6819 -0.2839  0.4803
    7HTM    C3113498   7.255   3.644   7.206  0.6843  0.4882  0.7503
    7HTM    C3213499   7.156   3.735   7.232  0.8289  0.5913  0.9551
    7HTM    C3313500   7.044   3.679   7.302  0.4916  0.4692  0.3364
    7HTM    C3413501   7.057   3.546   7.331  0.0897  0.2729 -0.3397
    7HTM     S413502   7.214   3.481   7.270  0.1064  0.2267 -0.2471
    8TAL    C3513503   6.937   3.771   7.350  0.8578  0.0583 -0.4915
    8TAL    C3613504   6.923   3.913   7.292  0.0326 -0.1221  0.7746
    8TAL    C3713505   6.790   3.977   7.312 -0.2204 -0.2905 -0.2548
    8TAL    C3813506   6.665   3.914   7.256 -0.6121  0.4251  0.1384
    8TAL    C3913507   6.662   3.885   7.104 -0.3023 -0.2619  0.3996
    8TAL    C4013508   6.532   3.824   7.053  0.7477  0.6578  0.0214
    9HTM    C4113509   6.974   3.452   7.403 -0.1066 -0.0910  0.0575
    9HTM    C4213510   6.838   3.444   7.388 -0.0814 -0.3434 -0.0489
    9HTM    C4313511   6.781   3.325   7.445  0.0793 -0.3840  0.0315
    9HTM    C4413512   6.872   3.242   7.502  0.1765 -0.1625  0.1997
    9HTM     S513513   7.039   3.308   7.490  0.0720  0.1166  0.2697
   10TAL    C4513514   6.631   3.293   7.453 -0.0286  0.2984  0.2771
   10TAL    C4613515   6.524   3.380   7.385  0.2561 -0.4862  0.9570
   10TAL    C4713516   6.379   3.364   7.434  0.5871  0.5440  0.0841
   10TAL    C4813517   6.348   3.392   7.578  0.2281 -0.6241  0.4955
   10TAL    C4913518   6.197   3.358   7.603 -0.8675 -0.4833 -0.6116
   10TAL    C5013519   6.098   3.448   7.685  0.3066  0.1991  0.3000
   11HTM    C5113520   6.860   3.114   7.569  0.0493 -0.1053 -0.2932
   11HTM    C5213521   6.931   3.084   7.681  0.1155  0.0287 -0.2987
   11HTM    C5313522   6.898   2.956   7.738 -0.0091  0.1938  0.0015
   11HTM    C5413523   6.801   2.889   7.669 -0.1706  0.1857  0.2362
   11HTM     S613524   6.744   2.983   7.526 -0.1778 -0.0328  0.0948
   12TAL    C5513525   6.970   2.919   7.864 -0.6411  0.4650  0.8269
   12TAL    C5613526   6.937   2.999   7.988  0.9885 -0.9137 -0.2284
   12TAL    C5713527   6.779   3.009   8.008  0.1047 -0.7904 -0.6407
   12TAL    C5813528   6.712   2.886   8.071  0.3934 -0.6082  0.5296
   12TAL    C5913529   6.713   2.893   8.218 -1.1295 -0.1493 -0.2882
   12TAL    C6013530   6.579   2.937   8.263  0.4179  0.3892 -0.0315
   13HTM    C6113531   6.739   2.760   7.711 -0.4869  0.3696  0.2404
   13HTM    C6213532   6.784   2.668   7.801 -0.5552  0.7405  0.6620
   13HTM    C6313533   6.698   2.553   7.814 -0.2314  0.4884  0.5882
   13HTM    C6413534   6.588   2.558   7.733  0.0836 -0.0747  0.1103
   13HTM     S713535   6.584   2.709   7.635 -0.0047 -0.3321 -0.2866
   14TAL    C6513536   6.763   2.446   7.906  0.8098  0.4558  0.9340
   14TAL    C6613537   6.681   2.387   8.029  0.5536  0.3749  0.6664
   14TAL    C6713538   6.643   2.486   8.141 -0.7802  0.1416  0.3207
   14TAL    C6813539   6.508   2.464   8.212 -0.4017 -1.2895  0.6829
   14TAL    C6913540   6.463   2.584   8.296 -0.9261 -0.2446  0.1473
   14TAL    C7013541   6.371   2.527   8.398 -0.0401 -0.1235  0.3793
   15HTM    C7113542   6.484   2.456   7.714  0.4013  0.1728 -0.1864
   15HTM    C7213543   6.358   2.489   7.674  0.2859  0.3650  0.3228
   15HTM    C7313544   6.277   2.375   7.639 -0.0302  0.4876  0.6312
   15HTM    C7413545   6.342   2.256   7.651 -0.1557  0.3889  0.3569
   15HTM     S813546   6.512   2.278   7.709  0.1175  0.1315 -0.3172
   16TAL    C7513547   6.134   2.390   7.595  0.5109  0.4783  0.2483
   16TAL    C7613548   6.067   2.518   7.637  0.6217 -0.4505 -0.7054
   16TAL    C7713549   5.920   2.517   7.626  0.1401 -0.1632  0.0623
   16TAL    C7813550   5.855   2.659   7.618 -0.3817  1.2063  1.2251
   16TAL    C7913551   5.927   2.769   7.532 -0.0855 -0.5257  0.9195
   16TAL    C8013552   5.888   2.899   7.612 -0.6316  0.1893 -0.7213
   17HTM    C8113553   6.301   2.116   7.638  0.0415 -0.1638 -1.0778
   17HTM    C8213554   6.229   2.052   7.541  0.4687 -0.5087 -1.1740
   17HTM    C8313555   6.224   1.909   7.557  0.6095 -0.4763 -0.8258
   17HTM    C8413556   6.293   1.863   7.666  0.2897 -0.1067 -0.4640
   17HTM     S913557   6.369   1.999   7.757 -0.2180  0.2317 -0.5356
   18TAL    C8513558   6.169   1.810   7.458  0.2918 -0.5173 -0.6901
   18TAL    C8613559   6.157   1.867   7.319  0.1870  0.9148 -0.0244
   18TAL    C8713560   6.103   1.758   7.223 -0.4320  0.2748 -0.0579
   18TAL    C8813561   6.221   1.688   7.152  0.1247 -0.3886 -0.8599
   18TAL    C8913562   6.163   1.578   7.065  0.5191 -0.6705  1.0045
   18TAL    C9013563   6.265   1.532   6.950  0.7965 -0.1288  0.1077
   19HTM    C9113564   6.306   1.728   7.720  0.0780  0.1638 -0.0569
   19HTM    C9213565   6.393   1.697   7.820 -0.0389 -0.1042 -0.0356
   19HTM    C9313566   6.380   1.562   7.869 -0.2379 -0.1709 -0.2680
   19HTM    C9413567   6.282   1.490   7.807 -0.2731  0.0462 -0.4664
   19HTM    S1013568   6.198   1.588   7.680 -0.0556  0.3542 -0.3745
   20TAL    C9513569   6.467   1.501   7.976 -0.1514 -0.8855 -0.1972
   20TAL    C9613570   6.606   1.517   7.941 -1.3532 -1.1499 -0.4882
   20TAL    C9713571   6.688   1.423   8.021 -0.0936 -0.4516 -0.3999
   20TAL    C9813572   6.683   1.280   7.984 -0.1401 -0.0608  0.3571
   20TAL    C9913573   6.812   1.197   8.012  0.8272  0.2721  0.6440
   20TAL   C10013574   6.790   1.055   7.990 -0.1621  0.0587  2.0409
   21HTM   C10113575   6.235   1.352   7.833 -0.3604  0.0224  1.2289
   21HTM   C10213576   6.103   1.318   7.833 -0.4530  0.2742  2.6463
   21HTM   C10313577   6.080   1.177   7.851 -0.5238  0.2944  2.7170
   21HTM   C10413578   6.195   1.104   7.864 -0.4851  0.0580  1.3535
   21HTM    S1113579   6.342   1.209   7.855 -0.3552 -0.2106 -0.1371
   22TAL   C10513580   5.942   1.121   7.843  0.4188  0.2778 -0.9524
   22TAL   C10613581   5.821   1.204   7.807  0.0462 -0.7653 -0.1793
   22TAL   C10713582   5.690   1.144   7.755 -0.2692  0.4404 -0.7783
   22TAL   C10813583   5.588   1.085   7.858  0.7819 -0.5082  0.9110
   22TAL   C10913584   5.550   1.160   7.981 -0.5938  0.4291 -0.5635
   22TAL   C11013585   5.407   1.118   8.022 -0.5182 -0.1782  0.2204
   23HTM   C11113586   6.227   0.963   7.876 -0.7880 -0.2051 -0.5140
   23HTM   C11213587   6.344   0.900   7.847 -0.7328 -0.1744 -0.3644
   23HTM   C11313588   6.339   0.757   7.864 -0.5517 -0.1212  0.1532
   23HTM   C11413589   6.218   0.711   7.907 -0.4687 -0.1115  0.3984
   23HTM    S1213590   6.100   0.846   7.929 -0.6141 -0.1692 -0.0084
   24TAL   C11513591   6.456   0.671   7.823  0.1530  0.4377  0.2579
   24TAL   C11613592   6.579   0.702   7.738 -0.4340 -0.8220 -0.0318
   24TAL   C11713593   6.610   0.590   7.652 -1.4239  0.2754 -0.8689
   24TAL   C11813594   6.761   0.554   7.683 -0.2369  0.0835 -0.5283
   24TAL   C11913595   6.776   0.434   7.579 -0.3591 -0.1837 -0.7234
   24TAL   C12013596   6.919   0.386   7.582 -0.0579  0.2413  0.3874
   25HTM   C12113597   6.176   0.578   7.926  0.2038 -0.6464  0.2916
   25HTM   C12213598   6.250   0.485   7.993 -0.1404 -1.2880 -0.1966
   25HTM   C12313599   6.174   0.373   8.041 -0.6244 -1.0918 -0.4900
   25HTM   C12413600   6.041   0.380   8.012 -0.6491 -0.3007 -0.2254
   25HTM    S1313601   6.002   0.531   7.920 -0.0584  0.2623  0.4200
   26TAL   C12513602   6.252   0.271   8.125  0.0081 -0.9482 -0.4957
   26TAL   C12613603   6.313   0.163   8.049  0.5623 -0.0871  1.0160
   26TAL   C12713604   6.403   0.061   8.116  0.2899 -0.2177 -0.0937
   26TAL   C12813605   6.548   0.102   8.103 -0.1077  1.0213 -0.3344
   26TAL   C12913606   6.619  -0.005   8.184  0.2271 -0.8639 -0.2845
   26TAL   C13013607   6.766  -0.046   8.147  1.1879 -0.1903 -0.4821
   27HTM   C13113608   5.930   0.303   8.073  0.5415  0.2947 -0.4255
   27HTM   C13213609   5.805   0.348   8.105  0.7724  0.7454 -0.1364
   27HTM   C13313610   5.722   0.248   8.167  0.5664  1.0544  0.0868
   27HTM   C13413611   5.783   0.127   8.183  0.1783  0.8392 -0.0322
   27HTM    S1413612   5.952   0.130   8.120  0.0419  0.2248 -0.4384
   28TAL   C13513613   5.578   0.261   8.203  1.1037 -0.6771 -0.2460
   28TAL   C13613614   5.520   0.396   8.178 -1.1232 -0.2039 -0.7808
   28TAL   C13713615   5.380   0.428   8.237 -0.3704  0.0628 -0.6227
   28TAL   C13813616   5.313   0.536   8.163  0.3687 -0.6751  0.7146
   28TAL   C13913617   5.236   0.471   8.047  0.0476 -0.9951 -0.2679
   28TAL   C14013618   5.139   0.575   7.988 -0.0439 -0.0180  0.4507
   29HTM   C14113619   5.743   0.004   8.254  0.2625  0.1033  0.0591
   29HTM   C14213620   5.675  -0.021   8.369  0.2179  0.0327  0.0179
   29HTM   C14313621   5.649  -0.161   8.392 -0.1215  0.0451 -0.2668
   29HTM   C14413622   5.698  -0.243   8.295 -0.3353  0.1251 -0.4423
   29HTM    S1513623   5.780  -0.149   8.165 -0.1234  0.1913 -0.2606
   30TAL   C14513624   5.540  -0.173   8.503  0.4902  0.7664 -0.0464
   30TAL   C14613625   5.600  -0.141   8.640  0.7511 -0.4375 -0.4083
   30TAL   C14713626   5.680  -0.255   8.702 -0.5482  0.2772  0.1237
   30TAL   C14813627   5.751  -0.206   8.828  0.2487 -0.6795 -0.8280
   30TAL   C14913628   5.786  -0.299   8.940  0.2648  0.0731  0.1781
   30TAL   C15013629   5.868  -0.237   9.053 -0.2020 -0.3385 -0.2330
   31HTM   C15113630   5.701  -0.384   8.290  0.5566 -0.7747 -0.1632
   31HTM   C15213631   5.777  -0.473   8.358  0.9055 -1.1401 -1.0026
   31HTM   C15313632   5.755  -0.610   8.320  0.8543 -0.9341 -1.7340
   31HTM   C15413633   5.661  -0.625   8.222  0.4662 -0.4119 -1.4524
   31HTM    S1613634   5.593  -0.466   8.170  0.1327 -0.1377 -0.2318
   32TAL   C15513635   5.824  -0.728   8.382  0.7140  0.3802 -0.6521
   32TAL   C15613636   5.792  -0.782   8.525  0.7264 -0.5467  0.8677
   32TAL   C15713637   5.643  -0.839   8.545  0.0487 -0.0893 -0.5028
   32TAL   C15813638   5.520  -0.752   8.519 -0.0040  0.2539 -0.5789
   32TAL   C15913639   5.385  -0.809   8.488 -0.0833  0.0067 -0.0275
   32TAL   C16013640   5.314  -0.861   8.619  0.2865  0.4186  0.0877
   33HTM   C16113641   5.606  -0.741   8.154 -0.1220 -0.3687  0.7794
   33HTM   C16213642   5.660  -0.866   8.142 -0.4903 -0.5581  1.0371
   33HTM   C16313643   5.572  -0.962   8.080 -0.5057 -0.2310  0.5391
   33HTM   C16413644   5.451  -0.910   8.046 -0.1491  0.2076 -0.0981
   33HTM    S1713645   5.438  -0.735   8.088  0.2367  0.2418 -0.1189
   34TAL   C16513646   5.624  -1.105   8.059  0.0983  0.6533  0.0971
   34TAL   C16613647   5.617  -1.198   8.176 -0.6007  0.5725 -0.7136
   34TAL   C16713648   5.634  -1.351   8.138  1.2286  0.4475  0.1598
   34TAL   C16813649   5.745  -1.399   8.038 -0.1313  0.7418 -1.4700
   34TAL   C16913650   5.741  -1.543   7.987 -1.1372  0.9122  0.2996
   34TAL   C17013651   5.755  -1.662   8.083  0.7410 -0.0816  0.2449
   35HTM   C17113652   5.332  -0.980   8.000  0.5637  0.1803  0.1506
   35HTM   C17213653   5.217  -1.004   8.069  0.6174  0.5946  0.3936
   35HTM   C17313654   5.112  -1.060   7.988  0.3289  0.7327  0.6704
   35HTM   C17413655   5.146  -1.078   7.858  0.0551  0.4243  0.6380
   35HTM    S1813656   5.316  -1.026   7.826  0.1412 -0.0686  0.2529
   36TAL   C17513657   4.976  -1.092   8.051  0.1229 -1.0550 -0.9138
   36TAL   C17613658   4.925  -1.004   8.164 -1.1409 -0.5236  0.2856
   36TAL   C17713659   4.792  -1.054   8.206 -0.3586  0.6550 -0.4187
   36TAL   C17813660   4.742  -0.995   8.336  0.5271  0.1869  0.6650
   36TAL   C17913661   4.621  -1.069   8.384 -0.3339 -0.1762  0.1057
   36TAL   C18013662   4.503  -0.976   8.380  0.5772  0.1570  0.7479
   37HTM   C18113663   5.073  -1.120   7.742 -0.0461  0.4915 -0.3828
   37HTM   C18213664   5.092  -1.061   7.620 -0.0696 -0.0064 -0.6293
   37HTM   C18313665   4.979  -1.074   7.531 -0.0924 -0.3586 -0.5530
   37HTM   C18413666   4.874  -1.142   7.586 -0.0862 -0.1290 -0.2484
   37HTM    S1913667   4.909  -1.195   7.754 -0.0509  0.5548 -0.0326
   38TAL   C18513668   4.978  -1.006   7.396  0.7048  0.6724  0.5500
   38TAL   C18613669   5.031  -0.861   7.395 -0.6281  0.8262 -0.7656
   38TAL   C18713670   4.988  -0.776   7.277 -0.0271 -0.4493 -1.4826
   38TAL   C18813671   5.063  -0.808   7.150  1.0335  0.3829  0.6226
   38TAL   C18913672   4.981  -0.738   7.042 -0.6577  0.9427  0.6700
   38TAL   C19013673   5.030  -0.747   6.899 -0.3398  0.6396  0.0256
   39HTM   C19113674   4.740  -1.176   7.540  0.0092 -0.0396 -0.3822
   39HTM   C19213675   4.655  -1.271   7.588 -0.0134  0.0873 -0.1650
   39HTM   C19313676   4.536  -1.288   7.508 -0.2434  0.2627  0.1374
   39HTM   C19413677   4.530  -1.205   7.400 -0.3966  0.2695  0.1508
   39HTM    S2013678   4.676  -1.099   7.390 -0.2610  0.0535 -0.2204
   40TAL   C19513679   4.434  -1.397   7.537  0.3665  0.3890 -0.3706
   40TAL   C19613680   4.326  -1.358   7.633  0.0946 -0.6389 -0.5153
   40TAL   C19713681   4.294  -1.461   7.745 -0.4760  0.3097  0.4208
   40TAL   C19813682   4.147  -1.453   7.787 -0.2678 -0.1109 -0.0342
   40TAL   C19913683   4.111  -1.549   7.897 -0.5946  0.3107  0.3409
   40TAL   C20013684   3.962  -1.548   7.897 -0.4496  0.3924  0.1967
   41HTM   C20113685   4.426  -1.194   7.296  0.0407 -0.6387 -0.2463
   41HTM   C20213686   4.291  -1.193   7.312  0.0575 -0.8965 -0.0694
   41HTM   C20313687   4.219  -1.167   7.190 -0.1366 -0.6025  0.1070
   41HTM   C20413688   4.299  -1.147   7.082 -0.3014 -0.1207  0.0647
   41HTM    S2113689   4.474  -1.162   7.125 -0.2234 -0.0001 -0.2034
   42TAL   C20513690   4.067  -1.137   7.193 -0.0689 -0.4360  0.4112
   42TAL   C20613691   3.988  -1.268   7.194 -0.6363 -0.0707  0.2827
   42TAL   C20713692   3.972  -1.336   7.059  0.2007  0.3268 -0.5236
   42TAL   C20813693   3.961  -1.489   7.054  0.1220 -0.2835  0.8576
   42TAL   C20913694   3.933  -1.559   6.917 -0.6376 -0.6283  0.8947
   42TAL   C21013695   3.806  -1.540   6.832 -0.6833  0.1614 -0.2932
   43HTM   C21113696   4.261  -1.115   6.945 -0.7077 -0.1205  0.0304
   43HTM   C21213697   4.207  -1.001   6.892 -0.5910 -0.1388 -0.1292
   43HTM   C21313698   4.201  -1.002   6.748  0.2482  0.0460 -0.1745
   43HTM   C21413699   4.250  -1.116   6.691  0.7714  0.2054 -0.0497
   43HTM    S2213700   4.309  -1.232   6.816  0.2407  0.1338  0.1365
   44TAL   C21513701   4.163  -0.872   6.675  0.4337  1.0243  0.0707
   44TAL   C21613702   4.137  -0.741   6.752  0.4969 -0.4762 -0.7677
   44TAL   C21713703   4.010  -0.717   6.850 -0.0812  0.4174  0.7235
   44TAL   C21813704   3.864  -0.701   6.798  0.3709  0.2043 -0.5681
   44TAL   C21913705   3.841  -0.576   6.710  0.3337 -0.3964 -0.3695
   44TAL   C22013706   3.693  -0.554   6.672 -0.1903  0.0670 -0.0927
   45HTM   C22113707   4.259  -1.165   6.561 -0.5298 -0.4040 -0.4219
   45HTM   C22213708   4.313  -1.284   6.523 -1.1349 -0.6108 -0.6654
   45HTM   C22313709   4.325  -1.300   6.380 -1.3306 -0.4301 -0.7024
   45HTM   C22413710   4.279  -1.193   6.309 -0.8745 -0.0859 -0.4873
   45HTM    S2313711   4.218  -1.063   6.418 -0.1571  0.0383 -0.2191
   46TAL   C22513712   4.374  -1.429   6.318  0.1641 -1.0307 -0.9061
   46TAL   C22613713   4.268  -1.537   6.307 -0.2023 -1.3443  0.0236
   46TAL   C22713714   4.203  -1.596   6.435 -1.1942  0.7567  0.2077
   46TAL   C22813715   4.284  -1.719   6.501  0.6107 -0.0659  0.2193
   46TAL   C22913716   4.213  -1.756   6.637 -0.2694 -0.4174  0.5819
   46TAL   C23013717   4.277  -1.867   6.724  0.6951 -0.9710  0.6148
   47HTM   C23113718   4.282  -1.172   6.166 -0.0996  0.0078 -0.0326
   47HTM   C23213719   4.191  -1.209   6.073  0.2023 -0.4764 -0.1463
   47HTM   C23313720   4.228  -1.173   5.938  0.4150 -0.7465 -0.1621
   47HTM   C23413721   4.348  -1.109   5.930  0.2750 -0.4678 -0.0606
   47HTM    S2413722   4.424  -1.089   6.092 -0.1393  0.1619  0.0639
   48TAL   C23513723   4.133  -1.212   5.825 -0.1237  0.2084 -0.0301
   48TAL   C23613724   4.155  -1.204   5.678 -0.4116  0.8443  0.6570
   48TAL   C23713725   4.099  -1.313   5.586 -0.1782  0.2891  0.1632
   48TAL   C23813726   4.116  -1.462   5.637 -0.5050  0.7562  1.7561
   48TAL   C23913727   4.020  -1.539   5.719 -0.2304  0.1251  0.6734
   48TAL   C24013728   3.876  -1.572   5.669 -0.2637 -0.5966 -1.0766
    1HTM     C113729   6.910   2.729   0.280  0.0792  0.1986 -0.2079
    1HTM     C213730   6.938   2.602   0.239  0.0730  0.3214 -0.5937
    1HTM     C313731   6.823   2.529   0.194  0.0085  0.3319 -0.4466
    1HTM     C413732   6.706   2.599   0.201 -0.0347  0.2173  0.0515
    1HTM     S113733   6.734   2.766   0.266  0.0034  0.0861  0.3757
    2TAL     C513734   6.856   2.376   0.147  0.0171 -0.9411  0.0653
    2TAL     C613735   6.892   2.269   0.251 -0.9971 -0.1901  0.2817
    2TAL     C713736   6.777   2.254   0.352  0.9879  0.1255  0.9798
    2TAL     C813737   6.764   2.123   0.427 -0.1310 -0.8444 -0.0786
    2TAL     C913738   6.760   1.994   0.344  0.3091  0.0213  0.2593
    2TAL    C1013739   6.619   1.986   0.274 -0.0622  0.5091 -0.9215
    3HTM    C1113740   6.568   2.539   0.201 -0.0366 -0.3172  0.0905
    3HTM    C1213741   6.506   2.475   0.098  0.0772 -0.3052  0.0132
    3HTM    C1313742   6.376   2.422   0.133 -0.0881 -0.0539 -0.2185
    3HTM    C1413743   6.340   2.447   0.262 -0.3280  0.1257 -0.3178
    3HTM     S213744   6.468   2.538   0.350 -0.3638 -0.0098 -0.1250
    4TAL    C1513745   6.298   2.346   0.019 -1.7385 -0.5906 -0.9543
    4TAL    C1613746   6.143   2.373   0.013 -0.6858  0.0494 -0.3798
    4TAL    C1713747   6.059   2.246  -0.037  1.8825 -0.3369 -0.0611
    4TAL    C1813748   5.910   2.303  -0.054 -0.0560  0.3300 -0.2023
    4TAL    C1913749   5.813   2.194  -0.102  0.2694  0.2555 -0.2360
    4TAL    C2013750   5.730   2.227  -0.223 -0.0450 -1.7930 -0.3163
    5HTM    C2113751   6.222   2.417   0.342 -0.2597 -0.4020  0.2473
    5HTM    C2213752   6.146   2.503   0.417 -0.1404 -0.5289  0.5154
    5HTM    C2313753   6.031   2.441   0.477  0.0243 -0.6596  0.6987
    5HTM    C2413754   6.019   2.308   0.448  0.0308 -0.6325  0.5704
    5HTM     S313755   6.153   2.251   0.342 -0.1726 -0.4382  0.2052
    6TAL    C2513756   5.932   2.523   0.570  0.3792  0.8544 -0.3798
    6TAL    C2613757   5.885   2.665   0.524  0.1646  1.0571 -0.6854
    6TAL    C2713758   5.801   2.672   0.404  0.4141  0.0512 -0.0419
    6TAL    C2813759   5.760   2.816   0.381  0.9644  0.7191 -1.0457
    6TAL    C2913760   5.689   2.812   0.252 -0.3575 -0.3483  0.4265
    6TAL    C3013761   5.630   2.940   0.221  0.5398  0.1731 -0.0425
    7HTM    C3113762   5.908   2.224   0.487  0.1912  0.3854 -0.4218
    7HTM    C3213763   5.871   2.189   0.614  0.0007  1.2218 -0.2342
    7HTM    C3313764   5.761   2.095   0.618 -0.1121  1.3689  0.2303
    7HTM    C3413765   5.715   2.059   0.495 -0.0074  0.6446  0.3969
    7HTM     S413766   5.807   2.141   0.363  0.2435 -0.2865 -0.0233
    8TAL    C3513767   5.725   2.028   0.746  0.9208 -0.1856 -0.3394
    8TAL    C3613768   5.686   2.115   0.868  0.7970  0.0153 -0.0092
    8TAL    C3713769   5.640   2.049   1.003 -0.4384  0.4479  0.1541
    8TAL    C3813770   5.622   1.901   1.031 -0.1759 -0.6689 -0.3516
    8TAL    C3913771   5.557   1.886   1.161 -0.0459  0.1242 -0.2901
    8TAL    C4013772   5.407   1.891   1.156  0.2701  0.7969  0.2011
    9HTM    C4113773   5.619   1.961   0.440 -0.4496  0.6818 -0.5802
    9HTM    C4213774   5.659   1.860   0.358 -0.4119  0.7205 -0.6091
    9HTM    C4313775   5.572   1.745   0.359 -0.0672  0.4562 -0.2126
    9HTM    C4413776   5.465   1.759   0.443  0.1577  0.2160  0.1186
    9HTM     S513777   5.466   1.918   0.527 -0.0499  0.3057 -0.0458
   10TAL    C4513778   5.599   1.607   0.285 -0.2151 -0.1476 -0.2873
   10TAL    C4613779   5.683   1.626   0.161  0.3658  0.1636 -0.0499
   10TAL    C4713780   5.569   1.619   0.051 -0.3631 -0.9106  0.3423
   10TAL    C4813781   5.626   1.582  -0.084 -0.8012  0.4585  0.3864
   10TAL    C4913782   5.544   1.495  -0.178 -0.0102  0.3064 -0.6719
   10TAL    C5013783   5.629   1.435  -0.284  0.0028 -0.0739  0.3235
   11HTM    C5113784   5.344   1.680   0.449 -0.4311  0.8243 -0.8143
   11HTM    C5213785   5.259   1.687   0.556 -0.5499  0.7720 -0.9058
   11HTM    C5313786   5.141   1.606   0.540 -0.1590  0.1528 -0.7369
   11HTM    C5413787   5.136   1.537   0.423  0.2580 -0.2671 -0.5166
   11HTM     S613788   5.281   1.570   0.321  0.1886  0.0898 -0.5052
   12TAL    C5513789   5.034   1.642   0.650  0.1094 -0.2135  0.1369
   12TAL    C5613790   4.927   1.744   0.621  0.9101  0.3207  0.4773
   12TAL    C5713791   4.826   1.767   0.741 -0.0515 -0.2822 -0.5102
   12TAL    C5813792   4.754   1.652   0.809  1.5450 -0.5106 -0.2901
   12TAL    C5913793   4.687   1.701   0.937 -1.0019  1.1144  0.1721
   12TAL    C6013794   4.662   1.591   1.042 -0.1544  0.2420 -0.4397
   13HTM    C6113795   5.041   1.439   0.380 -0.1653  0.4330 -0.5676
   13HTM    C6213796   5.060   1.336   0.293 -0.5112  0.9749 -1.3111
   13HTM    C6313797   4.940   1.264   0.261 -0.6404  1.1751 -1.2809
   13HTM    C6413798   4.829   1.312   0.324 -0.3930  0.7860 -0.5143
   13HTM     S713799   4.868   1.454   0.429  0.0258  0.1313  0.2347
   14TAL    C6513800   4.954   1.141   0.173 -0.9689 -0.0618 -0.1021
   14TAL    C6613801   5.004   1.006   0.238  0.0690  0.2640  0.0521
   14TAL    C6713802   4.919   0.948   0.344  0.7977  0.5760  0.3581
   14TAL    C6813803   4.815   0.827   0.301  0.4277 -1.0960  0.1278
   14TAL    C6913804   4.858   0.692   0.249  0.4705 -0.2745  0.9321
   14TAL    C7013805   4.920   0.599   0.345 -1.1365 -0.5865 -1.3521
   15HTM    C7113806   4.699   1.253   0.342  0.4865 -0.1668 -0.9562
   15HTM    C7213807   4.627   1.260   0.458  1.1379 -0.4859 -0.5187
   15HTM    C7313808   4.496   1.202   0.447  1.0744 -0.4621  0.0689
   15HTM    C7413809   4.468   1.151   0.324  0.3746 -0.1248  0.0794
   15HTM     S813810   4.606   1.173   0.210 -0.2636  0.1913 -0.6577
   16TAL    C7513811   4.395   1.209   0.565 -0.9677 -0.8030  0.6452
   16TAL    C7613812   4.434   1.197   0.708 -0.5258 -0.8378 -0.9979
   16TAL    C7713813   4.527   1.083   0.742 -0.7426  0.3058 -0.8460
   16TAL    C7813814   4.597   1.107   0.881 -0.6588 -0.7861  0.6105
   16TAL    C7913815   4.520   1.077   0.992  1.3539  0.0738 -0.0963
   16TAL    C8013816   4.583   1.075   1.123  0.3252  0.2745 -0.3039
   17HTM    C8113817   4.361   1.070   0.271  0.1372 -0.0696  0.4588
   17HTM    C8213818   4.301   1.100   0.152 -0.0118  0.4532  0.6601
   17HTM    C8313819   4.177   1.030   0.131 -0.1067  0.6483  0.5642
   17HTM    C8413820   4.143   0.947   0.233 -0.0299  0.2742  0.2898
   17HTM     S913821   4.265   0.951   0.365  0.1697 -0.3583  0.1300
   18TAL    C8513822   4.103   1.053  -0.004  0.4024 -0.0479 -0.0999
   18TAL    C8613823   4.171   1.002  -0.126 -0.2813  0.2794 -0.0422
   18TAL    C8713824   4.059   0.945  -0.228  0.0630  0.0637 -0.6892
   18TAL    C8813825   3.967   0.809  -0.195 -0.2128 -1.0095 -0.6614
   18TAL    C8913826   3.886   0.750  -0.304 -0.2372 -0.4274 -0.5653
   18TAL    C9013827   3.830   0.622  -0.265  0.0233  1.0024 -0.0122
   19HTM    C9113828   4.046   0.843   0.221  0.4877 -0.5259  0.2032
   19HTM    C9213829   3.914   0.842   0.255  0.3993 -0.4543 -0.1303
   19HTM    C9313830   3.850   0.715   0.234  0.3791 -0.4171 -0.3009
   19HTM    C9413831   3.933   0.619   0.185  0.4520 -0.4604 -0.0974
   19HTM    S1013832   4.100   0.681   0.160  0.5527 -0.5521  0.3287
   20TAL    C9513833   3.699   0.709   0.255  0.1652  0.0242 -0.2826
   20TAL    C9613834   3.624   0.825   0.210  0.0197  0.0429  0.5646
   20TAL    C9713835   3.610   0.835   0.053  0.2352  0.2982 -0.4438
   20TAL    C9813836   3.524   0.963   0.034 -1.0171 -0.0481  0.3127
   20TAL    C9913837   3.541   1.041  -0.094 -0.1861  0.3812  0.9907
   20TAL   C10013838   3.428   1.134  -0.084  0.6954  0.2082  0.0808
   21HTM   C10113839   3.912   0.481   0.141 -0.8498  0.1537 -0.1222
   21HTM   C10213840   3.936   0.414   0.025 -1.4206  0.4392 -0.4176
   21HTM   C10313841   3.897   0.276   0.029 -1.0488  0.3311 -0.4236
   21HTM   C10413842   3.842   0.237   0.147 -0.1945 -0.0368 -0.1328
   21HTM    S1113843   3.836   0.374   0.265  0.2097 -0.2771  0.1735
   22TAL   C10513844   3.887   0.173  -0.078 -0.4017 -0.3380  1.0200
   22TAL   C10613845   3.927   0.203  -0.223  1.0053  0.9236 -0.6525
   22TAL   C10713846   4.073   0.224  -0.247 -0.3960  0.6978 -0.4773
   22TAL   C10813847   4.180   0.128  -0.183  0.2639 -0.5240 -0.1348
   22TAL   C10913848   4.188  -0.009  -0.245  0.5451  0.1045 -0.1016
   22TAL   C11013849   4.299   0.004  -0.348  0.5569  0.4720 -0.9987
   23HTM   C11113850   3.803   0.112   0.208 -0.7953 -0.0738  0.4302
   23HTM   C11213851   3.702   0.027   0.172 -0.0700 -0.8528  0.1877
   23HTM   C11313852   3.687  -0.085   0.261  1.0272 -1.3785 -0.2492
   23HTM   C11413853   3.776  -0.086   0.365  1.1385 -1.0003 -0.3399
   23HTM    S1213854   3.886   0.057   0.358 -0.1437  0.0571  0.1231
   24TAL   C11513855   3.573  -0.175   0.222 -0.8255 -0.5148 -0.5941
   24TAL   C11613856   3.632  -0.298   0.156  0.3240  0.3661 -0.2461
   24TAL   C11713857   3.524  -0.398   0.096  0.2315  0.8052 -0.5635
   24TAL   C11813858   3.441  -0.448   0.217  0.0583  0.4878  0.2765
   24TAL   C11913859   3.332  -0.556   0.178  0.4724 -0.4143  0.7783
   24TAL   C12013860   3.379  -0.688   0.104 -0.1329 -0.0863 -0.4783
   25HTM   C12113861   3.756  -0.153   0.495 -0.2268 -0.1376  0.1131
   25HTM   C12213862   3.675  -0.257   0.531 -0.1767 -0.1681  0.1381
   25HTM   C12313863   3.690  -0.298   0.668  0.0545 -0.3204  0.0700
   25HTM   C12413864   3.782  -0.225   0.738  0.1807 -0.4063 -0.0069
   25HTM    S1313865   3.858  -0.098   0.634  0.0161 -0.3003  0.0008
   26TAL   C12513866   3.629  -0.429   0.723  0.9654 -0.7309 -0.7974
   26TAL   C12613867   3.506  -0.479   0.661  0.3549 -1.2330 -0.5387
   26TAL   C12713868   3.508  -0.634   0.689  0.6565  0.1151  0.0411
   26TAL   C12813869   3.459  -0.725   0.569 -0.4512  0.6431  0.3666
   26TAL   C12913870   3.550  -0.734   0.434  0.8555 -0.4074 -0.1301
   26TAL   C13013871   3.702  -0.729   0.421 -0.0490  0.1632  0.3921
   27HTM   C13113872   3.829  -0.215   0.875  0.0398  0.5142  0.5360
   27HTM   C13213873   3.938  -0.144   0.916  0.6014 -0.2673  0.4327
   27HTM   C13313874   3.968  -0.161   1.056  0.7910 -0.7029  0.3432
   27HTM   C13413875   3.882  -0.244   1.121  0.3738 -0.2538  0.3783
   27HTM    S1413876   3.755  -0.308   1.010 -0.2958  0.7623  0.5284
   28TAL   C13513877   4.076  -0.070   1.125  0.1514  1.3261  0.0274
   28TAL   C13613878   4.092   0.078   1.103  0.4604 -0.3468 -0.2386
   28TAL   C13713879   4.115   0.116   0.955  1.3276 -0.9315  0.9676
   28TAL   C13813880   4.077   0.258   0.902 -0.4480 -0.2522 -0.4927
   28TAL   C13913881   3.931   0.294   0.881  0.1193  0.7280 -0.0362
   28TAL   C14013882   3.857   0.223   0.777 -0.1888  0.8637  0.2303
   29HTM   C14113883   3.866  -0.280   1.261  0.2593  0.0815 -0.3100
   29HTM   C14213884   3.750  -0.326   1.316  0.2059  0.3123 -0.2272
   29HTM   C14313885   3.766  -0.381   1.448  0.1595  0.4475 -0.1658
   29HTM   C14413886   3.894  -0.376   1.494  0.1774  0.3207 -0.2018
   29HTM    S1513887   4.005  -0.302   1.373  0.2549  0.0174 -0.3169
   30TAL   C14513888   3.644  -0.445   1.525 -0.9029 -0.4535  0.3680
   30TAL   C14613889   3.537  -0.508   1.450 -0.3237  1.6764  1.3247
   30TAL   C14713890   3.477  -0.627   1.530  0.8184  0.3551 -0.7802
   30TAL   C14813891   3.428  -0.591   1.675  0.4198  0.1944  0.3231
   30TAL   C14913892   3.329  -0.693   1.753 -0.6388 -0.3591 -0.0427
   30TAL   C15013893   3.350  -0.842   1.780 -0.5490 -0.5890  0.2573
   31HTM   C15113894   3.961  -0.426   1.606  0.5259  0.3409 -0.0639
   31HTM   C15213895   4.003  -0.550   1.643 -0.0174  0.1774  0.0147
   31HTM   C15313896   4.051  -0.557   1.779 -0.4700 -0.0544  0.1694
   31HTM   C15413897   4.047  -0.437   1.845 -0.2720 -0.0677  0.2087
   31HTM    S1613898   3.980  -0.306   1.740  0.5078  0.2137  0.0522
   32TAL   C15513899   4.089  -0.680   1.843  0.3874  0.0999 -0.2979
   32TAL   C15613900   3.985  -0.791   1.839 -0.5440  0.9227  0.5567
   32TAL   C15713901   3.991  -0.885   1.959  1.4800  0.4658  0.8422
   32TAL   C15813902   3.907  -1.018   1.945  0.1296 -0.3087 -0.2298
   32TAL   C15913903   3.760  -1.026   1.919 -0.1257 -0.2307 -0.6845
   32TAL   C16013904   3.710  -1.163   1.897 -0.6044 -0.0223 -0.3588
   33HTM   C16113905   4.108  -0.385   1.967  0.4493  0.0466 -0.1936
   33HTM   C16213906   4.220  -0.425   2.034  0.5929  0.2844 -0.2921
   33HTM   C16313907   4.249  -0.346   2.150  0.5072  0.3245 -0.2975
   33HTM   C16413908   4.159  -0.246   2.173  0.2981  0.1174 -0.2032
   33HTM    S1713909   4.030  -0.244   2.047  0.1923 -0.1465 -0.0993
   34TAL   C16513910   4.380  -0.362   2.225 -0.4916 -0.0584 -0.5815
   34TAL   C16613911   4.467  -0.485   2.203 -0.0672  0.2195 -0.4666
   34TAL   C16713912   4.540  -0.522   2.332 -0.4737  0.4376  0.2999
   34TAL   C16813913   4.475  -0.542   2.472  0.0550  0.8211  0.5052
   34TAL   C16913914   4.514  -0.676   2.528  0.4393  0.6708 -0.4164
   34TAL   C17013915   4.432  -0.724   2.640  1.0005  0.1624 -0.5655
   35HTM   C17113916   4.178  -0.141   2.265 -0.0627 -0.2817 -0.1339
   35HTM   C17213917   4.215  -0.012   2.247  0.4883 -0.4585 -0.3011
   35HTM   C17313918   4.232   0.062   2.370  1.0427 -0.4334 -0.3865
   35HTM   C17413919   4.207  -0.012   2.481  0.9146 -0.2377 -0.2845
   35HTM    S1813920   4.161  -0.181   2.440  0.0773 -0.0686 -0.0709
   36TAL   C17513921   4.292   0.200   2.365  0.3787 -0.6577  0.8183
   36TAL   C17613922   4.416   0.233   2.278 -0.1840 -0.1446 -1.0284
   36TAL   C17713923   4.453   0.381   2.279  0.1185  0.2259  0.2206
   36TAL   C17813924   4.598   0.408   2.226  0.7205  0.3606  0.8603
   36TAL   C17913925   4.614   0.557   2.201  0.9763  0.0135  0.3102
   36TAL   C18013926   4.747   0.586   2.144 -0.7591 -0.1371  0.5361
   37HTM   C18113927   4.196   0.028   2.625 -0.5995 -0.3158 -0.0001
   37HTM   C18213928   4.267   0.120   2.696  0.3824 -0.9531 -0.1258
   37HTM   C18313929   4.229   0.128   2.834  1.1675 -1.0514  0.1086
   37HTM   C18413930   4.128   0.043   2.869  0.7845 -0.4891  0.4131
   37HTM    S1913931   4.073  -0.055   2.727 -0.6087  0.2136  0.4275
   38TAL   C18513932   4.297   0.235   2.919  0.8637  0.0942 -1.6734
   38TAL   C18613933   4.266   0.382   2.882  0.1785  1.1857 -0.3505
   38TAL   C18713934   4.133   0.435   2.941 -0.5360  0.2014  0.0652
   38TAL   C18813935   4.150   0.515   3.073  0.3459 -0.3496 -0.7441
   38TAL   C18913936   4.216   0.653   3.047 -0.8759  0.7462  0.1743
   38TAL   C19013937   4.189   0.747   3.159  0.5231  0.0490  0.1875
   39HTM   C19113938   4.070   0.014   3.003  0.2068 -0.0976 -0.0854
   39HTM   C19213939   3.955   0.069   3.049  0.4309  0.6187 -0.3536
   39HTM   C19313940   3.941   0.062   3.192  0.3999  1.3944 -0.3119
   39HTM   C19413941   4.046   0.002   3.255  0.1523  1.2696 -0.0118
   39HTM    S2013942   4.171  -0.052   3.137 -0.0626  0.1543  0.2433
   40TAL   C19513943   3.819   0.107   3.261  0.4808  0.0293 -0.6583
   40TAL   C19613944   3.695   0.014   3.250 -0.0488  0.5031 -1.0384
   40TAL   C19713945   3.639  -0.048   3.124 -1.7942 -0.0604 -0.1573
   40TAL   C19813946   3.557  -0.175   3.120 -0.1004  1.0746 -0.3045
   40TAL   C19913947   3.473  -0.215   3.004  0.8161 -0.0501 -0.6274
   40TAL   C20013948   3.331  -0.169   3.040  0.1998 -0.5235 -0.1783
   41HTM   C20113949   4.075  -0.006   3.397  0.0662  0.0790  0.3977
   41HTM   C20213950   4.197   0.013   3.456 -0.0396  0.3164  0.5423
   41HTM   C20313951   4.197  -0.012   3.598 -0.1687  0.3564  0.5500
   41HTM   C20413952   4.076  -0.050   3.647 -0.1612  0.1500  0.4111
   41HTM    S2113953   3.951  -0.057   3.517  0.0106 -0.1133  0.2587
   42TAL   C20513954   4.330   0.000   3.678  0.1525 -0.0877 -0.0232
   42TAL   C20613955   4.463  -0.063   3.637 -1.2831 -0.9782  0.0540
   42TAL   C20713956   4.580  -0.048   3.737  0.1922  0.4236 -0.9997
   42TAL   C20813957   4.697  -0.142   3.737  0.5108  0.4391  0.7848
   42TAL   C20913958   4.694  -0.289   3.793  0.2254 -0.2861  0.4017
   42TAL   C21013959   4.808  -0.374   3.760 -1.3829  0.6769  0.1445
   43HTM   C21113960   4.039  -0.080   3.782  0.5530 -0.1306 -0.0782
   43HTM   C21213961   4.103  -0.045   3.897  1.1191 -0.8640 -0.1594
   43HTM   C21313962   4.055  -0.115   4.014  1.0194 -0.8907 -0.2170
   43HTM   C21413963   3.953  -0.202   3.987  0.3770 -0.1782 -0.1796
   43HTM    S2213964   3.911  -0.203   3.812 -0.1557  0.5884 -0.0681
   44TAL   C21513965   4.108  -0.091   4.152 -0.2998 -0.2286 -0.2083
   44TAL   C21613966   4.073   0.018   4.258 -0.5830 -0.7891  0.1313
   44TAL   C21713967   3.935   0.004   4.302  0.8992 -0.4847  0.1978
   44TAL   C21813968   3.921   0.102   4.421  0.5299  0.0855 -0.7915
   44TAL   C21913969   3.775   0.128   4.456  0.3976 -0.0369 -0.0661
   44TAL   C22013970   3.723   0.262   4.505  0.1230  0.1057  0.5352
   45HTM   C22113971   3.898  -0.309   4.072  0.7495 -0.0841  0.3475
   45HTM   C22213972   3.937  -0.439   4.076  0.4886 -0.1612  0.4034
   45HTM   C22313973   3.846  -0.525   4.147  0.1451 -0.0103  0.1500
   45HTM   C22413974   3.737  -0.459   4.197  0.1438  0.1820 -0.0990
   45HTM    S2313975   3.742  -0.283   4.158  0.5800  0.1872 -0.0325
   46TAL   C22513976   3.851  -0.679   4.134  0.2065 -0.7063 -0.0627
   46TAL   C22613977   3.993  -0.741   4.143  0.2243  0.7342 -0.1748
   46TAL   C22713978   4.002  -0.845   4.041 -0.1611  0.1255  0.1386
   46TAL   C22813979   4.139  -0.909   4.051 -0.6961  0.7121 -0.4165
   46TAL   C22913980   4.186  -1.016   3.948  0.2545 -0.0637 -0.3464
   46TAL   C23013981   4.306  -1.087   4.008  0.3759  0.2039 -0.0396
   47HTM   C23113982   3.625  -0.495   4.283 -0.7622  0.3365  0.7449
   47HTM   C23213983   3.496  -0.449   4.287 -0.7202  0.3915  1.8440
   47HTM   C23313984   3.409  -0.530   4.368 -0.1696  0.1612  2.2191
   47HTM   C23413985   3.471  -0.638   4.425  0.2080 -0.0689  1.4059
   47HTM    S2413986   3.646  -0.645   4.381 -0.1047 -0.0127  0.0933
   48TAL   C23513987   3.254  -0.521   4.351 -0.6292 -0.7691  0.6056
   48TAL   C23613988   3.181  -0.626   4.437 -0.5267 -0.6441  0.6189
   48TAL   C23713989   3.033  -0.579   4.466  0.1736  0.4290 -0.7517
   48TAL   C23813990   2.945  -0.696   4.508  0.8958  0.0334 -0.1296
   48TAL   C23913991   2.795  -0.670   4.458  0.3227 -0.6892 -0.5317
   48TAL   C24013992   2.731  -0.758   4.357 -0.9348  1.2705  0.4514
    1HTM     C113993   2.285   0.692   5.147  0.7177  0.4984  0.0256
    1HTM     C213994   2.203   0.583   5.156  1.2394  0.1373  0.5884
    1HTM     C313995   2.063   0.617   5.162  1.0681 -0.5070  0.3301
    1HTM     C413996   2.038   0.751   5.157  0.4158 -0.6372 -0.4296
    1HTM     S113997   2.191   0.846   5.145 -0.0363  0.0491 -0.8812
    2TAL     C513998   1.948   0.513   5.174 -0.0714  0.5449  1.2969
    2TAL     C613999   1.933   0.416   5.061  0.1606  0.0092  0.6104
    2TAL     C714000   1.806   0.330   5.055 -0.4140 -0.5324 -0.7119
    2TAL     C814001   1.798   0.212   4.951 -0.3863 -0.7393  0.2002
    2TAL     C914002   1.888   0.093   4.985 -0.1331 -0.3181 -0.4106
    2TAL    C1014003   1.833   0.004   5.097 -0.2221 -1.0139  0.8237
    3HTM    C1114004   1.907   0.825   5.134  0.4076 -0.8153 -0.3410
    3HTM    C1214005   1.783   0.785   5.173  0.4507 -0.9566 -0.3479
    3HTM    C1314006   1.677   0.872   5.129  0.4323 -0.6046  0.3598
    3HTM    C1414007   1.721   0.978   5.056  0.3751 -0.1949  0.9063
    3HTM     S214008   1.900   0.977   5.037  0.3398 -0.2221  0.5667
    4TAL    C1514009   1.530   0.849   5.142  0.4841 -0.0283  0.3055
    4TAL    C1614010   1.490   0.730   5.225 -0.2245 -0.1374  0.1369
    4TAL    C1714011   1.340   0.748   5.273 -0.3503 -0.0946  0.3232
    4TAL    C1814012   1.261   0.637   5.356  0.9432 -0.4201 -0.0424
    4TAL    C1914013   1.227   0.514   5.263  0.1787  0.6358  0.0723
    4TAL    C2014014   1.150   0.418   5.352  0.4053  1.0490  0.0415
    5HTM    C2114015   1.654   1.092   4.986  0.1216 -0.0198 -0.2282
    5HTM    C2214016   1.578   1.186   5.048 -0.0051 -0.1735 -0.1487
    5HTM    C2314017   1.519   1.282   4.958 -0.2666 -0.2700 -0.0851
    5HTM    C2414018   1.552   1.261   4.827 -0.3392 -0.1901 -0.1161
    5HTM     S314019   1.658   1.117   4.807 -0.0811  0.0151 -0.2287
    6TAL    C2514020   1.441   1.406   5.013 -0.2292  0.2583 -0.4145
    6TAL    C2614021   1.333   1.375   5.111 -0.1471 -0.0595 -0.3329
    6TAL    C2714022   1.256   1.495   5.156  1.0291  0.0720  0.6450
    6TAL    C2814023   1.333   1.625   5.196 -0.0208  0.7706 -0.5721
    6TAL    C2914024   1.265   1.760   5.210 -0.7862 -1.1364  0.2736
    6TAL    C3014025   1.227   1.830   5.075 -1.0375  0.3124  0.2690
    7HTM    C3114026   1.488   1.307   4.705  0.4727  0.5259  0.4674
    7HTM    C3214027   1.364   1.270   4.663  0.2563  0.7573  0.8912
    7HTM    C3314028   1.339   1.296   4.524 -0.2117  0.8975  0.9959
    7HTM    C3414029   1.445   1.353   4.459 -0.3521  0.7729  0.6516
    7HTM     S414030   1.584   1.378   4.570  0.0993  0.4666  0.1651
    8TAL    C3514031   1.206   1.245   4.452 -0.8171 -0.3086 -0.2321
    8TAL    C3614032   1.103   1.172   4.541  0.3265  0.0164  0.7907
    8TAL    C3714033   0.985   1.085   4.488 -0.6728 -0.2837  0.4833
    8TAL    C3814034   1.007   0.939   4.462 -1.1507 -0.0820 -0.7381
    8TAL    C3914035   0.894   0.854   4.516  0.9023 -0.7372  0.3007
    8TAL    C4014036   0.893   0.708   4.463 -0.4636 -0.2204 -0.1724
    9HTM    C4114037   1.431   1.427   4.327  0.1542 -0.3937  0.1446
    9HTM    C4214038   1.509   1.532   4.290 -0.1891 -0.1357  0.1357
    9HTM    C4314039   1.488   1.576   4.155 -0.5190 -0.0439  0.2148
    9HTM    C4414040   1.393   1.505   4.088 -0.4273 -0.2318  0.2844
    9HTM     S514041   1.323   1.375   4.192  0.0868 -0.5418  0.2550
   10TAL    C4514042   1.558   1.708   4.108 -1.0555  0.5666  0.3690
   10TAL    C4614043   1.697   1.706   4.022 -0.3556  0.9092 -1.2734
   10TAL    C4714044   1.807   1.608   4.082 -0.1917  0.6918 -0.0131
   10TAL    C4814045   1.942   1.626   4.023 -0.6193  0.9484 -0.5219
   10TAL    C4914046   1.981   1.545   3.901  0.0767 -0.4613  0.2955
   10TAL    C5014047   2.061   1.417   3.939 -0.9128  0.2360  0.6055
   11HTM    C5114048   1.334   1.513   3.949 -0.7350  0.8029  0.7193
   11HTM    C5214049   1.265   1.407   3.897 -0.5175  0.3951  1.2437
   11HTM    C5314050   1.219   1.429   3.762 -0.0753 -0.5888  0.9183
   11HTM    C5414051   1.253   1.551   3.712  0.0442 -0.9312  0.1462
   11HTM     S614052   1.346   1.649   3.831 -0.3958 -0.0306 -0.2330
   12TAL    C5514053   1.151   1.322   3.688  0.0450 -0.9042  0.5913
   12TAL    C5614054   1.242   1.229   3.619 -0.7412 -0.0355  0.4390
   12TAL    C5714055   1.159   1.162   3.520 -0.4520 -0.6171  0.4260
   12TAL    C5814056   1.231   1.039   3.466 -0.0792  0.6230 -0.8772
   12TAL    C5914057   1.133   0.989   3.357 -0.1512 -0.4518  0.9871
   12TAL    C6014058   1.169   0.848   3.304 -0.6289  0.1404  0.1254
   13HTM    C6114059   1.230   1.612   3.584  0.3186  0.1983  0.1840
   13HTM    C6214060   1.290   1.728   3.544  0.3450  0.2671  0.4215
   13HTM    C6314061   1.248   1.773   3.414  0.4793  0.4548  0.4426
   13HTM    C6414062   1.156   1.692   3.355  0.5553  0.5289  0.2212
   13HTM     S714063   1.115   1.551   3.459  0.4624  0.3663 -0.0329
   14TAL    C6514064   1.310   1.900   3.374 -0.3973  0.2752  0.8155
   14TAL    C6614065   1.249   1.995   3.266 -0.0417  0.4254 -0.3026
   14TAL    C6714066   1.137   2.077   3.313  0.0303 -0.6096 -0.0698
   14TAL    C6814067   1.094   2.178   3.204 -0.0069  0.9318 -0.6010
   14TAL    C6914068   0.955   2.245   3.215  0.2044 -0.5016  0.1828
   14TAL    C7014069   0.844   2.160   3.162 -0.6049 -0.3050 -0.3531
   15HTM    C7114070   1.093   1.691   3.223 -0.1848  0.1524  0.0038
   15HTM    C7214071   0.961   1.669   3.196 -0.2144  0.2604  0.0582
   15HTM    C7314072   0.933   1.649   3.056 -0.2246 -0.1402  0.1126
   15HTM    C7414073   1.043   1.657   2.976 -0.2027 -0.5536  0.0997
   15HTM     S814074   1.192   1.689   3.073 -0.1674 -0.4684  0.0171
   16TAL    C7514075   0.797   1.609   2.997  0.1096 -0.7904 -0.4543
   16TAL    C7614076   0.678   1.678   3.058  0.2408 -0.6211  0.1799
   16TAL    C7714077   0.667   1.830   3.072 -0.1027 -0.6068  1.2466
   16TAL    C7814078   0.542   1.841   3.162 -0.0076  0.6691  0.1580
   16TAL    C7914079   0.490   1.980   3.206  1.1976  0.2542 -0.3260
   16TAL    C8014080   0.361   1.986   3.288  0.8167  0.2283 -0.1939
   17HTM    C8114081   1.060   1.659   2.831 -0.1738  0.3815 -0.4592
   17HTM    C8214082   1.022   1.560   2.746 -0.3102  0.5078 -0.5458
   17HTM    C8314083   1.073   1.576   2.612 -0.0829  0.4239 -0.4699
   17HTM    C8414084   1.150   1.687   2.596  0.2268  0.2336 -0.3257
   17HTM     S914085   1.164   1.781   2.749  0.2556  0.1449 -0.2738
   18TAL    C8514086   1.009   1.487   2.510  1.3178 -0.8426  0.0953
   18TAL    C8614087   0.887   1.576   2.455 -0.2377  0.2983  0.1064
   18TAL    C8714088   0.797   1.484   2.369  0.2394 -0.2874  0.1053
   18TAL    C8814089   0.842   1.447   2.227  0.9794 -0.0589  0.3482
   18TAL    C8914090   0.738   1.384   2.137 -0.8108 -0.0438  0.5356
   18TAL    C9014091   0.702   1.248   2.189  0.1688 -0.2562 -0.4200
   19HTM    C9114092   1.226   1.731   2.479  0.0659 -0.1859 -0.0916
   19HTM    C9214093   1.282   1.855   2.466  1.1415 -0.4923  1.2392
   19HTM    C9314094   1.387   1.861   2.368  1.7843 -0.5061  1.9072
   19HTM    C9414095   1.411   1.742   2.306  1.1988 -0.2103  1.0858
   19HTM    S1014096   1.302   1.612   2.367 -0.2208  0.1112 -0.6083
   20TAL    C9514097   1.468   1.983   2.331 -0.6923 -0.5364 -0.4408
   20TAL    C9614098   1.603   2.015   2.419  0.2628  0.6703 -0.2171
   20TAL    C9714099   1.586   2.100   2.552 -0.3379 -0.1063 -0.1911
   20TAL    C9814100   1.733   2.162   2.576  1.1837  0.3386  0.2051
   20TAL    C9914101   1.763   2.227   2.703 -0.0666  0.5223 -0.1891
   20TAL   C10014102   1.907   2.266   2.681  0.1247 -1.3774 -0.6962
   21HTM   C10114103   1.494   1.702   2.188 -0.3554  0.1433  0.5622
   21HTM   C10214104   1.521   1.576   2.143 -1.2115  0.0281  0.3481
   21HTM   C10314105   1.619   1.572   2.037 -1.5607 -0.4287  0.0342
   21HTM   C10414106   1.667   1.695   2.002 -0.9709 -0.6619  0.0088
   21HTM    S1114107   1.592   1.826   2.100  0.0795 -0.3200  0.3825
   22TAL   C10514108   1.663   1.430   1.994  0.4688 -0.1178 -0.0407
   22TAL   C10614109   1.713   1.397   1.853 -0.4835  0.3681 -0.4132
   22TAL   C10714110   1.754   1.253   1.828 -0.2398 -0.1652  0.1125
   22TAL   C10814111   1.659   1.146   1.871  0.8072  0.4469  0.4532
   22TAL   C10914112   1.686   0.994   1.826  1.1227  0.5391  0.7546
   22TAL   C11014113   1.733   0.969   1.676 -0.6788  0.1149 -0.8795
   23HTM   C11114114   1.751   1.734   1.890  0.2133 -0.1140 -0.0707
   23HTM   C11214115   1.739   1.734   1.754  0.1813 -0.3909 -0.0692
   23HTM   C11314116   1.853   1.790   1.686  0.0819 -0.3476 -0.2011
   23HTM   C11414117   1.952   1.832   1.770  0.0379 -0.0377 -0.3032
   23HTM    S1214118   1.908   1.805   1.943  0.1194  0.2255 -0.2403
   24TAL   C11514119   1.867   1.787   1.527 -0.6356 -0.4092 -0.7604
   24TAL   C11614120   1.744   1.727   1.456 -0.5709 -0.6348 -0.6371
   24TAL   C11714121   1.750   1.681   1.317 -0.0439  1.0441  0.3606
   24TAL   C11814122   1.750   1.527   1.303 -0.4459  0.9762  1.1711
   24TAL   C11914123   1.640   1.440   1.373 -0.8092 -0.0576 -0.3348
   24TAL   C12014124   1.657   1.295   1.361 -0.0674 -0.3858  0.3678
   25HTM   C12114125   2.071   1.915   1.748  0.5980 -0.0044 -0.4373
   25HTM   C12214126   2.174   1.897   1.661  0.6489  0.5541 -0.5006
   25HTM   C12314127   2.284   1.989   1.681  0.5156  0.6169 -0.0341
   25HTM   C12414128   2.264   2.077   1.783  0.3631  0.1062  0.3848
   25HTM    S1314129   2.104   2.050   1.863  0.3761 -0.4982  0.2214
   26TAL   C12514130   2.398   1.991   1.579 -0.8938 -0.4402  0.6284
   26TAL   C12614131   2.392   1.937   1.432 -0.6288  0.2145 -0.4870
   26TAL   C12714132   2.287   2.020   1.350  0.0630  0.9544 -0.2146
   26TAL   C12814133   2.292   1.962   1.206  0.8463  0.0358  0.8466
   26TAL   C12914134   2.177   2.004   1.119  0.3662 -0.6704  1.2610
   26TAL   C13014135   2.031   1.959   1.160  0.3401  0.6787 -0.2507
   27HTM   C13114136   2.345   2.170   1.849 -1.1376  0.9029  0.4490
   27HTM   C13214137   2.402   2.288   1.809 -1.7149  1.3707  0.9572
   27HTM   C13314138   2.487   2.348   1.908 -1.3614  0.9254  0.9291
   27HTM   C13414139   2.496   2.276   2.024 -0.5145  0.1179  0.3994
   27HTM    S1414140   2.395   2.126   2.016 -0.0946 -0.1447 -0.1089
   28TAL   C13514141   2.571   2.474   1.859  0.5238 -0.3025 -0.3835
   28TAL   C13614142   2.711   2.455   1.803 -0.1856 -0.9557 -0.4545
   28TAL   C13714143   2.837   2.476   1.892 -0.5681  0.0906 -0.1269
   28TAL   C13814144   2.845   2.628   1.926  0.0981  0.8481  0.6373
   28TAL   C13914145   2.926   2.728   1.839 -0.2007  0.3235 -0.6961
   28TAL   C14014146   2.865   2.852   1.793 -0.4681 -0.9825 -1.6827
   29HTM   C14114147   2.593   2.283   2.125  0.6612  0.1192 -0.4535
   29HTM   C14214148   2.696   2.198   2.152  1.1262  0.6030 -0.6782
   29HTM   C14314149   2.787   2.247   2.253  0.8667  0.8329 -0.5538
   29HTM   C14414150   2.752   2.369   2.303  0.2038  0.5243 -0.2342
   29HTM    S1514151   2.602   2.432   2.226 -0.1467 -0.0852 -0.0642
   30TAL   C14514152   2.894   2.152   2.293  0.3362 -0.2675 -0.4797
   30TAL   C14614153   2.962   2.088   2.163 -0.2032  0.4229 -0.0652
   30TAL   C14714154   3.020   2.191   2.066 -0.6941 -0.3255  0.4069
   30TAL   C14814155   3.124   2.287   2.132  1.4018 -0.0004  0.9422
   30TAL   C14914156   3.188   2.348   2.006  0.1608 -0.7959 -0.1301
   30TAL   C15014157   3.221   2.494   2.029  0.6438 -0.5655 -0.8148
   31HTM   C15114158   2.822   2.452   2.396 -0.1111 -0.2613  0.0117
   31HTM   C15214159   2.887   2.420   2.512 -0.8863 -0.5242  0.3907
   31HTM   C15314160   2.923   2.534   2.592 -1.1861 -0.6888  0.7641
   31HTM   C15414161   2.885   2.653   2.538 -0.6396 -0.5513  0.6699
   31HTM    S1614162   2.800   2.630   2.380  0.3035 -0.2006  0.0977
   32TAL   C15514163   3.013   2.526   2.721 -0.0686 -0.6770  0.6181
   32TAL   C15614164   3.010   2.380   2.782  0.6418 -0.4164  0.7120
   32TAL   C15714165   3.045   2.367   2.924  0.2754  0.0157 -0.1382
   32TAL   C15814166   3.051   2.227   2.965  0.3076  0.1575 -0.3640
   32TAL   C15914167   3.067   2.199   3.113 -0.5369 -0.6648 -0.2284
   32TAL   C16014168   2.945   2.196   3.200  0.3510 -0.1275 -0.2844
   33HTM   C16114169   2.903   2.788   2.595  0.5097  0.2951  0.3593
   33HTM   C16214170   3.013   2.869   2.591  0.2244  0.6801  0.2105
   33HTM   C16314171   2.986   3.005   2.631 -0.2664  0.6736 -0.0829
   33HTM   C16414172   2.856   3.027   2.665 -0.3553  0.2837 -0.1578
   33HTM    S1714173   2.757   2.877   2.649  0.1782 -0.1087  0.1387
   34TAL   C16514174   3.104   3.097   2.632  0.1579  0.3652  0.6322
   34TAL   C16614175   3.105   3.213   2.543  0.4126  0.0335  0.1082
   34TAL   C16714176   3.234   3.237   2.468  0.3962 -0.2386 -0.1610
   34TAL   C16814177   3.237   3.383   2.408  1.2886  0.3095  0.4138
   34TAL   C16914178   3.365   3.401   2.321 -0.3066 -1.3456 -0.1651
   34TAL   C17014179   3.513   3.383   2.354  0.7877 -0.1535  0.2321
   35HTM   C17114180   2.796   3.132   2.740  0.2887 -0.2813  0.5979
   35HTM   C17214181   2.753   3.139   2.869 -0.3716  0.0066  0.3689
   35HTM   C17314182   2.712   3.271   2.909 -0.7893  0.0532 -0.1965
   35HTM   C17414183   2.723   3.365   2.810 -0.4474 -0.1989 -0.3985
   35HTM    S1814184   2.788   3.292   2.658  0.4356 -0.5174  0.1135
   36TAL   C17514185   2.648   3.280   3.043  0.2135  0.0577 -0.1854
   36TAL   C17614186   2.733   3.310   3.172  0.9318 -0.1086  1.2807
   36TAL   C17714187   2.649   3.359   3.288 -0.6777  0.7145  0.1336
   36TAL   C17814188   2.702   3.362   3.428 -0.9667 -0.2620 -0.9718
   36TAL   C17914189   2.603   3.409   3.544  0.2639  0.3366 -0.4216
   36TAL   C18014190   2.525   3.537   3.506  0.2917  0.4308  0.5909
   37HTM   C18114191   2.705   3.506   2.805 -0.6678 -0.2659 -0.2642
   37HTM   C18214192   2.707   3.605   2.900 -1.0403 -0.4574 -0.0491
   37HTM   C18314193   2.672   3.735   2.849 -0.7860 -0.3437  0.0636
   37HTM   C18414194   2.643   3.736   2.716 -0.2195 -0.0657 -0.0656
   37HTM    S1914195   2.657   3.571   2.644  0.0386  0.0755 -0.3417
   38TAL   C18514196   2.668   3.856   2.944 -0.6657  0.4335  0.2637
   38TAL   C18614197   2.810   3.920   2.969  0.1609 -0.3593  0.1549
   38TAL   C18714198   2.800   4.054   3.037 -0.8107  0.0724  0.2916
   38TAL   C18814199   2.786   4.176   2.942  0.6960  0.4446 -1.0154
   38TAL   C18914200   2.804   4.320   2.988 -0.9795  0.8778  0.1163
   38TAL   C19014201   2.725   4.366   3.105  1.2575  0.1209 -0.4086
   39HTM   C19114202   2.600   3.840   2.614  0.3411 -0.3940 -0.0453
   39HTM   C19214203   2.491   3.822   2.535  0.0468 -0.3325  0.3407
   39HTM   C19314204   2.472   3.926   2.437 -0.4055 -0.1739  0.5886
   39HTM   C19414205   2.567   4.023   2.441 -0.4560 -0.1146  0.3916
   39HTM    S2014206   2.689   3.991   2.571  0.0678 -0.2554 -0.1262
   40TAL   C19514207   2.367   3.921   2.327 -1.0890  0.3106  0.1863
   40TAL   C19614208   2.220   3.908   2.340  0.1312  0.0733 -1.3504
   40TAL   C19714209   2.135   3.900   2.222 -0.4041 -0.4629  1.3985
   40TAL   C19814210   2.144   3.778   2.121  1.2245 -0.8596  0.1849
   40TAL   C19914211   2.272   3.730   2.056 -0.8435 -0.9483 -0.5976
   40TAL   C20014212   2.259   3.619   1.954  0.4621  0.1724 -0.1577
   41HTM   C20114213   2.575   4.159   2.369  0.3202 -0.0884 -0.6451
   41HTM   C20214214   2.634   4.262   2.436  0.6897 -0.1767 -0.8311
   41HTM   C20314215   2.604   4.391   2.381  0.4735 -0.1115 -0.5633
   41HTM   C20414216   2.522   4.387   2.272 -0.0609  0.0265 -0.1730
   41HTM    S2114217   2.476   4.218   2.230 -0.3346  0.0852 -0.1130
   42TAL   C20514218   2.676   4.517   2.428 -0.1639 -0.5317 -0.2451
   42TAL   C20614219   2.693   4.511   2.584 -0.5523 -0.8719  0.4056
   42TAL   C20714220   2.721   4.644   2.641 -1.2176 -0.8521 -0.3134
   42TAL   C20814221   2.776   4.653   2.774  0.0358  0.6558 -0.1178
   42TAL   C20914222   2.801   4.797   2.813  0.3859 -0.4562 -1.6938
   42TAL   C21014223   2.742   4.848   2.947  1.1553  0.8369 -1.3463
   43HTM   C21114224   2.495   4.490   2.173  0.0482  0.1010  0.1305
   43HTM   C21214225   2.559   4.606   2.140 -0.5904  0.5686  0.4838
   43HTM   C21314226   2.510   4.667   2.019 -0.9694  0.7041  0.7036
   43HTM   C21414227   2.408   4.598   1.960 -0.6195  0.3397  0.5178
   43HTM    S2214228   2.366   4.449   2.053  0.2220 -0.2072  0.0473
   44TAL   C21514229   2.553   4.816   1.991  1.0931  0.3669  0.5199
   44TAL   C21614230   2.470   4.917   2.068 -0.7022 -0.2490  0.7545
   44TAL   C21714231   2.325   4.946   2.045  0.7205 -0.2373  0.7890
   44TAL   C21814232   2.287   5.030   1.912 -0.1092 -0.5639 -1.2209
   44TAL   C21914233   2.361   5.171   1.901  0.1472  0.0461 -1.3868
   44TAL   C22014234   2.297   5.271   2.002 -0.3683 -0.6682  0.3683
   45HTM   C22114235   2.348   4.605   1.827 -0.7147 -0.0433  0.2932
   45HTM   C22214236   2.268   4.513   1.767 -0.6351 -0.1161  0.2979
   45HTM   C22314237   2.247   4.536   1.626 -0.4883 -0.2587  0.2525
   45HTM   C22414238   2.313   4.646   1.579 -0.4560 -0.2946  0.2132
   45HTM    S2314239   2.405   4.729   1.709 -0.6096 -0.1500  0.2307
   46TAL   C22514240   2.161   4.447   1.542  0.5279 -0.5205 -0.3775
   46TAL   C22614241   2.026   4.395   1.596  1.0008  0.4399 -0.8276
   46TAL   C22714242   1.923   4.500   1.638 -0.9292 -0.0574 -0.0141
   46TAL   C22814243   1.794   4.465   1.701  0.7853 -0.5813  0.1590
   46TAL   C22914244   1.778   4.492   1.855  0.2776  0.2231  0.0884
   46TAL   C23014245   1.637   4.473   1.901  0.0620 -0.4085  0.6026
   47HTM   C23114246   2.309   4.704   1.444  0.0695 -0.2247 -0.0461
   47HTM   C23214247   2.349   4.633   1.335  0.0449  0.1982 -0.3380
   47HTM   C23314248   2.354   4.710   1.213  0.0619  0.6863 -0.0331
   47HTM   C23414249   2.318   4.840   1.230  0.0994  0.6354  0.4913
   47HTM    S2414250   2.275   4.876   1.401  0.1163 -0.0382  0.6420
   48TAL   C23514251   2.394   4.646   1.081 -0.0182  0.1954 -0.7665
   48TAL   C23614252   2.374   4.714   0.945 -0.9264  0.3654  0.0009
   48TAL   C23714253   2.239   4.771   0.899  0.9360 -0.4530  0.0855
   48TAL   C23814254   2.227   4.781   0.748  1.5488 -1.0670  0.6689
   48TAL   C23914255   2.158   4.655   0.696  1.3228 -0.0648  1.0213
   48TAL   C24014256   2.114   4.652   0.553  0.4062  0.2156  1.4513
    1HTM     C114257   5.664   6.563   0.226 -0.0680  0.1522  0.1905
    1HTM     C214258   5.768   6.505   0.292 -0.4107 -0.3085  0.3331
    1HTM     C314259   5.786   6.554   0.427 -0.5051 -0.5364  0.4289
    1HTM     C414260   5.695   6.649   0.463 -0.2343 -0.2496  0.3594
    1HTM     S114261   5.580   6.685   0.329  0.1639  0.3353  0.1659
    2TAL     C514262   5.915   6.519   0.495 -0.6717  0.0638 -0.4037
    2TAL     C614263   5.928   6.375   0.551 -1.1806  0.3281  0.1000
    2TAL     C714264   6.055   6.342   0.630  0.0255  1.0614 -0.7437
    2TAL     C814265   6.037   6.353   0.785 -0.7361 -0.3605 -0.3774
    2TAL     C914266   6.011   6.494   0.844 -0.2246 -0.3943 -0.7278
    2TAL    C1014267   5.998   6.446   0.995  0.9333 -0.5400 -0.0904
    3HTM    C1114268   5.686   6.737   0.573 -0.3830  0.1269 -0.5199
    3HTM    C1214269   5.641   6.707   0.698 -1.2369 -0.2506 -0.9021
    3HTM    C1314270   5.639   6.820   0.788 -1.3964 -0.6130 -0.4400
    3HTM    C1414271   5.683   6.936   0.731 -0.6640 -0.5120  0.2946
    3HTM     S214272   5.730   6.911   0.558  0.2913  0.0534  0.4610
    4TAL    C1514273   5.595   6.816   0.933 -0.4206 -1.4888  0.4345
    4TAL    C1614274   5.447   6.805   0.951 -0.4128  0.0334  0.3724
    4TAL    C1714275   5.418   6.825   1.099 -0.2030 -0.1965 -0.3673
    4TAL    C1814276   5.442   6.712   1.191 -0.1018 -0.1538  0.0759
    4TAL    C1914277   5.480   6.772   1.325  0.2194 -0.3237 -0.5664
    4TAL    C2014278   5.388   6.723   1.429 -0.3762  0.3180 -0.1330
    5HTM    C2114279   5.698   7.069   0.789  0.1281  0.5639 -0.0583
    5HTM    C2214280   5.814   7.129   0.829  0.2152  0.8533 -0.7112
    5HTM    C2314281   5.794   7.262   0.880  0.1726  0.8178 -0.6339
    5HTM    C2414282   5.664   7.304   0.879  0.0527  0.5013  0.0779
    5HTM     S314283   5.555   7.176   0.812 -0.0157  0.2213  0.7107
    6TAL    C2514284   5.902   7.345   0.944 -0.4217  0.4047 -0.5553
    6TAL    C2614285   5.927   7.487   0.887 -0.0185  0.2370  0.2590
    6TAL    C2714286   6.052   7.566   0.910 -0.4752  0.3045  0.0631
    6TAL    C2814287   6.047   7.702   0.840  0.6445  0.9940  0.2878
    6TAL    C2914288   6.102   7.787   0.942 -0.2929 -0.4050 -0.9667
    6TAL    C3014289   6.112   7.939   0.925  0.0797  0.0793  0.1668
    7HTM    C3114290   5.596   7.419   0.934  0.6467 -0.5930  0.1418
    7HTM    C3214291   5.613   7.546   0.886  0.8504 -0.6689  0.0083
    7HTM    C3314292   5.515   7.640   0.935  1.0389 -0.4450 -0.0398
    7HTM    C3414293   5.424   7.585   1.020  0.9789 -0.1986  0.0570
    7HTM     S414294   5.455   7.409   1.046  0.6773 -0.2303  0.2177
    8TAL    C3514295   5.505   7.786   0.908 -1.1691  0.0247  1.1967
    8TAL    C3614296   5.621   7.889   0.945 -0.5407  0.1744  0.4531
    8TAL    C3714297   5.739   7.837   1.034  0.2990  0.4286 -0.1230
    8TAL    C3814298   5.693   7.845   1.178  1.0692  0.0444  0.7097
    8TAL    C3914299   5.801   7.772   1.240 -0.3568  0.7172  0.0477
    8TAL    C4014300   5.780   7.772   1.395 -0.1750 -0.6491  0.1563
    9HTM    C4114301   5.297   7.642   1.070  0.4189  0.4097  0.3010
    9HTM    C4214302   5.173   7.629   1.016  0.4003  0.0567  0.4186
    9HTM    C4314303   5.070   7.695   1.091  0.2642 -0.3262  0.5735
    9HTM    C4414304   5.115   7.758   1.203  0.1790 -0.2653  0.5739
    9HTM     S514305   5.293   7.739   1.222  0.2648  0.2847  0.3773
   10TAL    C4514306   4.921   7.713   1.042  0.4807  0.7447 -0.5687
   10TAL    C4614307   4.878   7.756   0.913  1.3437  0.5390  0.1428
   10TAL    C4714308   4.740   7.752   0.843  0.2749  0.6205 -0.6133
   10TAL    C4814309   4.739   7.814   0.700 -0.3979  0.5852 -0.2960
   10TAL    C4914310   4.598   7.813   0.646 -0.3540 -0.2678  0.0804
   10TAL    C5014311   4.569   7.842   0.500  0.7607  1.1342  0.6813
   11HTM    C5114312   5.049   7.840   1.302 -0.4744  0.5906 -0.1700
   11HTM    C5214313   5.111   7.926   1.389 -0.6288  0.9694 -0.4274
   11HTM    C5314314   5.027   7.968   1.498 -0.5302  0.6918 -0.2422
   11HTM    C5414315   4.901   7.914   1.495 -0.3004  0.1013  0.1564
   11HTM     S614316   4.879   7.806   1.352 -0.1900 -0.1522  0.3302
   12TAL    C5514317   5.079   8.055   1.604  0.2621 -0.1513 -0.4717
   12TAL    C5614318   5.217   8.120   1.609 -0.1691  0.0813 -0.3662
   12TAL    C5714319   5.330   8.029   1.637 -0.2072  0.7674 -0.1449
   12TAL    C5814320   5.324   7.955   1.770  0.2005 -0.0028  0.1615
   12TAL    C5914321   5.426   7.850   1.820 -0.3350  0.7428  0.0060
   12TAL    C6014322   5.561   7.918   1.852  1.0061 -0.3738 -0.1267
   13HTM    C6114323   4.780   7.947   1.577  0.0308  0.0183 -0.2464
   13HTM    C6214324   4.724   8.069   1.598  0.4767  0.1667  0.1090
   13HTM    C6314325   4.607   8.065   1.682  0.7397  0.4177  0.4963
   13HTM    C6414326   4.574   7.940   1.724  0.4942  0.4612  0.4361
   13HTM     S714327   4.689   7.816   1.661 -0.0927  0.1858 -0.1187
   14TAL    C6514328   4.520   8.192   1.702 -0.1792 -0.2068 -0.3600
   14TAL    C6614329   4.482   8.236   1.847 -0.2174  0.2315 -1.0241
   14TAL    C6714330   4.400   8.371   1.866 -0.1439  1.0206 -0.0146
   14TAL    C6814331   4.465   8.511   1.859  0.3198  0.3478 -0.1323
   14TAL    C6914332   4.461   8.566   1.712  0.9623  0.3061 -0.5213
   14TAL    C7014333   4.410   8.709   1.711  0.6987 -0.3439  0.8146
   15HTM    C7114334   4.465   7.880   1.793 -0.1679 -0.2237 -0.4547
   15HTM    C7214335   4.409   7.910   1.914 -0.2723  0.3034 -0.6295
   15HTM    C7314336   4.309   7.816   1.957 -0.6212  0.7267 -0.5029
   15HTM    C7414337   4.288   7.714   1.869 -0.7829  0.5226 -0.2315
   15HTM     S814338   4.394   7.729   1.724 -0.5048 -0.2258 -0.1140
   16TAL    C7514339   4.242   7.831   2.098  0.3936  0.2394  1.3854
   16TAL    C7614340   4.308   7.902   2.210  0.8028 -1.0229 -0.0171
   16TAL    C7714341   4.402   7.826   2.299  0.4654 -0.6371  0.9684
   16TAL    C7814342   4.491   7.896   2.389 -0.7998  0.5613 -0.4720
   16TAL    C7914343   4.587   7.792   2.460 -0.9162  0.5895 -0.1027
   16TAL    C8014344   4.559   7.749   2.597  1.0933  0.7957 -0.7260
   17HTM    C8114345   4.197   7.603   1.870  0.6098 -0.2556  0.2461
   17HTM    C8214346   4.083   7.594   1.795  0.9534 -0.3370 -0.2787
   17HTM    C8314347   3.997   7.485   1.834  0.7935 -0.3238 -0.5900
   17HTM    C8414348   4.046   7.411   1.938  0.3280 -0.2323 -0.3027
   17HTM     S914349   4.205   7.474   1.995  0.0533 -0.1552  0.3888
   18TAL    C8514350   3.871   7.470   1.751 -0.1056  0.1388  0.2097
   18TAL    C8614351   3.823   7.336   1.702 -0.5513  1.1144  0.4563
   18TAL    C8714352   3.921   7.269   1.601 -0.2709  0.2930 -0.4774
   18TAL    C8814353   4.002   7.340   1.494 -0.1012 -0.0237  0.0842
   18TAL    C8914354   4.075   7.230   1.404 -0.3573  0.0558 -0.0377
   18TAL    C9014355   4.184   7.294   1.314 -0.4160  0.9920  0.4197
   19HTM    C9114356   3.999   7.284   1.996  0.8031  0.2048  0.3387
   19HTM    C9214357   3.916   7.263   2.102  0.7614  0.3487  0.3346
   19HTM    C9314358   3.899   7.124   2.136 -0.1252  0.3239 -0.1708
   19HTM    C9414359   3.967   7.039   2.055 -0.7596  0.1614 -0.5520
   19HTM    S1014360   4.061   7.128   1.929 -0.2829  0.0258 -0.3003
   20TAL    C9514361   3.820   7.091   2.262  0.1232  1.2509  0.1624
   20TAL    C9614362   3.669   7.077   2.257  0.7458  0.2095 -0.0102
   20TAL    C9714363   3.595   7.099   2.128  0.2820  0.5913  0.7956
   20TAL    C9814364   3.592   6.978   2.023 -0.2995 -0.6890  0.4061
   20TAL    C9914365   3.472   6.880   2.038 -0.2461 -0.5157  0.4291
   20TAL   C10014366   3.534   6.755   1.967 -0.2205 -0.8766 -0.6466
   21HTM   C10114367   3.993   6.894   2.070 -0.2631  0.0170  0.0695
   21HTM   C10214368   3.986   6.788   1.985 -0.3986  0.3580 -0.3541
   21HTM   C10314369   4.040   6.666   2.040 -0.2478  0.1454 -0.9556
   21HTM   C10414370   4.088   6.680   2.167  0.0028 -0.3573 -0.9905
   21HTM    S1114371   4.068   6.849   2.227  0.0681 -0.6037 -0.2609
   22TAL   C10514372   4.058   6.535   1.959 -0.3866  0.1358  0.3560
   22TAL   C10614373   3.938   6.480   1.877 -0.3976  0.1807  0.6538
   22TAL   C10714374   3.808   6.476   1.958  0.8500 -0.5796 -0.8558
   22TAL   C10814375   3.793   6.399   2.089  0.9035 -0.1625  0.8899
   22TAL   C10914376   3.706   6.484   2.184 -1.4013  0.0285 -0.3631
   22TAL   C11014377   3.756   6.612   2.253 -0.5091 -0.2078 -1.5626
   23HTM   C11114378   4.136   6.576   2.261 -0.3513  0.0444  0.1774
   23HTM   C11214379   4.164   6.596   2.393  0.0035  0.5199  0.0370
   23HTM   C11314380   4.229   6.484   2.456  0.5329  0.8982  0.1715
   23HTM   C11414381   4.251   6.379   2.372  0.5820  0.7114  0.4146
   23HTM    S1214382   4.190   6.414   2.206 -0.0417  0.0376  0.4931
   24TAL   C11514383   4.257   6.477   2.601  0.2585 -0.1618 -0.9825
   24TAL   C11614384   4.156   6.522   2.710 -0.5108 -0.4334 -0.3168
   24TAL   C11714385   4.042   6.432   2.744  0.5249 -0.5431 -0.1185
   24TAL   C11814386   3.964   6.374   2.628 -0.0464 -0.1268  0.6993
   24TAL   C11914387   3.848   6.278   2.633  0.6610 -0.5773 -0.4032
   24TAL   C12014388   3.761   6.313   2.508  0.2477  0.4492  0.5915
   25HTM   C12114389   4.320   6.249   2.392  0.1888  0.1216 -0.0919
   25HTM   C12214390   4.280   6.162   2.489  0.4923  0.5093  0.3870
   25HTM   C12314391   4.328   6.028   2.471  0.6512  0.4888  0.9213
   25HTM   C12414392   4.405   6.012   2.359  0.4688  0.0851  0.8497
   25HTM    S1314393   4.422   6.167   2.268  0.0792 -0.3032  0.0962
   26TAL   C12514394   4.280   5.936   2.573 -0.1529  0.2764 -0.3061
   26TAL   C12614395   4.329   5.938   2.723  0.7171 -0.3327  0.1029
   26TAL   C12714396   4.329   5.809   2.799  0.5169  0.2138  0.6266
   26TAL   C12814397   4.371   5.796   2.936 -0.4226 -0.2361 -1.4954
   26TAL   C12914398   4.514   5.838   2.968 -0.2148 -0.1176  0.8060
   26TAL   C13014399   4.579   5.793   3.095  0.0310  0.4055 -0.4772
   27HTM   C13114400   4.473   5.894   2.312  0.5354  0.0359  0.3012
   27HTM   C13214401   4.581   5.894   2.229  0.6554 -0.2868  0.4571
   27HTM   C13314402   4.640   5.764   2.212  0.0490 -0.5399  0.2279
   27HTM   C13414403   4.577   5.665   2.282 -0.5331 -0.4102 -0.1028
   27HTM    S1414404   4.437   5.729   2.375 -0.3596  0.0453 -0.1507
   28TAL   C13514405   4.749   5.750   2.114  0.0206 -0.4207  1.1977
   28TAL   C13614406   4.835   5.879   2.072  0.6849 -0.2343 -0.6259
   28TAL   C13714407   4.927   5.893   1.961  0.0503 -0.0199  0.0808
   28TAL   C13814408   5.080   5.907   1.986  0.6972 -0.2803  0.0953
   28TAL   C13914409   5.140   6.006   2.089 -0.4169  0.5984  0.3900
   28TAL   C14014410   5.083   6.012   2.229 -0.3470  0.0131 -0.6577
   29HTM   C14114411   4.606   5.520   2.287  0.6688 -0.1238 -0.2577
   29HTM   C14214412   4.706   5.446   2.231  0.5265 -0.4693 -0.0590
   29HTM   C14314413   4.706   5.308   2.273 -0.0564 -0.4832 -0.0854
   29HTM   C14414414   4.607   5.277   2.361 -0.3590 -0.1479 -0.3041
   29HTM    S1514415   4.504   5.421   2.398  0.0727  0.2138 -0.4954
   30TAL   C14514416   4.803   5.209   2.205  0.4168 -0.2609  0.3397
   30TAL   C14614417   4.736   5.121   2.102 -0.1670  0.8629  0.4503
   30TAL   C14714418   4.635   5.156   1.995 -1.0248 -1.2103 -0.5347
   30TAL   C14814419   4.488   5.195   2.036  0.0589 -0.1480 -0.0918
   30TAL   C14914420   4.397   5.120   1.947  0.7970 -0.6350 -0.1324
   30TAL   C15014421   4.250   5.148   1.967 -0.1069 -0.7722  0.0790
   31HTM   C15114422   4.574   5.149   2.427 -0.5166  0.1149  0.2877
   31HTM   C15214423   4.454   5.108   2.478 -0.2929  0.1128  0.8184
   31HTM   C15314424   4.464   4.987   2.556  0.0508  0.0938  0.7508
   31HTM   C15414425   4.590   4.937   2.564  0.0890  0.0816  0.1687
   31HTM    S1614426   4.708   5.039   2.473 -0.3092  0.0931 -0.3434
   32TAL   C15514427   4.346   4.917   2.626 -0.2221 -1.2963 -0.7220
   32TAL   C15614428   4.200   4.953   2.599 -0.5245  0.4259 -0.1228
   32TAL   C15714429   4.139   4.912   2.461 -0.2117  0.4078  0.0618
   32TAL   C15814430   3.988   4.924   2.460  1.0242 -1.6432 -0.7172
   32TAL   C15914431   3.944   5.070   2.422 -0.3014 -0.0343  0.1477
   32TAL   C16014432   3.927   5.107   2.282  0.7324 -1.3812 -0.5995
   33HTM   C16114433   4.638   4.826   2.645 -0.4458 -0.3490 -0.2708
   33HTM   C16214434   4.719   4.728   2.596 -0.4265 -0.3840 -0.1695
   33HTM   C16314435   4.783   4.650   2.699 -0.1671 -0.0633 -0.0827
   33HTM   C16414436   4.751   4.688   2.825  0.0115  0.2161 -0.1180
   33HTM    S1714437   4.635   4.826   2.826 -0.1353  0.0950 -0.2646
   34TAL   C16514438   4.885   4.542   2.656  0.3562 -0.7470  0.6270
   34TAL   C16614439   4.806   4.427   2.591 -0.1472  0.3415  1.2039
   34TAL   C16714440   4.899   4.313   2.534 -0.0859 -0.6624 -0.8668
   34TAL   C16814441   5.007   4.358   2.441  0.3253  0.6708  0.3717
   34TAL   C16914442   5.120   4.262   2.446 -0.1008 -0.1199  0.1432
   34TAL   C17014443   5.243   4.299   2.376  0.5104 -0.1288 -0.0017
   35HTM   C17114444   4.789   4.633   2.960 -0.1641 -0.1920 -0.0534
   35HTM   C17214445   4.734   4.536   3.038 -0.0596 -0.1676  0.0510
   35HTM   C17314446   4.797   4.523   3.167 -0.1384  0.1371  0.1213
   35HTM   C17414447   4.900   4.610   3.187 -0.3030  0.3447  0.0706
   35HTM    S1814448   4.926   4.716   3.043 -0.3717  0.1704 -0.0710
   36TAL   C17514449   4.755   4.416   3.257  0.2921  0.6029 -0.0310
   36TAL   C17614450   4.629   4.335   3.248  0.0518 -0.1896 -0.6193
   36TAL   C17714451   4.499   4.416   3.263 -0.6861  0.0884 -0.3367
   36TAL   C17814452   4.360   4.357   3.270 -0.0401  0.6752 -0.8176
   36TAL   C17914453   4.339   4.249   3.392 -0.4929  0.2941  1.3756
   36TAL   C18014454   4.213   4.167   3.371  0.0236  0.0182  0.2037
   37HTM   C18114455   5.004   4.619   3.280 -0.2774 -0.2519  0.4231
   37HTM   C18214456   5.112   4.536   3.275 -0.5217 -0.6061  0.8000
   37HTM   C18314457   5.221   4.578   3.360 -0.4895 -0.6815  0.7963
   37HTM   C18414458   5.196   4.693   3.429 -0.2208 -0.3852  0.4167
   37HTM    S1914459   5.031   4.757   3.393  0.0147  0.0153  0.0314
   38TAL   C18514460   5.350   4.496   3.387  0.3165 -0.8435  0.5760
   38TAL   C18614461   5.409   4.422   3.262 -0.0345 -0.8624 -1.2225
   38TAL   C18714462   5.484   4.498   3.168 -0.1519 -0.9218 -0.2768
   38TAL   C18814463   5.561   4.422   3.054  0.4043  0.3192 -0.1846
   38TAL   C18914464   5.672   4.505   2.985  0.2783  0.1838 -0.1752
   38TAL   C19014465   5.732   4.429   2.867 -0.1429  0.5653 -0.6095
   39HTM   C19114466   5.265   4.762   3.532 -0.5245  0.0401 -0.4968
   39HTM   C19214467   5.321   4.886   3.547 -0.2344 -0.0341 -0.9570
   39HTM   C19314468   5.378   4.909   3.677  0.5165  0.0393 -1.2878
   39HTM   C19414469   5.365   4.803   3.762  0.7987  0.1695 -1.0798
   39HTM    S2014470   5.280   4.665   3.684  0.1331  0.2097 -0.4452
   40TAL   C19514471   5.458   5.037   3.709  0.6517 -0.0499  1.2956
   40TAL   C19614472   5.376   5.169   3.707 -0.6195 -0.1486 -0.6237
   40TAL   C19714473   5.340   5.236   3.835  0.8009  0.0202 -0.3386
   40TAL   C19814474   5.428   5.239   3.962  0.4627 -0.5815 -1.0981
   40TAL   C19914475   5.334   5.232   4.083  0.8478 -0.3086  1.5577
   40TAL   C20014476   5.400   5.175   4.210  0.0145 -0.1972 -0.2401
   41HTM   C20114477   5.420   4.776   3.904 -0.1074  0.5150  0.4031
   41HTM   C20214478   5.341   4.720   4.000  0.1581  0.6623  0.7089
   41HTM   C20314479   5.401   4.720   4.131  0.6810  0.5159  0.4748
   41HTM   C20414480   5.525   4.775   4.134  0.8141  0.2568 -0.0094
   41HTM    S2114481   5.577   4.832   3.971  0.2853  0.1772 -0.2088
   42TAL   C20514482   5.322   4.636   4.234 -0.8216 -0.4214 -0.4132
   42TAL   C20614483   5.227   4.707   4.334 -0.4128  0.5072  0.4267
   42TAL   C20714484   5.171   4.623   4.439 -0.5126 -0.0215 -0.4638
   42TAL   C20814485   5.024   4.657   4.477 -0.6867 -0.2245 -0.4913
   42TAL   C20914486   4.914   4.686   4.377 -0.2981  0.7965 -0.0941
   42TAL   C21014487   4.870   4.835   4.354  0.4711  0.5523 -0.6220
   43HTM   C21114488   5.624   4.777   4.240  0.3835  0.1033  0.0965
   43HTM   C21214489   5.751   4.822   4.222  0.2173  0.7327  0.4200
   43HTM   C21314490   5.829   4.826   4.343 -0.0132  0.8111  0.5653
   43HTM   C21414491   5.760   4.785   4.454 -0.0226  0.2417  0.3526
   43HTM    S2214492   5.591   4.737   4.412  0.2612 -0.4433 -0.0508
   44TAL   C21514493   5.969   4.872   4.333 -0.2309  0.8305 -0.6027
   44TAL   C21614494   6.001   5.011   4.389 -0.6671 -0.2945 -0.7397
   44TAL   C21714495   6.156   5.032   4.371  0.3635 -0.4468 -0.0078
   44TAL   C21814496   6.188   5.181   4.409  0.8410  0.4555  1.3931
   44TAL   C21914497   6.332   5.210   4.438 -0.5341 -0.2851  0.0298
   44TAL   C22014498   6.431   5.155   4.335  0.3357  0.3803  0.1593
   45HTM   C22114499   5.804   4.761   4.585  0.6046  0.3411  0.5669
   45HTM   C22214500   5.926   4.728   4.637  0.4021  0.5480  1.1916
   45HTM   C22314501   5.923   4.701   4.779 -0.2798  0.5382  1.1837
   45HTM   C22414502   5.800   4.715   4.835 -0.5975  0.3236  0.5531
   45HTM    S2314503   5.676   4.762   4.712 -0.0557  0.1158 -0.0847
   46TAL   C22514504   6.064   4.653   4.830  0.9047  0.0276  0.1721
   46TAL   C22614505   6.144   4.531   4.774  0.3875  0.1987 -0.1734
   46TAL   C22714506   6.267   4.494   4.861 -0.4576 -0.0834 -0.0236
   46TAL   C22814507   6.353   4.616   4.894 -0.6254  0.0889  0.0577
   46TAL   C22914508   6.480   4.575   4.978  0.0884  0.2865 -0.0967
   46TAL   C23014509   6.598   4.665   5.005  0.5330 -0.4246  0.1102
   47HTM   C23114510   5.760   4.719   4.979 -0.2371  0.6378  0.3603
   47HTM   C23214511   5.659   4.794   5.032  0.5612  1.4892  0.7463
   47HTM   C23314512   5.637   4.770   5.173  0.9004  1.6869  0.8345
   47HTM   C23414513   5.722   4.678   5.227  0.3607  0.9864  0.5156
   47HTM    S2414514   5.837   4.613   5.104 -0.6253  0.0150  0.0760
   48TAL   C23514515   5.543   4.851   5.253  0.9899 -0.9254 -1.0493
   48TAL   C23614516   5.490   4.797   5.387  0.4934  0.5629 -0.1329
   48TAL   C23714517   5.449   4.916   5.470 -1.3890 -0.6348 -0.0651
   48TAL   C23814518   5.437   4.912   5.620 -1.1230  0.1224 -0.5719
   48TAL   C23914519   5.554   4.844   5.705 -0.5068  0.4430  0.5023
   48TAL   C24014520   5.552   4.906   5.842 -0.8168  0.0636 -0.3460
    1HTM     C114521   1.170   3.548   1.756  0.3483  0.6025  0.0269
    1HTM     C214522   1.124   3.425   1.793  0.2069  0.5054 -0.4616
    1HTM     C314523   1.166   3.384   1.924 -0.0039  0.0187 -0.5413
    1HTM     C414524   1.245   3.476   1.988 -0.0232 -0.2555 -0.1136
    1HTM     S114525   1.272   3.622   1.885  0.2253  0.0827  0.4271
    2TAL     C514526   1.136   3.248   1.991  0.1228 -1.4459 -0.4261
    2TAL     C614527   1.234   3.150   1.962  0.6698 -0.2424  0.2932
    2TAL     C714528   1.209   3.021   2.029  0.7813 -0.1998 -0.1035
    2TAL     C814529   1.096   2.916   1.984 -0.2359 -0.7828  0.2726
    2TAL     C914530   1.090   2.864   1.844 -0.4460  0.4412 -0.9091
    2TAL    C1014531   0.973   2.776   1.831 -0.3113  0.2175  0.0799
    3HTM    C1114532   1.316   3.470   2.113 -0.4514  0.2095  0.3589
    3HTM    C1214533   1.408   3.564   2.149 -0.5312  0.4242  0.0149
    3HTM    C1314534   1.436   3.566   2.291 -0.1213  0.5900 -0.0659
    3HTM    C1414535   1.365   3.475   2.362  0.2711  0.5018  0.2164
    3HTM     S214536   1.257   3.377   2.256  0.1524  0.2001  0.6093
    4TAL    C1514537   1.545   3.668   2.332  0.9875  0.7183  0.3485
    4TAL    C1614538   1.683   3.619   2.326 -0.2110  0.1859 -0.4438
    4TAL    C1714539   1.790   3.698   2.386 -0.0453 -1.3564 -0.9247
    4TAL    C1814540   1.795   3.723   2.541 -0.0551  0.2265  0.4482
    4TAL    C1914541   1.826   3.602   2.635  0.8331 -0.6739 -0.1691
    4TAL    C2014542   1.824   3.642   2.785 -0.6121 -0.6997  0.1755
    5HTM    C2114543   1.350   3.434   2.501  0.4399 -0.5154  0.3302
    5HTM    C2214544   1.295   3.322   2.557  0.6123 -0.5942  0.3432
    5HTM    C2314545   1.314   3.312   2.699  0.4789 -0.4612  0.3706
    5HTM    C2414546   1.384   3.417   2.752  0.2046 -0.2810  0.3784
    5HTM     S314547   1.430   3.537   2.625  0.0929 -0.2653  0.3518
    6TAL    C2514548   1.250   3.193   2.771 -0.6182 -0.3644  0.3027
    6TAL    C2614549   1.288   3.044   2.721  0.7156 -0.3365 -1.0625
    6TAL    C2714550   1.221   2.938   2.810  1.0647  0.6953 -0.3664
    6TAL    C2814551   1.261   2.802   2.776 -0.3070  0.3818 -1.0269
    6TAL    C2914552   1.168   2.704   2.834  0.4970  1.4515  0.5827
    6TAL    C3014553   1.228   2.572   2.898  0.0014 -0.1564 -0.3630
    7HTM    C3114554   1.415   3.447   2.893 -0.3439  0.2677 -0.0855
    7HTM    C3214555   1.358   3.531   2.983 -0.0996  0.6774 -0.3046
    7HTM    C3314556   1.427   3.536   3.110 -0.1493  0.7228 -0.2791
    7HTM    C3414557   1.537   3.456   3.115 -0.4314  0.3478 -0.0406
    7HTM     S414558   1.562   3.367   2.960 -0.6580 -0.0953  0.1720
    8TAL    C3514559   1.384   3.635   3.215 -0.0433  0.7543 -1.0721
    8TAL    C3614560   1.238   3.624   3.253  0.4274 -0.0854  0.6396
    8TAL    C3714561   1.208   3.487   3.321  1.1670  1.3346  0.6588
    8TAL    C3814562   1.066   3.485   3.391 -0.8293 -0.6036 -0.0637
    8TAL    C3914563   0.941   3.462   3.306 -0.1468 -0.7708 -0.3057
    8TAL    C4014564   0.940   3.333   3.223 -0.1043  0.1726  0.9026
    9HTM    C4114565   1.643   3.421   3.213 -0.4187 -0.4991  0.4901
    9HTM    C4214566   1.723   3.311   3.210 -0.3634 -0.4671  0.7558
    9HTM    C4314567   1.828   3.312   3.309 -0.2087 -0.0604  0.5915
    9HTM    C4414568   1.828   3.424   3.387 -0.1460  0.2176  0.2005
    9HTM     S514569   1.695   3.537   3.342 -0.2786 -0.0144  0.0079
   10TAL    C4514570   1.936   3.209   3.308 -0.0948  0.2301  0.0725
   10TAL    C4614571   2.071   3.226   3.236 -0.5519 -0.4208  0.3543
   10TAL    C4714572   2.063   3.224   3.091 -0.6285  0.8019 -0.1369
   10TAL    C4814573   2.200   3.212   3.024 -0.0443 -0.6041 -0.0215
   10TAL    C4914574   2.209   3.230   2.868 -0.1703  0.0621 -0.0314
   10TAL    C5014575   2.333   3.173   2.817 -0.2704 -0.2252  0.4553
   11HTM    C5114576   1.910   3.474   3.507 -0.5818  0.0429  0.2513
   11HTM    C5214577   1.922   3.597   3.564 -0.6856  0.0823  0.1885
   11HTM    C5314578   2.006   3.598   3.681 -0.3247  0.2995 -0.0702
   11HTM    C5414579   2.059   3.477   3.713  0.0543  0.4257 -0.2047
   11HTM     S614580   2.006   3.350   3.596 -0.0156  0.2789 -0.0136
   12TAL    C5514581   2.033   3.723   3.767  0.4374 -0.1146  0.9953
   12TAL    C5614582   2.143   3.804   3.721 -1.6062 -0.4618  0.5144
   12TAL    C5714583   2.130   3.962   3.749  1.3031  0.2688  0.7672
   12TAL    C5814584   2.065   4.020   3.626  0.1780 -0.1808 -0.7934
   12TAL    C5914585   2.043   4.168   3.644  0.5955  0.8403 -0.7264
   12TAL    C6014586   2.009   4.209   3.512 -0.7613  0.2365  0.6745
   13HTM    C6114587   2.160   3.439   3.815  0.2296  0.1470  0.0525
   13HTM    C6214588   2.295   3.453   3.821  0.2089  0.1853  0.4434
   13HTM    C6314589   2.351   3.416   3.949 -0.1416  0.1412  0.5859
   13HTM    C6414590   2.258   3.375   4.040 -0.3880  0.0693  0.3035
   13HTM     S714591   2.091   3.379   3.970 -0.1951  0.0515 -0.1677
   14TAL    C6514592   2.500   3.430   3.964 -0.3508  0.0158 -0.1640
   14TAL    C6614593   2.587   3.322   3.911  0.2826  0.0123 -0.0424
   14TAL    C6714594   2.565   3.175   3.947 -0.1897 -0.0316  1.2837
   14TAL    C6814595   2.670   3.068   3.891  0.9662 -0.8480  0.1396
   14TAL    C6914596   2.812   3.110   3.915 -0.3922 -0.5620 -0.5283
   14TAL    C7014597   2.933   3.021   3.874 -0.4333 -0.1835 -0.7711
   15HTM    C7114598   2.270   3.301   4.162 -0.1204  0.1803 -0.2576
   15HTM    C7214599   2.166   3.268   4.243 -0.3841  0.3210 -0.5350
   15HTM    C7314600   2.205   3.237   4.378 -0.7837  0.2428 -0.4339
   15HTM    C7414601   2.339   3.246   4.399 -0.8247  0.0427 -0.0792
   15HTM     S814602   2.427   3.294   4.250 -0.3582 -0.0635  0.1564
   16TAL    C7514603   2.102   3.200   4.496 -1.2216 -1.2625  0.2567
   16TAL    C7614604   1.956   3.247   4.476 -0.3115  0.4687  0.1198
   16TAL    C7714605   1.880   3.219   4.601 -0.6794 -0.1648 -0.1985
   16TAL    C7814606   1.843   3.075   4.604 -0.2804  0.8863  1.0579
   16TAL    C7914607   1.781   3.002   4.723 -0.9764  1.7019  0.3104
   16TAL    C8014608   1.764   2.849   4.699  0.2853  0.6005  1.2569
   17HTM    C8114609   2.426   3.237   4.524 -0.0063 -0.0317  0.2415
   17HTM    C8214610   2.561   3.250   4.529  0.0010 -0.0085  0.0134
   17HTM    C8314611   2.614   3.256   4.663  0.2455 -0.2090 -0.0712
   17HTM    C8414612   2.518   3.248   4.760  0.4245 -0.3849  0.0926
   17HTM     S914613   2.353   3.232   4.689  0.2974 -0.3107  0.3683
   18TAL    C8514614   2.761   3.303   4.670 -0.3302  0.0890  1.2075
   18TAL    C8614615   2.839   3.313   4.802 -0.7421 -1.9029  0.8869
   18TAL    C8714616   2.916   3.195   4.843 -0.0347  0.5949 -0.7806
   18TAL    C8814617   2.984   3.182   4.980  0.2251 -1.4768  0.9399
   18TAL    C8914618   3.051   3.055   5.015  0.4735 -0.2711 -0.0285
   18TAL    C9014619   3.138   3.064   5.137 -0.5951 -0.9999 -0.0605
   19HTM    C9114620   2.541   3.229   4.901 -0.1614 -0.3624  0.2076
   19HTM    C9214621   2.533   3.107   4.961 -0.0514 -0.3023  0.3444
   19HTM    C9314622   2.575   3.108   5.099 -0.1198 -0.0951  0.3653
   19HTM    C9414623   2.615   3.230   5.143 -0.2820  0.0027  0.2445
   19HTM    S1014624   2.603   3.356   5.014 -0.3615 -0.1605  0.0937
   20TAL    C9514625   2.576   2.990   5.191  0.7404 -0.2441 -0.1643
   20TAL    C9614626   2.474   2.889   5.180  1.2964  0.4711  0.4551
   20TAL    C9714627   2.324   2.931   5.193  0.1375 -0.1768  0.2688
   20TAL    C9814628   2.231   2.811   5.160 -0.3632 -1.1086 -0.3350
   20TAL    C9914629   2.088   2.843   5.168  0.6417  0.3733 -1.2233
   20TAL   C10014630   2.013   2.720   5.115 -0.3385 -0.0738 -0.8261
   21HTM   C10114631   2.672   3.272   5.272  0.1008  0.7423 -0.2284
   21HTM   C10214632   2.800   3.299   5.308  0.1153  0.8760 -0.3794
   21HTM   C10314633   2.816   3.331   5.448  0.2911  0.5946 -0.3347
   21HTM   C10414634   2.699   3.327   5.519  0.4107  0.2463 -0.1495
   21HTM    S1114635   2.560   3.284   5.413  0.3097  0.2467 -0.0163
   22TAL   C10514636   2.951   3.386   5.493 -0.2528  0.5946  0.1029
   22TAL   C10614637   3.068   3.287   5.473 -0.7922  0.3346 -0.5091
   22TAL   C10714638   3.084   3.167   5.582 -0.3693  0.1013 -0.2921
   22TAL   C10814639   3.149   3.211   5.714  0.5219 -0.0543 -0.3546
   22TAL   C10914640   3.176   3.101   5.817  0.4557  0.5777 -0.4657
   22TAL   C11014641   3.283   2.991   5.790 -0.1482 -0.1574  0.2016
   23HTM   C11114642   2.675   3.345   5.660 -0.0366 -0.0453 -0.0775
   23HTM   C11214643   2.638   3.457   5.728  0.1275  0.0323 -0.1155
   23HTM   C11314644   2.601   3.432   5.865  0.2207  0.1525 -0.0685
   23HTM   C11414645   2.610   3.301   5.902  0.1276  0.1665  0.0053
   23HTM    S1214646   2.666   3.198   5.765 -0.0867  0.0280  0.0215
   24TAL   C11514647   2.527   3.543   5.950 -0.1868  1.2238  0.7634
   24TAL   C11614648   2.509   3.687   5.895  0.8021 -0.2514 -0.4231
   24TAL   C11714649   2.364   3.730   5.921 -0.4835  1.4395  0.2193
   24TAL   C11814650   2.329   3.880   5.936  0.1574  1.1087  0.7915
   24TAL   C11914651   2.175   3.895   5.908 -0.0691 -0.2595  0.3644
   24TAL   C12014652   2.112   3.972   6.026 -1.1729 -0.9310  0.3448
   25HTM   C12114653   2.594   3.225   6.029  0.2074  0.0925 -0.3570
   25HTM   C12214654   2.618   3.094   6.059  1.2643  0.3346 -0.0615
   25HTM   C12314655   2.571   3.054   6.189  1.7924  0.2970  0.1220
   25HTM   C12414656   2.511   3.155   6.259  1.1382  0.0263 -0.0335
   25HTM    S1314657   2.509   3.309   6.165 -0.2060 -0.2040 -0.4268
   26TAL   C12514658   2.604   2.915   6.246 -0.4890  0.2149  0.7012
   26TAL   C12614659   2.555   2.789   6.171  0.4886  0.6950 -0.3839
   26TAL   C12714660   2.402   2.736   6.178 -0.0753 -0.9758  1.3674
   26TAL   C12814661   2.355   2.754   6.316  0.0171  0.7125 -0.2165
   26TAL   C12914662   2.208   2.733   6.346 -0.7743  0.3254 -0.4777
   26TAL   C13014663   2.152   2.593   6.328  0.1211  1.4945  0.3251
   27HTM   C13114664   2.446   3.158   6.386 -0.1285 -0.4631 -0.0219
   27HTM   C13214665   2.322   3.125   6.431  0.0541 -0.6681  0.3430
   27HTM   C13314666   2.310   3.124   6.575  0.4364 -0.5411  0.3767
   27HTM   C13414667   2.426   3.156   6.639  0.5452 -0.2394  0.0377
   27HTM    S1414668   2.559   3.190   6.523  0.1705 -0.0908 -0.3536
   28TAL   C13514669   2.184   3.088   6.644 -0.2029 -0.4271 -0.7747
   28TAL   C13614670   2.145   2.940   6.652  0.6424  0.1979  0.1986
   28TAL   C13714671   2.229   2.847   6.732  0.3843 -0.2329  0.3638
   28TAL   C13814672   2.188   2.705   6.761  0.5270  0.2268  0.2854
   28TAL   C13914673   2.294   2.602   6.786 -0.6874 -0.8215 -1.2142
   28TAL   C14014674   2.379   2.559   6.665  0.5624 -0.0837 -0.9092
   29HTM   C14114675   2.456   3.173   6.780 -0.2926  0.5554 -0.5396
   29HTM   C14214676   2.407   3.096   6.881 -0.4261  0.2887 -0.8041
   29HTM   C14314677   2.465   3.125   7.009 -0.3115 -0.3145 -0.7128
   29HTM   C14414678   2.558   3.225   7.006 -0.0906 -0.5077 -0.3785
   29HTM    S1514679   2.581   3.289   6.839 -0.0095  0.0616 -0.1515
   30TAL   C14514680   2.402   3.055   7.137 -0.1560 -0.4198  0.5224
   30TAL   C14614681   2.451   2.909   7.158 -0.7277  0.0780 -0.3844
   30TAL   C14714682   2.361   2.841   7.261  0.6669  0.8583  0.1828
   30TAL   C14814683   2.401   2.709   7.340  0.0840 -0.2762 -0.3266
   30TAL   C14914684   2.449   2.594   7.253  0.7435 -1.0006  0.5388
   30TAL   C15014685   2.479   2.463   7.330  0.1892  0.3283 -0.4675
   31HTM   C15114686   2.639   3.271   7.119 -0.7946  0.5045  0.2983
   31HTM   C15214687   2.710   3.387   7.108 -0.6241  0.3731 -0.0302
   31HTM   C15314688   2.802   3.408   7.217  0.1493  0.0560 -0.6086
   31HTM   C15414689   2.802   3.309   7.310  0.5685 -0.0546 -0.7211
   31HTM    S1614690   2.684   3.179   7.267  0.0147  0.2357 -0.1003
   32TAL   C15514691   2.878   3.535   7.207 -0.6258 -0.4634 -0.6565
   32TAL   C15614692   2.801   3.673   7.249  0.0196  0.0850 -0.9180
   32TAL   C15714693   2.734   3.697   7.392 -0.6303  0.4710 -0.3834
   32TAL   C15814694   2.812   3.679   7.524 -0.2368  0.1298 -0.8303
   32TAL   C15914695   2.936   3.770   7.548  0.5769  1.1631  0.7005
   32TAL   C16014696   2.966   3.779   7.695 -0.3712  1.2492  0.2321
   33HTM   C16114697   2.863   3.310   7.439 -0.6012  0.0004  0.0503
   33HTM   C16214698   2.979   3.371   7.474 -0.8060  0.6068 -0.2927
   33HTM   C16314699   3.018   3.349   7.611 -0.3421  0.8861 -0.3731
   33HTM   C16414700   2.930   3.272   7.681  0.2166  0.4927 -0.0917
   33HTM    S1714701   2.791   3.220   7.578  0.1999 -0.2669  0.3000
   34TAL   C16514702   3.132   3.420   7.671 -0.2073  0.5425 -0.3285
   34TAL   C16614703   3.265   3.425   7.609 -0.8387  0.0768  0.8559
   34TAL   C16714704   3.369   3.488   7.713 -0.4573 -0.1947 -0.4426
   34TAL   C16814705   3.359   3.640   7.744  0.0550  0.9608  0.5576
   34TAL   C16914706   3.361   3.750   7.639 -0.5506  0.0299 -0.0789
   34TAL   C17014707   3.414   3.885   7.689 -0.3771  0.5545 -0.7084
   35HTM   C17114708   2.916   3.248   7.821 -0.0711  0.0877  0.0520
   35HTM   C17214709   2.933   3.128   7.884 -0.1839  0.0076 -0.0697
   35HTM   C17314710   2.894   3.129   8.022 -0.0497 -0.0582 -0.0317
   35HTM   C17414711   2.848   3.249   8.066  0.1657 -0.0282  0.1193
   35HTM    S1814712   2.849   3.372   7.934  0.2159  0.0863  0.2256
   36TAL   C17514713   2.901   3.007   8.120 -0.5076  0.8270 -0.4418
   36TAL   C17614714   3.045   2.960   8.137 -0.1753  0.6110  0.1878
   36TAL   C17714715   3.077   2.823   8.207  0.2715 -0.6505  0.3428
   36TAL   C17814716   3.219   2.786   8.218  0.7249 -0.2116  0.7595
   36TAL   C17914717   3.290   2.819   8.344  0.7798 -0.5073 -0.9709
   36TAL   C18014718   3.334   2.973   8.373  0.6892  0.2605  0.9955
   37HTM   C18114719   2.794   3.291   8.193  0.4379 -0.0371 -0.5711
   37HTM   C18214720   2.687   3.228   8.249  0.1107  0.0475 -1.0879
   37HTM   C18314721   2.636   3.294   8.367 -0.2135 -0.0799 -1.1539
   37HTM   C18414722   2.704   3.407   8.400 -0.1334 -0.2616 -0.6875
   37HTM    S1914723   2.839   3.439   8.285  0.3614 -0.2863 -0.1243
   38TAL   C18514724   2.513   3.242   8.442  0.4830  0.7246 -0.7990
   38TAL   C18614725   2.520   3.097   8.484  0.0762  0.7508  0.0432
   38TAL   C18714726   2.625   3.067   8.588 -0.4595  1.3727 -0.0436
   38TAL   C18814727   2.666   2.910   8.603  0.2465 -0.3436  0.1767
   38TAL   C18914728   2.747   2.834   8.497  0.3255  0.1399 -0.5472
   38TAL   C19014729   2.775   2.700   8.533  1.2081  0.7376 -0.0017
   39HTM   C19114730   2.688   3.488   8.516 -0.1648  0.1711 -0.9693
   39HTM   C19214731   2.752   3.482   8.636  0.1460  0.2190 -1.1318
   39HTM   C19314732   2.711   3.583   8.730  0.2332  0.1242 -0.9902
   39HTM   C19414733   2.615   3.667   8.681 -0.0113  0.0039 -0.7199
   39HTM    S2014734   2.569   3.624   8.512 -0.3733  0.0011 -0.6223
   40TAL   C19514735   2.765   3.580   8.872  0.0401 -0.9612 -0.0221
   40TAL   C19614736   2.795   3.449   8.940 -0.9839 -0.6397 -0.1223
   40TAL   C19714737   2.809   3.483   9.085  0.6554  0.4284 -0.1838
   40TAL   C19814738   2.854   3.367   9.173  0.0015 -0.7377 -0.0433
   40TAL   C19914739   2.856   3.398   9.321 -1.1130 -0.3437 -1.0630
   40TAL   C20014740   2.726   3.401   9.379  0.1793 -0.2317 -0.1000
   41HTM   C20114741   2.535   3.763   8.754  0.3415  0.0033  0.3796
   41HTM   C20214742   2.574   3.868   8.831  0.3160 -0.0326  0.4420
   41HTM   C20314743   2.465   3.940   8.891  0.2788  0.1501  0.1593
   41HTM   C20414744   2.342   3.890   8.860  0.2757  0.3254 -0.1182
   41HTM    S2114745   2.355   3.746   8.751  0.3203  0.2726 -0.0437
   42TAL   C20514746   2.493   4.054   8.980 -0.0016 -0.6077 -0.1793
   42TAL   C20614747   2.500   4.018   9.131 -0.5957 -1.5836 -0.1173
   42TAL   C20714748   2.487   4.140   9.229 -0.0003 -0.1410  0.4359
   42TAL   C20814749   2.370   4.236   9.224 -0.0775  0.3120  0.5321
   42TAL   C20914750   2.393   4.373   9.289  1.0773  0.6921  0.1290
   42TAL   C21014751   2.408   4.366   9.448 -0.3467 -0.8964  0.7605
   43HTM   C21114752   2.209   3.922   8.914  0.2362 -0.5508  0.3059
   43HTM   C21214753   2.135   4.037   8.908  1.0018 -0.0478  0.2112
   43HTM   C21314754   2.013   4.031   8.984  1.0485  0.9151  0.3865
   43HTM   C21414755   1.993   3.912   9.048  0.3184  1.1464  0.6143
   43HTM    S2214756   2.129   3.797   9.017 -0.4909  0.1582  0.6259
   44TAL   C21514757   1.910   4.141   9.001 -0.2305 -0.1475  0.1570
   44TAL   C21614758   1.956   4.287   8.978  0.4721  1.1490 -0.1721
   44TAL   C21714759   1.877   4.382   9.069 -0.2414  0.7656  0.4502
   44TAL   C21814760   1.868   4.521   9.016  0.2695  0.0755  0.5502
   44TAL   C21914761   1.740   4.593   9.051 -0.5119 -0.1856 -0.9839
   44TAL   C22014762   1.742   4.728   8.983 -0.0561 -0.0130 -0.2672
   45HTM   C22114763   1.878   3.860   9.122 -0.1052  0.6446 -0.3840
   45HTM   C22214764   1.890   3.822   9.253  0.0136  1.7882 -0.0424
   45HTM   C22314765   1.788   3.729   9.295  0.2968  1.8292  0.7527
   45HTM   C22414766   1.700   3.695   9.197  0.3941  0.7168  1.0173
   45HTM    S2314767   1.737   3.780   9.042  0.1334 -0.4779  0.2778
   46TAL   C22514768   1.783   3.689   9.432  0.4480 -0.0618 -0.5078
   46TAL   C22614769   1.802   3.538   9.460 -0.4554 -0.6328 -0.5336
   46TAL   C22714770   1.933   3.483   9.512  0.0118  0.4281 -0.3986
   46TAL   C22814771   2.038   3.451   9.405 -0.4044  0.1122  0.0686
   46TAL   C22914772   2.174   3.426   9.455 -0.7493  0.6539  0.8238
   46TAL   C23014773   2.272   3.393   9.338  0.4572  0.9713  1.6520
   47HTM   C23114774   1.574   3.622   9.177  0.1395 -0.1261  0.1181
   47HTM   C23214775   1.455   3.670   9.130 -0.1170  0.0225  0.8857
   47HTM   C23314776   1.353   3.569   9.117 -0.2138  0.0786  1.1783
   47HTM   C23414777   1.394   3.444   9.153 -0.0312 -0.0271  0.6334
   47HTM    S2414778   1.566   3.444   9.208  0.2797 -0.2071 -0.2987
   48TAL   C23514779   1.210   3.608   9.063 -0.4143  0.4450 -0.8511
   48TAL   C23614780   1.162   3.745   9.105 -0.6452 -0.4110 -0.7105
   48TAL   C23714781   1.004   3.778   9.089 -0.2092  0.5488 -0.8933
   48TAL   C23814782   0.956   3.900   9.169 -0.1103  0.7287 -0.4171
   48TAL   C23914783   0.806   3.916   9.181 -0.7542  0.0839 -1.0973
   48TAL   C24014784   0.758   3.972   9.323 -0.1852  0.4858  0.2812
    1HTM     C114785   0.274   3.882   7.235  0.0502  0.2177  0.3083
    1HTM     C214786   0.335   3.760   7.234  0.2450  0.3147  0.3567
    1HTM     C314787   0.421   3.739   7.121  0.2973  0.4151  0.3772
    1HTM     C414788   0.425   3.845   7.035  0.1425  0.3949  0.3444
    1HTM     S114789   0.320   3.980   7.091 -0.0832  0.2461  0.2848
    2TAL     C514790   0.512   3.614   7.104  0.2925  0.3756  0.1476
    2TAL     C614791   0.455   3.496   7.030  0.7185 -0.0257  0.0465
    2TAL     C714792   0.548   3.396   6.957  0.0233 -0.1757 -0.4160
    2TAL     C814793   0.665   3.449   6.870  0.0306  0.0425 -0.9491
    2TAL     C914794   0.742   3.358   6.776 -0.8472 -0.6585 -0.4135
    2TAL    C1014795   0.757   3.206   6.796  0.1391 -1.0987 -0.0138
    3HTM    C1114796   0.505   3.856   6.917  0.8693 -0.6149  0.2793
    3HTM    C1214797   0.613   3.935   6.889  0.8742 -0.6804  0.1086
    3HTM    C1314798   0.662   3.921   6.754  0.4809 -0.5080 -0.0540
    3HTM    C1414799   0.591   3.832   6.679  0.1760 -0.3110 -0.0074
    3HTM     S214800   0.457   3.757   6.774  0.3636 -0.3280  0.2475
    4TAL    C1514801   0.767   4.018   6.716 -0.7850  0.4312 -0.4249
    4TAL    C1614802   0.792   4.060   6.572 -0.0967 -1.1590 -0.0260
    4TAL    C1714803   0.723   4.189   6.518  0.2207 -0.7306  0.8947
    4TAL    C1814804   0.722   4.312   6.596 -0.9516  0.1527 -0.9152
    4TAL    C1914805   0.648   4.444   6.586 -0.6266 -0.4328 -0.2433
    4TAL    C2014806   0.684   4.553   6.472 -0.8657 -0.3302 -0.1539
    5HTM    C2114807   0.618   3.780   6.549 -0.2581  0.0892 -0.2008
    5HTM    C2214808   0.579   3.824   6.426 -0.4566 -0.3521 -0.3009
    5HTM    C2314809   0.656   3.768   6.318 -0.1114 -0.1504 -0.1651
    5HTM    C2414810   0.753   3.681   6.358  0.3502  0.4446  0.0385
    5HTM     S314811   0.755   3.663   6.538  0.3852  0.7993  0.0748
    6TAL    C2514812   0.627   3.814   6.179 -1.3049  0.0193  0.1505
    6TAL    C2614813   0.676   3.955   6.144  0.9028  0.2746  0.0771
    6TAL    C2714814   0.641   4.018   6.005 -0.1449  0.6840  0.6265
    6TAL    C2814815   0.743   4.107   5.943 -0.6259 -0.0646 -0.1922
    6TAL    C2914816   0.718   4.147   5.795  0.5370 -0.0448  0.1173
    6TAL    C3014817   0.635   4.265   5.772  0.1007  0.0335  0.5479
    7HTM    C3114818   0.845   3.604   6.273  0.3497 -0.2168 -0.0019
    7HTM    C3214819   0.845   3.469   6.254  0.5204 -0.1885 -0.2211
    7HTM    C3314820   0.939   3.423   6.156  0.2443  0.1371 -0.6433
    7HTM    C3414821   1.012   3.524   6.099 -0.1369  0.3572 -0.7460
    7HTM     S414822   0.966   3.685   6.166 -0.1772  0.1687 -0.3141
    8TAL    C3514823   0.955   3.271   6.127 -0.2964  0.1614 -1.0172
    8TAL    C3614824   0.933   3.160   6.237  0.2713  0.3796 -0.0189
    8TAL    C3714825   0.925   3.008   6.183  0.4239  0.6736 -0.7738
    8TAL    C3814826   0.841   2.921   6.273  0.7115 -0.4934 -0.0977
    8TAL    C3914827   0.869   2.907   6.422  0.6194  0.5461  0.8724
    8TAL    C4014828   0.770   2.822   6.492  0.1354  0.1838  0.2997
    9HTM    C4114829   1.100   3.523   5.990  0.1521 -0.6340 -0.1612
    9HTM    C4214830   1.224   3.580   5.987  0.0550 -0.4244 -0.2285
    9HTM    C4314831   1.292   3.562   5.862 -0.1040 -0.0449 -0.3721
    9HTM    C4414832   1.221   3.492   5.770 -0.1281  0.0347 -0.4140
    9HTM     S514833   1.060   3.442   5.834  0.0494 -0.3663 -0.2748
   10TAL    C4514834   1.426   3.637   5.830  0.5261 -0.5035 -0.1591
   10TAL    C4614835   1.539   3.615   5.931  1.4586 -0.1317 -0.1193
   10TAL    C4714836   1.587   3.473   5.965  0.6804 -0.1306  0.2391
   10TAL    C4814837   1.734   3.435   5.930  0.2124 -0.6894 -1.2377
   10TAL    C4914838   1.848   3.522   5.975 -0.4837 -0.2502 -0.6044
   10TAL    C5014839   1.890   3.490   6.121  0.7029 -0.2297 -0.4619
   11HTM    C5114840   1.245   3.459   5.633 -0.3309 -0.6970  0.0152
   11HTM    C5214841   1.346   3.382   5.583 -0.4472 -0.8608  0.0294
   11HTM    C5314842   1.345   3.372   5.439 -0.1795 -0.4838 -0.0024
   11HTM    C5414843   1.243   3.441   5.380  0.1408 -0.0326 -0.0406
   11HTM     S614844   1.140   3.525   5.503  0.1291 -0.0488 -0.0394
   12TAL    C5514845   1.455   3.290   5.366 -0.0560 -0.2541  0.7746
   12TAL    C5614846   1.562   3.371   5.318 -0.3742 -0.4697  0.2998
   12TAL    C5714847   1.664   3.299   5.228 -0.3231 -0.2565 -0.6888
   12TAL    C5814848   1.766   3.404   5.163 -0.9081  0.5912  0.4779
   12TAL    C5914849   1.733   3.521   5.072  0.9923  0.6707 -0.0576
   12TAL    C6014850   1.626   3.493   4.963  0.7579  0.5287 -0.6362
   13HTM    C6114851   1.193   3.433   5.241 -0.3687  0.1372  0.1866
   13HTM    C6214852   1.202   3.533   5.149 -1.2161  0.6609  0.6393
   13HTM    C6314853   1.132   3.505   5.026 -1.2368  0.7643  0.6274
   13HTM    C6414854   1.070   3.384   5.025 -0.4051  0.3193  0.1655
   13HTM     S714855   1.094   3.295   5.180  0.4756 -0.2693 -0.2937
   14TAL    C6514856   1.129   3.618   4.923 -0.5291  0.2254  0.3080
   14TAL    C6614857   1.066   3.753   4.957  0.1773 -1.3093 -0.2136
   14TAL    C6714858   1.104   3.869   4.858 -0.0447  0.3571  0.3195
   14TAL    C6814859   1.099   3.848   4.699  0.0870 -0.5405 -0.3192
   14TAL    C6914860   0.959   3.841   4.640  0.8345  0.2259 -0.2114
   14TAL    C7014861   0.959   3.797   4.497 -0.4729  0.2080 -0.2045
   15HTM    C7114862   1.014   3.327   4.902 -0.4523  0.3424 -0.3778
   15HTM    C7214863   0.947   3.389   4.801 -0.0106  0.0808 -0.8398
   15HTM    C7314864   0.907   3.300   4.695  0.4632 -0.1944 -0.7954
   15HTM    C7414865   0.943   3.170   4.716  0.3828 -0.1427 -0.2996
   15HTM     S814866   1.031   3.150   4.872 -0.3029  0.2607  0.1532
   16TAL    C7514867   0.796   3.344   4.593 -1.2598 -0.2490 -0.9265
   16TAL    C7614868   0.697   3.446   4.640  0.8092  0.2656 -0.3720
   16TAL    C7714869   0.631   3.520   4.521 -0.7215  0.8087  0.4043
   16TAL    C7814870   0.540   3.633   4.557  0.6387  0.1514 -0.4403
   16TAL    C7914871   0.571   3.742   4.662 -0.0626  0.9776 -0.9371
   16TAL    C8014872   0.539   3.863   4.584 -0.0206  0.7501 -0.0458
   17HTM    C8114873   0.934   3.048   4.647  0.6938 -0.2115 -0.3442
   17HTM    C8214874   0.927   2.921   4.696  0.7744 -0.2846 -0.5208
   17HTM    C8314875   0.910   2.821   4.594  0.3483 -0.1105 -0.6262
   17HTM    C8414876   0.904   2.872   4.467 -0.0572  0.0953 -0.5299
   17HTM     S914877   0.920   3.051   4.467  0.0686  0.0850 -0.2969
   18TAL    C8514878   0.914   2.673   4.630 -1.1347  0.3973 -0.3275
   18TAL    C8614879   0.864   2.613   4.763  0.1488  0.0377  0.1854
   18TAL    C8714880   0.838   2.461   4.803  0.2872 -0.0183  0.1009
   18TAL    C8814881   0.946   2.358   4.803 -0.2114  0.6590  0.1175
   18TAL    C8914882   0.991   2.280   4.680  0.1820  0.4433 -0.1691
   18TAL    C9014883   1.056   2.155   4.724 -0.0912  0.1426 -0.1990
   19HTM    C9114884   0.916   2.807   4.335  0.0248  0.0405  0.0135
   19HTM    C9214885   0.848   2.837   4.221  0.3101  0.3825 -0.0681
   19HTM    C9314886   0.890   2.759   4.107  0.4002  0.5281 -0.1371
   19HTM    C9414887   0.988   2.669   4.135  0.1835  0.2971 -0.1078
   19HTM    S1014888   1.037   2.677   4.309 -0.1536 -0.1255  0.0099
   20TAL    C9514889   0.837   2.772   3.960 -0.2593 -0.7454  0.6749
   20TAL    C9614890   0.701   2.841   3.936 -0.1510 -1.1951 -0.4048
   20TAL    C9714891   0.656   2.845   3.795  0.4067  0.2265  1.2197
   20TAL    C9814892   0.510   2.894   3.782 -0.0088 -0.1759  0.8635
   20TAL    C9914893   0.491   3.052   3.790 -0.9608 -0.0994  0.1817
   20TAL   C10014894   0.372   3.068   3.871  0.7338 -0.3405  0.2451
   21HTM   C10114895   1.055   2.582   4.047  0.3280  0.0734 -0.0977
   21HTM   C10214896   1.018   2.502   3.943  0.2940 -0.0498  0.0075
   21HTM   C10314897   1.127   2.430   3.883  0.2983 -0.0083 -0.0351
   21HTM   C10414898   1.247   2.453   3.942  0.3356  0.1464 -0.1727
   21HTM    S1114899   1.233   2.570   4.078  0.3685  0.2527 -0.2598
   22TAL   C10514900   1.098   2.334   3.766  0.2556 -0.0437  0.9301
   22TAL   C10614901   1.167   2.196   3.764  1.0707  1.1104  0.3006
   22TAL   C10714902   1.104   2.093   3.672 -0.4306  0.0091 -0.0650
   22TAL   C10814903   1.015   2.008   3.760 -0.6213 -0.9294 -0.3425
   22TAL   C10914904   0.954   1.895   3.677 -0.4353 -0.4680  0.7614
   22TAL   C11014905   0.828   1.837   3.739  0.2556  0.0594 -0.5355
   23HTM   C11114906   1.375   2.413   3.898  0.3362 -0.3876  0.0842
   23HTM   C11214907   1.465   2.337   3.967  0.4402 -0.1047  0.2613
   23HTM   C11314908   1.601   2.357   3.925  0.4241  0.0590  0.2849
   23HTM   C11414909   1.615   2.448   3.824  0.3077 -0.0990  0.1259
   23HTM    S1214910   1.456   2.516   3.774  0.2087 -0.4699 -0.0676
   24TAL   C11514911   1.717   2.270   3.983 -0.6077 -1.3816  1.0804
   24TAL   C11614912   1.703   2.139   4.065  0.9511 -0.0634  0.1786
   24TAL   C11714913   1.830   2.106   4.156  0.6775 -0.4562 -0.2985
   24TAL   C11814914   1.942   2.035   4.089 -0.1870 -0.2202  0.9815
   24TAL   C11914915   2.009   2.110   3.965  1.1714  0.2717  0.0191
   24TAL   C12014916   2.109   2.219   4.011 -0.2139  0.8823  0.7766
   25HTM   C12114917   1.743   2.491   3.766  0.1435 -0.1045  0.5833
   25HTM   C12214918   1.761   2.608   3.700 -0.3425 -0.1357  0.3898
   25HTM   C12314919   1.889   2.620   3.635 -0.4703  0.1972  0.1913
   25HTM   C12414920   1.968   2.510   3.651 -0.0819  0.4822  0.2337
   25HTM    S1314921   1.888   2.384   3.751  0.4798  0.3512  0.5296
   26TAL   C12514922   1.929   2.755   3.576 -0.6950 -0.0374 -0.3987
   26TAL   C12614923   1.903   2.768   3.424 -0.3474 -0.2295  0.1056
   26TAL   C12714924   1.988   2.872   3.341  0.7056  0.5643  0.1155
   26TAL   C12814925   1.952   2.881   3.189 -0.9256  1.1687 -1.0630
   26TAL   C12914926   2.068   2.793   3.121  0.2243 -1.5920 -0.9601
   26TAL   C13014927   2.075   2.841   2.978 -0.0332  0.4949 -0.3230
   27HTM   C13114928   2.108   2.488   3.608 -0.4821  0.2779  0.2856
   27HTM   C13214929   2.152   2.512   3.482 -0.7530  0.5847  0.2464
   27HTM   C13314930   2.275   2.444   3.449 -0.7124  0.8236 -0.1135
   27HTM   C13414931   2.324   2.368   3.551 -0.4107  0.6989 -0.3488
   27HTM    S1414932   2.218   2.377   3.697 -0.1525  0.2668 -0.1325
   28TAL   C13514933   2.337   2.439   3.314  0.1476  0.7367  1.4607
   28TAL   C13614934   2.258   2.404   3.180 -0.3799  1.0647  0.5384
   28TAL   C13714935   2.187   2.266   3.182  0.1141  0.4605  0.6933
   28TAL   C13814936   2.076   2.264   3.077  0.0041 -0.7099  1.0459
   28TAL   C13914937   2.005   2.135   3.098 -0.2358 -0.0541  0.4676
   28TAL   C14014938   1.854   2.118   3.070 -0.9974  0.2675 -0.2893
   29HTM   C14114939   2.443   2.287   3.550  0.3238 -0.2978  0.1260
   29HTM   C14214940   2.464   2.169   3.487  0.4172 -0.1936 -0.0393
   29HTM   C14314941   2.602   2.126   3.490  0.5239  0.1118 -0.4574
   29HTM   C14414942   2.685   2.212   3.555  0.5118  0.2404 -0.6109
   29HTM    S1514943   2.596   2.355   3.619  0.3635 -0.0162 -0.2362
   30TAL   C14514944   2.649   1.993   3.430  0.4322 -0.2308  0.9700
   30TAL   C14614945   2.579   1.952   3.300  0.2423 -0.9370  0.0028
   30TAL   C14714946   2.635   1.851   3.203  1.3927 -0.2019 -0.3208
   30TAL   C14814947   2.787   1.880   3.174  0.3523 -0.3358 -0.0444
   30TAL   C14914948   2.873   1.765   3.109  0.4169  0.3201  0.6661
   30TAL   C15014949   3.022   1.785   3.090 -0.2411 -0.4299  0.5664
   31HTM   C15114950   2.821   2.206   3.581 -0.2570 -0.1621  0.2670
   31HTM   C15214951   2.908   2.103   3.560 -0.5456 -0.7176  1.5914
   31HTM   C15314952   3.042   2.130   3.603 -0.6731 -0.9487  2.1570
   31HTM   C15414953   3.058   2.254   3.657 -0.4818 -0.5695  1.2637
   31HTM    S1614954   2.904   2.347   3.658 -0.1230  0.1144 -0.3738
   32TAL   C15514955   3.152   2.030   3.564  0.1534 -0.0233 -0.3354
   32TAL   C15614956   3.119   1.891   3.535  0.9403  0.8214  0.9477
   32TAL   C15714957   3.232   1.818   3.484  0.4857  0.3026  0.6404
   32TAL   C15814958   3.182   1.684   3.483  0.9991  0.7480 -0.1061
   32TAL   C15914959   3.272   1.567   3.444  0.1763  0.5781  0.8165
   32TAL   C16014960   3.407   1.546   3.515  0.1917 -0.2974 -0.5371
   33HTM   C16114961   3.179   2.315   3.712 -0.1800  0.5177  0.0066
   33HTM   C16214962   3.309   2.297   3.677 -0.2020  0.7921 -0.2207
   33HTM   C16314963   3.399   2.394   3.735 -0.2261  0.6132  0.1227
   33HTM   C16414964   3.337   2.486   3.814 -0.2225  0.2024  0.6120
   33HTM    S1714965   3.159   2.456   3.822 -0.1881  0.0082  0.6774
   34TAL   C16514966   3.539   2.401   3.688 -0.8749  0.5055 -1.7044
   34TAL   C16614967   3.581   2.514   3.601 -0.1963  0.7872 -0.6324
   34TAL   C16714968   3.704   2.499   3.500 -0.4477  0.7435  0.0114
   34TAL   C16814969   3.745   2.620   3.415  0.3695 -0.1411  0.0438
   34TAL   C16914970   3.663   2.638   3.286 -0.2372  0.0256  0.5746
   34TAL   C17014971   3.696   2.741   3.181  0.6801  0.9596  0.5588
   35HTM   C17114972   3.378   2.609   3.880 -0.6758  0.5887 -0.5094
   35HTM   C17214973   3.485   2.608   3.965 -0.7938  0.2028 -0.3597
   35HTM   C17314974   3.498   2.729   4.042 -0.7752 -0.0596  0.0544
   35HTM   C17414975   3.402   2.822   4.016 -0.6431  0.1262  0.2205
   35HTM    S1814976   3.286   2.763   3.891 -0.5309  0.6512 -0.1360
   36TAL   C17514977   3.608   2.752   4.160  0.8438  0.2934  0.2339
   36TAL   C17614978   3.700   2.876   4.148  0.7068 -0.1518  0.1615
   36TAL   C17714979   3.808   2.904   4.254 -0.3539 -0.0607  0.7655
   36TAL   C17814980   3.875   3.041   4.244 -0.3900  0.1565  0.3531
   36TAL   C17914981   4.030   3.053   4.262 -0.4308  0.6138  0.7785
   36TAL   C18014982   4.104   3.193   4.246  0.2936 -0.4662 -0.0665
   37HTM   C18114983   3.382   2.960   4.054  0.5759 -0.0206  0.4470
   37HTM   C18214984   3.301   3.019   4.145  0.6115  0.1887  0.3442
   37HTM   C18314985   3.283   3.161   4.124  0.1697  0.0458 -0.2913
   37HTM   C18414986   3.350   3.209   4.016 -0.2029 -0.2726 -0.6729
   37HTM    S1914987   3.442   3.079   3.932 -0.0231 -0.4176 -0.2561
   38TAL   C18514988   3.175   3.241   4.199 -0.1699  0.1781  0.9194
   38TAL   C18614989   3.101   3.196   4.317 -0.5248  0.1062  0.7200
   38TAL   C18714990   3.007   3.078   4.298 -0.4953  0.0603  0.0614
   38TAL   C18814991   2.918   3.041   4.422 -0.0045  0.6242 -0.2242
   38TAL   C18914992   2.815   2.933   4.400  0.3208  0.2109 -0.4744
   38TAL   C19014993   2.722   2.944   4.283 -0.2261  0.6038 -0.0779
   39HTM   C19114994   3.383   3.348   3.977  0.0770  0.0566 -0.0100
   39HTM   C19214995   3.302   3.458   3.977  0.2804  0.2071  0.0485
   39HTM   C19314996   3.356   3.569   3.903  0.4819  0.1450  0.0994
   39HTM   C19414997   3.477   3.544   3.846  0.4321 -0.0529  0.0796
   39HTM    S2014998   3.534   3.377   3.883  0.1246 -0.1770 -0.0054
   40TAL   C19514999   3.299   3.713   3.890  0.2348  0.1771  0.2796
   40TAL   C19615000   3.142   3.717   3.852 -0.5875 -0.8070 -0.7101
   40TAL   C19715001   3.106   3.846   3.779  0.2108  0.3525 -0.8072
   40TAL   C19815002   2.963   3.837   3.729  1.0643  0.2215 -0.7314
   40TAL   C19915003   2.864   3.826   3.851 -0.4759  0.5018 -0.0404
   40TAL   C20015004   2.753   3.723   3.836 -0.0137 -0.6705  0.0297
   41HTM   C20115005   3.559   3.623   3.760 -0.3520  0.1277  0.0573
   41HTM   C20215006   3.677   3.688   3.780 -0.0673 -0.3696  0.0202
   41HTM   C20315007   3.717   3.772   3.669  0.1527 -0.3856  0.0863
   41HTM   C20415008   3.629   3.770   3.565  0.0357  0.0997  0.1737
   41HTM    S2115009   3.488   3.663   3.599 -0.3646  0.6184  0.1794
   42TAL   C20515010   3.846   3.859   3.666  0.0687  0.4412  1.1194
   42TAL   C20615011   3.970   3.822   3.574  0.3918  0.8852  0.1788
   42TAL   C20715012   4.089   3.897   3.624 -0.9471 -0.3279 -0.7511
   42TAL   C20815013   4.144   3.884   3.764  0.6283 -0.3148 -0.6437
   42TAL   C20915014   4.158   3.746   3.824 -0.7931 -0.0253 -0.1297
   42TAL   C21015015   4.278   3.668   3.785  0.2555  0.2092 -0.7957
   43HTM   C21115016   3.621   3.848   3.444  0.5899  0.1320  0.4271
   43HTM   C21215017   3.573   3.794   3.328 -0.2589  0.3356  0.6673
   43HTM   C21315018   3.578   3.885   3.216 -0.8848  0.4642  0.7386
   43HTM   C21415019   3.629   4.007   3.247 -0.5131  0.3588  0.5529
   43HTM    S2215020   3.675   4.018   3.421  0.6652  0.0869  0.2713
   44TAL   C21515021   3.503   3.844   3.091  0.3663 -0.9393  0.2960
   44TAL   C21615022   3.409   3.719   3.075 -0.0638  0.2338 -0.8011
   44TAL   C21715023   3.261   3.740   3.137 -1.0209 -1.4473  0.7909
   44TAL   C21815024   3.254   3.671   3.263 -0.1282 -0.3584 -1.5394
   44TAL   C21915025   3.147   3.709   3.361  0.6427 -0.9527 -0.5897
   44TAL   C22015026   3.000   3.699   3.323  0.5509 -0.3929  0.1986
   45HTM   C22115027   3.670   4.117   3.160  0.0429 -0.4152 -0.1538
   45HTM   C22215028   3.758   4.218   3.185  0.3113 -0.7205  0.1556
   45HTM   C22315029   3.785   4.302   3.071  0.5481 -0.4536  0.4028
   45HTM   C22415030   3.717   4.265   2.958  0.4603  0.0550  0.2819
   45HTM    S2315031   3.614   4.120   2.988  0.0686  0.2379 -0.1570
   46TAL   C22515032   3.891   4.416   3.079  0.4992  0.0406 -0.3328
   46TAL   C22615033   4.037   4.371   3.066 -0.5207 -0.3850  0.4019
   46TAL   C22715034   4.139   4.480   3.020  0.6223 -0.5927  0.4161
   46TAL   C22815035   4.166   4.508   2.870  0.9555 -0.1258  0.2021
   46TAL   C22915036   4.301   4.554   2.828  0.7348  0.2355  0.6968
   46TAL   C23015037   4.400   4.449   2.781 -0.0655 -0.1349  0.6046
   47HTM   C23115038   3.694   4.345   2.833  0.4379  0.0627  0.4591
   47HTM   C23215039   3.785   4.423   2.768  0.3987  0.0565  0.3964
   47HTM   C23315040   3.746   4.458   2.634  0.2912  0.0910  0.4362
   47HTM   C23415041   3.626   4.407   2.597  0.2486  0.1232  0.5292
   47HTM    S2415042   3.551   4.309   2.729  0.3416  0.1128  0.5740
   48TAL   C23515043   3.836   4.547   2.550 -0.5356  1.2388 -0.0040
   48TAL   C23615044   3.818   4.564   2.399  0.7909 -1.0920  0.5074
   48TAL   C23715045   3.814   4.440   2.312 -0.2678  0.6797 -0.6480
   48TAL   C23815046   3.714   4.430   2.197 -0.2989 -0.7014  0.9134
   48TAL   C23915047   3.735   4.541   2.098 -0.0200 -0.6376  0.6578
   48TAL   C24015048   3.783   4.464   1.976 -0.1638  0.4988 -0.1692
    1HTM     C115049   7.412   0.657   9.164 -0.1302  0.1468 -0.4128
    1HTM     C215050   7.392   0.760   9.252 -0.6675  0.3782 -0.7994
    1HTM     C315051   7.330   0.719   9.375 -0.2677  0.4799 -0.5629
    1HTM     C415052   7.303   0.586   9.382  0.5744  0.3259  0.0039
    1HTM     S115053   7.355   0.500   9.232  0.9305  0.0384  0.2847
    2TAL     C515054   7.307   0.821   9.484 -0.7514 -0.3000 -0.3258
    2TAL     C615055   7.415   0.931   9.500  0.2356  0.1363  1.2292
    2TAL     C715056   7.527   0.907   9.590 -0.5153 -0.3318 -0.0336
    2TAL     C815057   7.632   1.015   9.577 -0.6657  0.4295  0.5120
    2TAL     C915058   7.748   1.031   9.682 -0.4464  1.2504  0.2132
    2TAL    C1015059   7.837   1.152   9.661 -0.6850 -0.2761  0.6346
    3HTM    C1115060   7.248   0.514   9.496  0.1049  0.3395 -0.5622
    3HTM    C1215061   7.285   0.392   9.544  0.6713  0.5276 -0.5102
    3HTM    C1315062   7.202   0.345   9.652  0.8804  0.1828 -0.4976
    3HTM    C1415063   7.102   0.431   9.686  0.4734 -0.2682 -0.5398
    3HTM     S215064   7.104   0.579   9.583 -0.2106 -0.2926 -0.5997
    4TAL    C1515065   7.224   0.215   9.724  0.4465  0.7947 -0.2322
    4TAL    C1615066   7.340   0.215   9.824 -0.4117 -0.8398  0.2622
    4TAL    C1715067   7.311   0.182   9.975  0.4023  0.7100  0.1348
    4TAL    C1815068   7.436   0.195  10.069 -0.4653  0.5114  0.9006
    4TAL    C1915069   7.400   0.207  10.215  0.0505 -0.0957 -0.2888
    4TAL    C2015070   7.525   0.233  10.307  0.6091  0.7724  0.6190
    5HTM    C2115071   7.005   0.425   9.800 -0.1991 -0.1664  0.1454
    5HTM    C2215072   7.010   0.497   9.916  0.1421 -0.4254  0.2928
    5HTM    C2315073   6.901   0.469  10.007  0.1775 -0.3163  0.3694
    5HTM    C2415074   6.813   0.377   9.959 -0.1367  0.0259  0.2803
    5HTM     S315075   6.861   0.317   9.796 -0.5048  0.2385  0.0913
    6TAL    C2515076   6.887   0.557  10.129  0.4037 -0.5440  0.4960
    6TAL    C2615077   6.793   0.680  10.121 -0.2872 -0.1796  1.0184
    6TAL    C2715078   6.645   0.674  10.172  0.4452  0.6417  0.1031
    6TAL    C2815079   6.607   0.755  10.293  0.0533 -0.8654 -0.7029
    6TAL    C2915080   6.690   0.883  10.316  0.2172 -0.7626  0.9605
    6TAL    C3015081   6.706   0.962  10.448  0.7186 -0.6712 -0.8203
    7HTM    C3115082   6.675   0.337  10.014  0.4682  0.7323  0.4117
    7HTM    C3215083   6.561   0.315   9.942  0.6208  1.2462 -0.0018
    7HTM    C3315084   6.450   0.271  10.023  0.2761  1.2391 -0.4745
    7HTM    C3415085   6.479   0.259  10.155 -0.1394  0.7197 -0.4213
    7HTM     S415086   6.651   0.303  10.189 -0.1273  0.1953  0.2349
    8TAL    C3515087   6.305   0.252   9.947  0.1453 -1.2585 -0.0601
    8TAL    C3615088   6.282   0.162   9.817  0.4496  0.5068 -1.0687
    8TAL    C3715089   6.146   0.192   9.765 -0.3685  1.3308  1.4496
    8TAL    C3815090   6.068   0.078   9.699 -0.6242  0.3679  0.4064
    8TAL    C3915091   5.941   0.117   9.639  0.0884 -0.4158 -0.4250
    8TAL    C4015092   5.889   0.008   9.558 -0.3041 -0.1747  0.5963
    9HTM    C4115093   6.396   0.244  10.277 -0.1465  0.5381 -0.4960
    9HTM    C4215094   6.437   0.258  10.406 -0.0668  1.0491 -0.5720
    9HTM    C4315095   6.337   0.226  10.503  0.1146  1.0488 -0.3832
    9HTM    C4415096   6.218   0.187  10.449  0.1728  0.5376 -0.1632
    9HTM     S515097   6.224   0.189  10.268  0.0022  0.0129 -0.1776
   10TAL    C4515098   6.360   0.224  10.654 -0.4142 -0.2920 -0.6101
   10TAL    C4615099   6.509   0.232  10.711  0.7733 -0.5487 -0.7309
   10TAL    C4715100   6.513   0.287  10.859 -0.7666  1.1706 -0.0388
   10TAL    C4815101   6.644   0.256  10.926 -0.2309  0.1722  0.2437
   10TAL    C4915102   6.630   0.304  11.065 -0.7475 -0.4215 -0.6367
   10TAL    C5015103   6.693   0.227  11.177 -0.3367 -0.5123  0.4862
   11HTM    C5115104   6.076   0.159  10.499 -0.3078  0.3732  0.0806
   11HTM    C5215105   5.961   0.181  10.428 -0.2606  0.1357 -0.0716
   11HTM    C5315106   5.841   0.148  10.501 -0.2856 -0.2798 -0.2935
   11HTM    C5415107   5.864   0.101  10.627 -0.3517 -0.3591 -0.3103
   11HTM     S615108   6.041   0.095  10.664 -0.3880  0.0883 -0.0453
   12TAL    C5515109   5.698   0.155  10.447  0.3929 -0.9332  0.6828
   12TAL    C5615110   5.635   0.288  10.413  0.0503 -0.6112 -0.4228
   12TAL    C5715111   5.487   0.257  10.386  0.3358 -0.0774 -1.2129
   12TAL    C5815112   5.394   0.378  10.355 -0.0987 -0.4527  0.2471
   12TAL    C5915113   5.274   0.352  10.266  0.2669 -0.2860 -0.4479
   12TAL    C6015114   5.220   0.475  10.195  0.3994  0.0417  0.5255
   13HTM    C6115115   5.773   0.061  10.742 -0.3271  0.1180  0.4854
   13HTM    C6215116   5.816   0.005  10.859 -0.7144  0.5212  0.8307
   13HTM    C6315117   5.709  -0.028  10.949 -1.0246  0.7802  0.5633
   13HTM    C6415118   5.585   0.004  10.902 -0.8739  0.5745  0.0141
   13HTM     S715119   5.594   0.078  10.738 -0.3242  0.0334 -0.2096
   14TAL    C6515120   5.737  -0.083  11.091 -0.3416 -1.2509  0.5231
   14TAL    C6615121   5.764   0.022  11.200  0.8881 -0.1890 -0.2028
   14TAL    C6715122   5.721  -0.026  11.339  0.9497  0.0400  0.5812
   14TAL    C6815123   5.717   0.073  11.452  0.1092 -0.1670 -0.1636
   14TAL    C6915124   5.858   0.086  11.518 -0.2002 -0.5377  0.3780
   14TAL    C7015125   5.875   0.211  11.612 -0.2097  0.1099 -0.6350
   15HTM    C7115126   5.454  -0.014  10.953  0.1222 -0.0387  0.0116
   15HTM    C7215127   5.393  -0.125  11.005 -0.0120  0.1259  0.2129
   15HTM    C7315128   5.251  -0.112  11.020  0.0033  0.3257  0.1901
   15HTM    C7415129   5.202   0.009  10.980  0.1492  0.3130 -0.0286
   15HTM     S815130   5.334   0.117  10.919  0.2794  0.0457 -0.2243
   16TAL    C7515131   5.159  -0.235  11.055 -0.7557 -0.9659 -0.5205
   16TAL    C7615132   5.212  -0.320  11.171 -0.0070  0.7334  0.3928
   16TAL    C7715133   5.139  -0.455  11.155  0.3219 -1.2316  0.7354
   16TAL    C7815134   5.178  -0.574  11.230  0.5432  0.3001 -0.9112
   16TAL    C7915135   5.237  -0.676  11.146  0.2140 -0.0500  0.3945
   16TAL    C8015136   5.234  -0.810  11.230 -0.5290 -0.2466 -0.4200
   17HTM    C8115137   5.066   0.057  10.967  0.0021 -0.2439 -0.3122
   17HTM    C8215138   5.011   0.139  10.872 -0.5289 -0.8360 -0.5324
   17HTM    C8315139   4.868   0.150  10.880 -0.5100 -0.9747  0.0558
   17HTM    C8415140   4.813   0.076  10.982  0.0355 -0.4883  0.7246
   17HTM     S915141   4.939  -0.013  11.075  0.5720  0.1876  0.6628
   18TAL    C8515142   4.772   0.238  10.789 -0.6354  0.0933 -0.4470
   18TAL    C8615143   4.825   0.356  10.712 -0.0436 -0.2540 -0.3001
   18TAL    C8715144   4.718   0.427  10.632  0.9389  0.1890 -0.2508
   18TAL    C8815145   4.742   0.534  10.537 -1.0189 -0.4785  1.4153
   18TAL    C8915146   4.809   0.651  10.602 -0.4707 -0.1987 -1.1698
   18TAL    C9015147   4.869   0.756  10.510 -0.1726 -0.2706  0.5459
   19HTM    C9115148   4.677   0.061  11.024 -0.3722 -0.1315 -0.4886
   19HTM    C9215149   4.618  -0.048  11.081 -0.4691 -0.1993 -0.7144
   19HTM    C9315150   4.486  -0.023  11.133 -0.2993 -0.0865 -0.3250
   19HTM    C9415151   4.444   0.106  11.114 -0.0732  0.0677  0.1976
   19HTM    S1015152   4.569   0.205  11.031 -0.0566  0.0821  0.2389
   20TAL    C9515153   4.407  -0.142  11.201 -0.4980 -0.2933  0.1000
   20TAL    C9615154   4.381  -0.291  11.146 -0.3684 -0.0313 -0.2388
   20TAL    C9715155   4.348  -0.419  11.224  0.6577  0.8631 -0.7659
   20TAL    C9815156   4.457  -0.485  11.295  0.2492 -0.3746  0.0930
   20TAL    C9915157   4.408  -0.632  11.335 -0.7124 -0.1710 -0.3380
   20TAL   C10015158   4.534  -0.695  11.403  0.1428 -0.6859 -2.0149
   21HTM   C10115159   4.319   0.170  11.147 -0.4629 -0.1672  0.6625
   21HTM   C10215160   4.229   0.132  11.242 -0.7930 -0.2739  0.3093
   21HTM   C10315161   4.110   0.212  11.244 -0.7929 -0.2636  0.0007
   21HTM   C10415162   4.109   0.312  11.151 -0.4629 -0.1491  0.1186
   21HTM    S1115163   4.260   0.312  11.052 -0.1240 -0.0445  0.6325
   22TAL   C10515164   3.997   0.174  11.349 -1.2440 -0.6995  0.1747
   22TAL   C10615165   3.913   0.048  11.347  0.3847  0.0466 -0.3243
   22TAL   C10715166   3.791   0.027  11.452  0.4456  0.0372 -0.0259
   22TAL   C10815167   3.703   0.153  11.476  0.3938 -0.0804 -0.1387
   22TAL   C10915168   3.606   0.204  11.364  0.4431 -1.0605 -0.2069
   22TAL   C11015169   3.597   0.358  11.353 -1.1172  0.1905 -0.4456
   23HTM   C11115170   4.014   0.428  11.140 -0.1109  0.2232  0.4196
   23HTM   C11215171   3.972   0.487  11.025  0.7203  0.8140  0.4012
   23HTM   C11315172   3.876   0.593  11.047  1.1725  1.2551  0.2880
   23HTM   C11415173   3.846   0.614  11.178  0.6863  1.0005  0.2201
   23HTM    S1215174   3.936   0.500  11.285 -0.3889  0.1777  0.2945
   24TAL   C11515175   3.829   0.669  10.924 -0.1363 -0.4732  0.2308
   24TAL   C11615176   3.943   0.735  10.852  0.5773 -0.4850  0.9471
   24TAL   C11715177   3.917   0.729  10.701  0.7676 -0.0482  0.7620
   24TAL   C11815178   4.004   0.809  10.609 -0.2557  0.1776 -0.4288
   24TAL   C11915179   4.030   0.965  10.648 -0.4877  0.6562 -0.2994
   24TAL   C12015180   4.136   1.033  10.570 -0.4486 -0.3556  0.6840
   25HTM   C12115181   3.742   0.696  11.236 -0.0786 -0.5855 -0.6185
   25HTM   C12215182   3.751   0.797  11.327  0.5465 -0.1358 -1.1655
   25HTM   C12315183   3.626   0.864  11.352  0.8284  0.3555 -1.0512
   25HTM   C12415184   3.522   0.814  11.280  0.4184  0.2804 -0.4171
   25HTM    S1315185   3.573   0.677  11.175 -0.3618 -0.4221  0.0888
   26TAL   C12515186   3.635   0.989  11.451  1.0386  0.1123  0.0772
   26TAL   C12615187   3.763   1.014  11.517 -0.6960  0.3044  0.2511
   26TAL   C12715188   3.770   1.082  11.652 -0.8993 -0.8740 -0.4093
   26TAL   C12815189   3.901   1.103  11.721 -0.4829  0.2632  0.1497
   26TAL   C12915190   4.016   1.161  11.637 -0.4288  0.0436  0.2842
   26TAL   C13015191   4.151   1.194  11.690  0.4537 -0.1003  0.2813
   27HTM   C13115192   3.378   0.842  11.284 -0.2746 -0.4623 -0.8321
   27HTM   C13215193   3.320   0.962  11.309 -0.1112 -0.4065 -0.7164
   27HTM   C13315194   3.177   0.962  11.292 -0.1816 -0.3448 -0.1585
   27HTM   C13415195   3.126   0.841  11.254 -0.3984 -0.3536  0.1512
   27HTM    S1415196   3.256   0.718  11.236 -0.5318 -0.4411 -0.2408
   28TAL   C13515197   3.103   1.095  11.292 -0.7406  0.6146 -0.0059
   28TAL   C13615198   3.096   1.165  11.151  0.1306  0.2865 -0.3436
   28TAL   C13715199   3.029   1.302  11.143  1.0136 -0.2415  0.0371
   28TAL   C13815200   3.037   1.335  11.000  0.0956 -0.1533  0.5236
   28TAL   C13915201   3.061   1.480  10.954  0.6554 -0.8204  0.1922
   28TAL   C14015202   2.995   1.503  10.820 -1.0629  0.3622  0.2515
   29HTM   C14115203   2.996   0.793  11.219 -0.2203 -0.0883 -0.6847
   29HTM   C14215204   2.903   0.851  11.137 -0.3202 -0.7426 -1.0500
   29HTM   C14315205   2.779   0.779  11.131 -0.0855 -1.1739 -0.8724
   29HTM   C14415206   2.776   0.666  11.207  0.1933 -0.8485 -0.3717
   29HTM    S1515207   2.932   0.642  11.294  0.1809  0.0348 -0.0834
   30TAL   C14515208   2.671   0.846  11.038  0.1216 -0.1997 -0.4506
   30TAL   C14615209   2.674   0.768  10.904 -0.0267  0.0170 -0.1653
   30TAL   C14715210   2.550   0.803  10.829 -0.2788 -0.4661  1.2273
   30TAL   C14815211   2.506   0.699  10.721 -0.3222  0.2303 -0.0083
   30TAL   C14915212   2.463   0.566  10.782 -0.4427 -0.3525 -0.5822
   30TAL   C15015213   2.418   0.450  10.685  1.0242 -1.3448 -0.3901
   31HTM   C15115214   2.673   0.561  11.206 -0.0598  0.3574  0.0532
   31HTM   C15215215   2.689   0.427  11.227  0.1127  0.5044  0.9400
   31HTM   C15315216   2.567   0.351  11.213  0.2552  0.2236  1.2027
   31HTM   C15415217   2.459   0.427  11.182  0.1914 -0.1375  0.5162
   31HTM    S1615218   2.502   0.601  11.167 -0.0555 -0.1511 -0.5234
   32TAL   C15515219   2.563   0.203  11.228  0.0424  0.4890  0.2312
   32TAL   C15615220   2.575   0.098  11.107  0.8621 -0.1475 -0.5657
   32TAL   C15715221   2.666  -0.024  11.109  0.7746  0.0120 -0.4686
   32TAL   C15815222   2.622  -0.143  11.210  0.5599  0.2943  0.6127
   32TAL   C15915223   2.491  -0.217  11.213 -0.1720 -0.6214  0.0054
   32TAL   C16015224   2.476  -0.314  11.102 -0.3722 -0.2454  0.1497
   33HTM   C16115225   2.320   0.393  11.170 -0.2904 -0.8044 -0.0914
   33HTM   C16215226   2.246   0.307  11.246 -0.5620 -0.7150 -0.2503
   33HTM   C16315227   2.107   0.303  11.210 -0.5943 -0.1510 -0.2094
   33HTM   C16415228   2.074   0.386  11.107 -0.3473  0.1896 -0.0193
   33HTM    S1715229   2.218   0.476  11.046 -0.0524 -0.1784  0.1240
   34TAL   C16515230   2.029   0.183  11.278 -0.1784 -1.0503 -0.6240
   34TAL   C16615231   2.091   0.051  11.251 -1.5213  0.1260  0.5522
   34TAL   C16715232   2.003  -0.060  11.322 -0.0563 -0.9543  0.3725
   34TAL   C16815233   1.877  -0.111  11.259  0.0250 -0.0496 -0.2430
   34TAL   C16915234   1.775  -0.174  11.344 -0.2573 -0.5695 -0.1928
   34TAL   C17015235   1.642  -0.182  11.278  0.1973  0.1553  0.0988
   35HTM   C17115236   1.940   0.412  11.048 -0.7101 -0.3557  0.2318
   35HTM   C17215237   1.876   0.349  10.946 -1.2244 -0.2523  0.4812
   35HTM   C17315238   1.749   0.407  10.912 -1.0609  0.2377  0.6913
   35HTM   C17415239   1.716   0.515  10.989 -0.4220  0.5077  0.6020
   35HTM    S1815240   1.844   0.551  11.111  0.0263  0.1616  0.2430
   36TAL   C17515241   1.679   0.339  10.799  0.9979  0.0991  0.1745
   36TAL   C17615242   1.725   0.337  10.659  0.2449 -0.2498  0.1836
   36TAL   C17715243   1.660   0.245  10.565  0.4387  0.1416  0.5323
   36TAL   C17815244   1.675   0.230  10.410  0.6232  0.0664 -0.1662
   36TAL   C17915245   1.721   0.344  10.330 -0.6638 -0.2917  1.1617
   36TAL   C18015246   1.625   0.456  10.278 -0.9253  0.6969 -0.0137
   37HTM   C18115247   1.593   0.595  10.993  0.1254 -0.1195  0.0214
   37HTM   C18215248   1.581   0.730  11.005  0.2350 -0.1230  0.1761
   37HTM   C18315249   1.445   0.777  11.008  0.2722  0.0075 -0.0536
   37HTM   C18415250   1.353   0.676  10.999  0.1910  0.1105 -0.3835
   37HTM    S1915251   1.432   0.515  10.985  0.0602  0.0502 -0.4299
   38TAL   C18515252   1.421   0.926  11.019  0.2948 -0.1938  0.1600
   38TAL   C18615253   1.303   0.979  11.091  0.2579  0.0726 -0.3295
   38TAL   C18715254   1.298   1.127  11.118 -0.7716 -0.1692  0.1549
   38TAL   C18815255   1.151   1.180  11.153 -0.0556  0.5424 -0.2710
   38TAL   C18915256   1.141   1.330  11.131  0.0596 -0.4948  0.6306
   38TAL   C19015257   0.996   1.399  11.137 -0.8609  0.1176  0.2902
   39HTM   C19115258   1.203   0.684  11.013 -0.0071  0.3543  0.3321
   39HTM   C19215259   1.128   0.627  11.111  0.0984 -0.0576  0.1781
   39HTM   C19315260   0.986   0.636  11.088  0.0849 -0.5655  0.0371
   39HTM   C19415261   0.953   0.700  10.973 -0.0309 -0.5410  0.0836
   39HTM    S2015262   1.100   0.755  10.882 -0.1327  0.1309  0.3107
   40TAL   C19515263   0.879   0.587  11.189 -0.2573  0.2896 -0.3771
   40TAL   C19615264   0.893   0.620  11.335 -1.1271  0.0206  0.0622
   40TAL   C19715265   0.779   0.579  11.418 -0.0663  0.6621 -0.2691
   40TAL   C19815266   0.776   0.641  11.558  0.4227 -0.9216  0.3288
   40TAL   C19915267   0.831   0.551  11.663  0.2272  0.7354 -0.3091
   40TAL   C20015268   0.820   0.584  11.809 -0.3228  0.7553  0.2813
   41HTM   C20115269   0.838   0.724  10.899  0.1603  0.5200  0.4104
   41HTM   C20215270   0.809   0.838  10.830  0.2530  0.2206 -0.1315
   41HTM   C20315271   0.673   0.845  10.783  0.3881 -0.1033 -0.5867
   41HTM   C20415272   0.598   0.737  10.817  0.3984 -0.0509 -0.3919
   41HTM    S2115273   0.694   0.616  10.911  0.2371  0.4152  0.3875
   42TAL   C20515274   0.612   0.975  10.720  0.0763 -0.5067 -0.3569
   42TAL   C20615275   0.664   1.030  10.586  0.2489  0.4379  0.0649
   42TAL   C20715276   0.688   0.923  10.480  0.9293 -1.0539 -0.4080
   42TAL   C20815277   0.725   0.955  10.333  0.1106  0.5697  0.2341
   42TAL   C20915278   0.875   0.981  10.292  0.5459 -0.4903 -0.3689
   42TAL   C21015279   0.895   0.990  10.146 -0.9138 -0.6781  0.7068
   43HTM   C21115280   0.464   0.684  10.789 -0.6410  0.0191  0.3335
   43HTM   C21215281   0.369   0.606  10.848 -0.2910 -0.6573  0.0373
   43HTM   C21315282   0.263   0.566  10.760  0.0283 -1.0320 -0.1823
   43HTM   C21415283   0.277   0.613  10.632 -0.0784 -0.6413 -0.0534
   43HTM    S2215284   0.427   0.712  10.614 -0.5943  0.2370  0.3584
   44TAL   C21515285   0.127   0.499  10.810 -1.3776 -0.1024  0.5969
   44TAL   C21615286   0.077   0.595  10.920 -0.1135  0.2678  0.2223
   44TAL   C21715287  -0.070   0.542  10.942 -0.2001  0.2811  0.3318
   44TAL   C21815288  -0.134   0.580  11.083 -0.2211  0.8172 -0.1705
   44TAL   C21915289  -0.095   0.467  11.185  0.8452  0.7078  0.3372
   44TAL   C22015290  -0.202   0.380  11.255  0.7290  0.8527  1.2668
   45HTM   C22115291   0.182   0.634  10.520 -0.3341  0.4151  0.4201
   45HTM   C22215292   0.116   0.529  10.463 -0.4812  0.4216  0.5772
   45HTM   C22315293   0.014   0.570  10.369 -0.2004  0.4214  0.2677
   45HTM   C22415294   0.003   0.705  10.356  0.1610  0.4147 -0.1253
   45HTM    S2315295   0.121   0.792  10.460  0.1746  0.4081 -0.1352
   46TAL   C22515296  -0.066   0.459  10.311 -0.4369  0.4013  0.5650
   46TAL   C22615297  -0.203   0.432  10.374 -0.2599 -0.3186 -0.5531
   46TAL   C22715298  -0.196   0.362  10.512  1.9186 -0.1504 -0.1499
   46TAL   C22815299  -0.333   0.309  10.560 -0.2822  0.9605 -0.2589
   46TAL   C22915300  -0.319   0.192  10.659 -1.0641  0.7835 -0.9721
   46TAL   C23015301  -0.435   0.195  10.754  0.3215 -0.7226  0.7226
   47HTM   C23115302  -0.087   0.783  10.276  0.6544  0.1520 -0.8147
   47HTM   C23215303  -0.085   0.919  10.272  0.8116  0.1494 -0.8222
   47HTM   C23315304  -0.170   0.976  10.171  0.1364  0.2695 -0.2027
   47HTM   C23415305  -0.237   0.883  10.098 -0.5357  0.3638  0.2772
   47HTM    S2415306  -0.198   0.715  10.151 -0.3667  0.3077 -0.0184
   48TAL   C23515307  -0.183   1.128  10.150  0.2158  0.2963 -0.2637
   48TAL   C23615308  -0.215   1.184  10.011  0.2453 -0.7973 -0.7805
   48TAL   C23715309  -0.219   1.340  10.017  0.2854  0.7575 -0.8441
   48TAL   C23815310  -0.084   1.415  10.003  0.2306  0.5036 -0.6366
   48TAL   C23915311  -0.074   1.572  10.029 -0.4728  0.5588  0.6555
   48TAL   C24015312  -0.108   1.617  10.170 -0.0691 -0.8742 -0.3903
    1HTM     C115313   6.160   3.601   7.202 -0.4323  0.2060  0.7297
    1HTM     C215314   6.231   3.632   7.089  0.1554  0.0637  1.0515
    1HTM     C315315   6.162   3.599   6.967  0.8317 -0.1851  0.7309
    1HTM     C415316   6.040   3.543   6.986  0.7592 -0.2324  0.1645
    1HTM     S115317   6.001   3.527   7.161 -0.1758  0.0356 -0.0092
    2TAL     C515318   6.216   3.665   6.830  0.1671 -0.0530  0.8502
    2TAL     C615319   6.169   3.607   6.698 -0.6589  0.1995  0.3168
    2TAL     C715320   6.265   3.503   6.639 -0.2433  1.0564 -0.0970
    2TAL     C815321   6.242   3.463   6.491 -0.2613  0.2168 -0.6363
    2TAL     C915322   6.106   3.452   6.419  0.8611  0.9428  0.7701
    2TAL    C1015323   5.998   3.369   6.476  1.0912  0.4791 -0.3676
    3HTM    C1115324   5.922   3.506   6.903 -0.2605 -0.0157  0.1289
    3HTM    C1215325   5.795   3.553   6.907 -0.2941 -0.0935 -0.0050
    3HTM    C1315326   5.698   3.466   6.845 -0.1861 -0.1833 -0.0479
    3HTM    C1415327   5.752   3.352   6.794 -0.0699 -0.1740  0.0533
    3HTM     S215328   5.931   3.346   6.820 -0.0882 -0.0502  0.2120
    4TAL    C1515329   5.557   3.511   6.842 -0.2580 -2.1673 -0.5342
    4TAL    C1615330   5.467   3.428   6.920  0.7304  0.0611 -0.3766
    4TAL    C1715331   5.306   3.456   6.912 -0.6413 -0.4874  0.5318
    4TAL    C1815332   5.245   3.602   6.911 -0.3674 -0.7153 -0.2202
    4TAL    C1915333   5.095   3.598   6.881 -0.3503 -0.0772 -0.7336
    4TAL    C2015334   5.027   3.733   6.874 -0.1317  1.0904  0.4748
    5HTM    C2115335   5.705   3.238   6.720  0.1004 -0.2067  0.9994
    5HTM    C2215336   5.782   3.157   6.642  0.4483  0.4783  0.6123
    5HTM    C2315337   5.707   3.059   6.568  0.8200  0.8127 -0.2328
    5HTM    C2415338   5.573   3.065   6.589  0.7555  0.3826 -0.4900
    5HTM     S315339   5.530   3.197   6.705  0.2162 -0.4848  0.3215
    6TAL    C2515340   5.766   2.944   6.478  0.8913 -0.8180 -0.8625
    6TAL    C2615341   5.867   2.982   6.374  0.0043 -0.2171 -0.3994
    6TAL    C2715342   5.841   3.072   6.256  0.2592 -0.6783 -0.1214
    6TAL    C2815343   5.755   3.192   6.267 -0.0300 -0.9076  1.1641
    6TAL    C2915344   5.747   3.277   6.140  0.3775  0.3320  0.1267
    6TAL    C3015345   5.674   3.219   6.016 -0.3296 -1.2876 -0.6259
    7HTM    C3115346   5.465   2.989   6.519 -0.3473  0.0519 -0.2329
    7HTM    C3215347   5.387   3.028   6.414 -0.8157 -0.2573 -0.0064
    7HTM    C3315348   5.312   2.920   6.354 -0.6429 -0.5394  0.2822
    7HTM    C3415349   5.333   2.799   6.414 -0.0426 -0.4453  0.2760
    7HTM     S415350   5.450   2.813   6.551  0.3540  0.0104 -0.0981
    8TAL    C3515351   5.213   2.938   6.239 -0.8252 -0.2772  0.6504
    8TAL    C3615352   5.242   3.031   6.127 -0.9745 -0.2391  0.2352
    8TAL    C3715353   5.288   2.961   5.999  0.2748 -0.2185 -1.1663
    8TAL    C3815354   5.354   3.062   5.914 -0.4682  0.6295  0.8800
    8TAL    C3915355   5.268   3.118   5.788  0.0084  0.2062  0.2985
    8TAL    C4015356   5.200   3.021   5.686  0.5890 -0.6804  0.0326
    9HTM    C4115357   5.300   2.664   6.362  0.0204  0.4404  0.1507
    9HTM    C4215358   5.178   2.614   6.328 -0.1243  0.4136  0.6824
    9HTM    C4315359   5.177   2.471   6.306 -0.2962  0.3407  1.1437
    9HTM    C4415360   5.299   2.413   6.324 -0.2827  0.3118  0.9640
    9HTM     S515361   5.425   2.534   6.370 -0.0500  0.3750  0.1920
   10TAL    C4515362   5.052   2.417   6.232  0.0421  0.6177 -0.0748
   10TAL    C4615363   5.047   2.435   6.076  0.5430  0.8116  0.0308
   10TAL    C4715364   5.099   2.296   6.022 -0.5516 -0.4522 -0.1825
   10TAL    C4815365   5.102   2.290   5.869  0.2179  1.4076  1.3099
   10TAL    C4915366   5.114   2.155   5.792 -0.5699 -0.9892 -0.2378
   10TAL    C5015367   5.037   2.043   5.844 -0.1046 -0.1123  0.2802
   11HTM    C5115368   5.344   2.276   6.326 -0.0138  0.0684  0.2191
   11HTM    C5215369   5.461   2.219   6.285  0.2042 -0.0516  0.9906
   11HTM    C5315370   5.456   2.075   6.281  0.1798 -0.0594  1.2257
   11HTM    C5415371   5.336   2.022   6.317 -0.0567  0.0545  0.6335
   11HTM     S615372   5.218   2.152   6.361 -0.2687  0.1815 -0.2739
   12TAL    C5515373   5.566   1.987   6.220 -0.9897  0.3602  0.1935
   12TAL    C5615374   5.659   2.056   6.115 -0.0794 -0.7438 -0.9032
   12TAL    C5715375   5.592   2.057   5.980  0.2632 -0.0460  1.5201
   12TAL    C5815376   5.649   2.158   5.882 -0.2650 -0.3874  0.2761
   12TAL    C5915377   5.610   2.308   5.888  0.0098  1.0028  0.8220
   12TAL    C6015378   5.467   2.380   5.874  0.2985  0.1717 -0.2289
   13HTM    C6115379   5.285   1.884   6.329  0.7395  0.3450  0.4625
   13HTM    C6215380   5.153   1.852   6.330  0.5938  0.9427  0.6611
   13HTM    C6315381   5.127   1.711   6.340 -0.0324  1.0550  0.7185
   13HTM    C6415382   5.240   1.634   6.345 -0.3641  0.5429  0.5636
   13HTM     S715383   5.389   1.736   6.338  0.0922 -0.1261  0.3314
   14TAL    C6515384   4.987   1.656   6.329  1.0274 -0.9886  0.2989
   14TAL    C6615385   4.916   1.647   6.465  0.1548  0.3517 -0.1935
   14TAL    C6715386   4.780   1.578   6.459  0.1409 -1.1363 -0.4296
   14TAL    C6815387   4.715   1.558   6.597  0.5726  0.3433 -1.0374
   14TAL    C6915388   4.565   1.493   6.580  0.0548  0.7289 -0.5021
   14TAL    C7015389   4.486   1.474   6.720 -0.3526 -0.0188  1.2871
   15HTM    C7115390   5.271   1.491   6.335  0.1160  0.0187 -0.2755
   15HTM    C7215391   5.393   1.433   6.359 -0.0504 -0.1873  0.0955
   15HTM    C7315392   5.391   1.289   6.349 -0.3612 -0.2182  0.5430
   15HTM    C7415393   5.269   1.238   6.318 -0.4317 -0.0357  0.5134
   15HTM     S815394   5.145   1.367   6.299 -0.1085  0.1910 -0.0866
   16TAL    C7515395   5.514   1.200   6.359  0.9620  0.7136  0.2216
   16TAL    C7615396   5.652   1.214   6.427  0.6803  0.0421  0.4760
   16TAL    C7715397   5.777   1.193   6.336  0.4491  0.1031  0.0827
   16TAL    C7815398   5.916   1.253   6.380  0.0637  0.2087 -0.0532
   16TAL    C7915399   5.902   1.398   6.410  0.1294  0.0830 -0.1886
   16TAL    C8015400   5.906   1.491   6.292 -0.2233  0.3865 -0.2498
   17HTM    C8115401   5.217   1.103   6.296 -0.0992 -0.1381 -0.2803
   17HTM    C8215402   5.278   0.988   6.336 -0.0496 -0.1752 -0.4582
   17HTM    C8315403   5.207   0.868   6.298 -0.1504 -0.1371 -0.3901
   17HTM    C8415404   5.092   0.892   6.229 -0.2773 -0.0709 -0.1603
   17HTM     S915405   5.065   1.069   6.206 -0.2788 -0.0515 -0.0106
   18TAL    C8515406   5.278   0.736   6.339  0.6705 -0.2823  0.8157
   18TAL    C8615407   5.277   0.596   6.264 -0.2359  0.8180  0.8955
   18TAL    C8715408   5.291   0.607   6.104 -0.2263  0.0604 -0.5076
   18TAL    C8815409   5.291   0.478   6.010 -0.7165 -0.6110 -0.5305
   18TAL    C8915410   5.178   0.387   6.009 -0.5540 -0.0446 -0.1073
   18TAL    C9015411   5.205   0.257   5.929 -0.4796 -0.0652 -0.8360
   19HTM    C9115412   5.003   0.815   6.165  0.1697 -0.6054 -0.1683
   19HTM    C9215413   4.974   0.807   6.032  0.5231 -0.8332 -0.2326
   19HTM    C9315414   4.886   0.698   5.998  0.5946 -0.8772 -0.2792
   19HTM    C9415415   4.847   0.624   6.106  0.2959 -0.6829 -0.2504
   19HTM    S1015416   4.919   0.685   6.259 -0.1023 -0.4273 -0.1614
   20TAL    C9515417   4.837   0.683   5.855  0.9203  0.2252  0.0304
   20TAL    C9615418   4.934   0.660   5.738  0.6625 -0.5166  0.0188
   20TAL    C9715419   4.868   0.577   5.627  0.2503 -0.9991  0.0504
   20TAL    C9815420   4.909   0.443   5.635 -0.6579  1.3407  1.1095
   20TAL    C9915421   5.055   0.424   5.587 -0.1969  0.2949  0.6799
   20TAL   C10015422   5.051   0.431   5.428 -0.5064 -0.3504 -0.4748
   21HTM   C10115423   4.752   0.512   6.112  0.0535  0.1702  0.1275
   21HTM   C10215424   4.734   0.434   6.221 -0.3715  0.6754  0.4290
   21HTM   C10315425   4.639   0.327   6.202 -0.7154  0.9216  0.7366
   21HTM   C10415426   4.585   0.325   6.077 -0.5525  0.6041  0.6695
   21HTM    S1115427   4.650   0.458   5.974  0.0524 -0.0354  0.2091
   22TAL   C10515428   4.604   0.237   6.307  0.1979  0.1418 -0.6609
   22TAL   C10615429   4.548   0.307   6.429  1.1341 -0.0325 -0.5202
   22TAL   C10715430   4.467   0.233   6.542 -0.3899 -1.1234  0.4404
   22TAL   C10815431   4.526   0.123   6.623  0.1857  0.8174  0.5443
   22TAL   C10915432   4.647   0.153   6.714 -0.3380 -0.8821  0.5972
   22TAL   C11015433   4.796   0.133   6.658 -0.0814  0.7135  0.8061
   23HTM   C11115434   4.484   0.237   6.014  0.2595 -0.0188 -0.2630
   23HTM   C11215435   4.508   0.181   5.891 -0.2801 -0.0033 -0.3803
   23HTM   C11315436   4.424   0.068   5.862 -0.4324  0.0174 -0.0378
   23HTM   C11415437   4.337   0.037   5.962 -0.0087  0.0177  0.3406
   23HTM    S1215438   4.353   0.150   6.102  0.6199 -0.0083  0.2934
   24TAL   C11515439   4.427   0.017   5.717  0.0476 -0.5459 -0.9155
   24TAL   C11615440   4.513   0.048   5.595  0.9659  0.8128 -0.1632
   24TAL   C11715441   4.646   0.108   5.599 -0.0953  0.2184 -0.8817
   24TAL   C11815442   4.754   0.010   5.544 -0.2832 -0.1859  0.1058
   24TAL   C11915443   4.901   0.036   5.589  0.2964 -1.0657 -0.3707
   24TAL   C12015444   4.925   0.039   5.743  0.3439 -0.3857  0.3091
   25HTM   C12115445   4.233  -0.065   5.969  0.4112 -0.3724 -0.4350
   25HTM   C12215446   4.218  -0.154   6.072  0.9640 -1.2400 -1.0782
   25HTM   C12315447   4.104  -0.240   6.058  1.1102 -1.3907 -1.3696
   25HTM   C12415448   4.031  -0.217   5.945  0.6686 -0.6379 -0.9484
   25HTM    S1315449   4.102  -0.084   5.847  0.0291  0.3272 -0.1450
   26TAL   C12515450   4.067  -0.349   6.161  0.6855  0.0677 -0.2185
   26TAL   C12615451   4.097  -0.338   6.307  0.0917 -0.7759  0.0077
   26TAL   C12715452   4.029  -0.219   6.384 -0.3265  0.4423  0.2510
   26TAL   C12815453   4.096  -0.196   6.523  0.1736  0.2231 -0.2472
   26TAL   C12915454   4.003  -0.117   6.622 -0.4136 -0.7502  0.3356
   26TAL   C13015455   4.066  -0.130   6.758 -0.4468  0.2899  0.4804
   27HTM   C13115456   3.906  -0.271   5.906  0.4405 -0.1300 -0.3209
   27HTM   C13215457   3.892  -0.350   5.795  0.0876 -0.0679 -0.3208
   27HTM   C13315458   3.760  -0.407   5.781 -0.0874  0.2928 -0.1690
   27HTM   C13415459   3.675  -0.372   5.882  0.1320  0.5057 -0.0534
   27HTM    S1415460   3.754  -0.263   6.002  0.5802  0.2655 -0.1280
   28TAL   C13515461   3.739  -0.532   5.701 -0.0347 -0.1273 -0.2338
   28TAL   C13615462   3.723  -0.518   5.547 -1.0515 -0.7635 -0.4020
   28TAL   C13715463   3.585  -0.523   5.497 -0.5222 -0.4178  0.6459
   28TAL   C13815464   3.505  -0.656   5.525  0.0519 -0.6937  0.2766
   28TAL   C13915465   3.437  -0.732   5.412  0.8480 -0.7450  0.6391
   28TAL   C14015466   3.487  -0.711   5.273 -0.1413  0.3607  0.3351
   29HTM   C14115467   3.530  -0.403   5.901  0.0723 -0.0319 -0.0022
   29HTM   C14215468   3.424  -0.326   5.865 -0.2447  0.0083  0.9758
   29HTM   C14315469   3.297  -0.394   5.874 -0.1417 -0.1101  1.6394
   29HTM   C14415470   3.307  -0.523   5.917  0.2538 -0.2413  1.1673
   29HTM    S1515471   3.478  -0.569   5.949  0.5289 -0.2245 -0.1623
   30TAL   C14515472   3.168  -0.314   5.830 -0.7107  0.2692 -0.5412
   30TAL   C14615473   3.112  -0.207   5.936 -0.5953  0.2494  0.1581
   30TAL   C14715474   2.991  -0.138   5.878  0.2112  0.1408  0.7705
   30TAL   C14815475   2.953  -0.028   5.973  0.5598  0.0083 -0.2334
   30TAL   C14915476   2.852   0.076   5.913 -0.1911  0.7039  0.2943
   30TAL   C15015477   2.707   0.021   5.880 -0.4766  0.0243 -0.4190
   31HTM   C15115478   3.201  -0.618   5.943 -1.0251  0.1368  0.4192
   31HTM   C15215479   3.085  -0.640   5.874 -1.5625  0.5810  1.1512
   31HTM   C15315480   3.001  -0.740   5.932 -1.3060  0.4971  1.3828
   31HTM   C15415481   3.051  -0.795   6.046 -0.5731 -0.0114  0.8276
   31HTM    S1615482   3.212  -0.724   6.089 -0.1466 -0.4268 -0.0378
   32TAL   C15515483   2.882  -0.792   5.850  0.1408  0.7647 -0.3137
   32TAL   C15615484   2.748  -0.748   5.915 -0.4734  0.0859  0.0475
   32TAL   C15715485   2.623  -0.763   5.825 -0.6162 -0.0643 -0.2016
   32TAL   C15815486   2.626  -0.697   5.685 -0.5422  0.4148 -0.3883
   32TAL   C15915487   2.634  -0.541   5.691  0.2999  0.4381 -0.6494
   32TAL   C16015488   2.623  -0.460   5.566 -0.8019 -0.0114  0.2924
   33HTM   C16115489   3.004  -0.880   6.152  0.1876 -0.2757  0.1839
   33HTM   C16215490   2.875  -0.913   6.184  0.1831 -0.1299  0.3202
   33HTM   C16315491   2.865  -1.006   6.293  0.1912 -0.0603  0.3797
   33HTM   C16415492   2.985  -1.043   6.345  0.2018 -0.1531  0.2888
   33HTM    S1715493   3.122  -0.964   6.259  0.2026 -0.3373  0.1196
   34TAL   C16515494   2.728  -1.053   6.337  0.2025 -0.2984 -0.1113
   34TAL   C16615495   2.665  -1.137   6.224  0.3205  0.5290 -0.1145
   34TAL   C16715496   2.673  -1.295   6.194  0.2511 -0.0795  0.7426
   34TAL   C16815497   2.812  -1.341   6.163 -1.3853  1.1423 -0.1773
   34TAL   C16915498   2.860  -1.312   6.024 -0.7714 -0.6666 -0.2829
   34TAL   C17015499   3.004  -1.333   5.991 -0.7716  0.2599 -0.1799
   35HTM   C17115500   3.009  -1.122   6.461 -0.0954  0.0800  0.0187
   35HTM   C17215501   2.965  -1.246   6.499 -0.1427  0.0825 -0.0293
   35HTM   C17315502   3.016  -1.289   6.626 -0.0660 -0.0360 -0.0999
   35HTM   C17415503   3.099  -1.199   6.686  0.0396 -0.1280 -0.1058
   35HTM    S1815504   3.119  -1.051   6.585  0.0506 -0.0728 -0.0221
   36TAL   C17515505   3.006  -1.433   6.681  1.1826  0.2771 -1.0549
   36TAL   C17615506   2.921  -1.536   6.606 -0.4743 -0.2721 -0.0946
   36TAL   C17715507   2.786  -1.568   6.649  1.0427 -0.3800 -0.6502
   36TAL   C17815508   2.694  -1.637   6.543  0.1643 -0.7213 -0.4293
   36TAL   C17915509   2.704  -1.599   6.394 -0.4826 -0.2856 -0.1864
   36TAL   C18015510   2.605  -1.677   6.311  0.2016  0.4815 -0.0388
   37HTM   C18115511   3.135  -1.199   6.816 -0.5650 -0.4597  0.2550
   37HTM   C18215512   3.235  -1.267   6.879 -0.5736 -0.3166  0.4257
   37HTM   C18315513   3.240  -1.245   7.021 -0.4233  0.2306  0.3422
   37HTM   C18415514   3.143  -1.161   7.067 -0.3001  0.5044  0.1084
   37HTM    S1915515   3.037  -1.103   6.933 -0.3649  0.0899 -0.0260
   38TAL   C18515516   3.345  -1.308   7.105 -0.7875  0.7594 -1.1714
   38TAL   C18615517   3.408  -1.458   7.092 -0.3458 -0.6504  0.3116
   38TAL   C18715518   3.520  -1.462   7.195 -0.6203  0.6010 -0.7180
   38TAL   C18815519   3.585  -1.604   7.188 -0.1538 -0.6878 -0.4911
   38TAL   C18915520   3.719  -1.596   7.250 -0.2895 -0.4424 -0.0795
   38TAL   C19015521   3.794  -1.731   7.266  0.8398 -0.3136  0.4621
   39HTM   C19115522   3.128  -1.101   7.196  0.1414 -0.4552 -0.2463
   39HTM   C19215523   3.008  -1.058   7.245 -0.1260 -0.9415 -0.4578
   39HTM   C19315524   3.017  -0.997   7.375 -0.5581 -0.6428 -0.5634
   39HTM   C19415525   3.144  -0.994   7.425 -0.6201  0.0715 -0.4324
   39HTM    S2015526   3.263  -1.068   7.311 -0.1340  0.4252 -0.1636
   40TAL   C19515527   2.890  -0.939   7.432 -0.1599  0.0404 -1.1814
   40TAL   C19615528   2.883  -0.829   7.537  0.2471 -0.2947  0.5454
   40TAL   C19715529   2.757  -0.810   7.613  1.0680 -0.9537 -0.3721
   40TAL   C19815530   2.713  -0.929   7.699 -0.3964 -0.4553  1.2807
   40TAL   C19915531   2.586  -0.929   7.762  0.3054 -0.4433 -0.9982
   40TAL   C20015532   2.569  -1.045   7.855  0.3757  0.2047 -0.6001
   41HTM   C20115533   3.194  -0.948   7.557  0.2589  0.4466  0.2546
   41HTM   C20215534   3.285  -0.851   7.589  0.0868  0.5102  0.5518
   41HTM   C20315535   3.307  -0.837   7.730  0.0593  0.1187  0.5956
   41HTM   C20415536   3.234  -0.924   7.806  0.2102 -0.2434  0.3320
   41HTM    S2115537   3.131  -1.030   7.704  0.4004 -0.1172  0.0050
   42TAL   C20515538   3.379  -0.730   7.792  0.1210 -0.2349 -0.3419
   42TAL   C20615539   3.495  -0.671   7.718 -0.9893  0.8340  0.1843
   42TAL   C20715540   3.583  -0.560   7.779  0.4673  0.3315 -0.5726
   42TAL   C20815541   3.681  -0.513   7.676 -0.5594  0.2811 -0.3752
   42TAL   C20915542   3.793  -0.477   7.779  1.0927 -0.2945  0.1711
   42TAL   C21015543   3.889  -0.393   7.726 -1.3216 -1.4139 -0.1459
   43HTM   C21115544   3.193  -0.934   7.943  0.0768  0.7856  0.6891
   43HTM   C21215545   3.273  -0.940   8.053 -0.3222  1.4827  1.0278
   43HTM   C21315546   3.201  -0.954   8.177 -0.7444  1.5180  0.7908
   43HTM   C21415547   3.066  -0.960   8.161 -0.6673  0.8479  0.2713
   43HTM    S2215548   3.019  -0.947   7.988 -0.0506  0.1146  0.0394
   44TAL   C21515549   3.275  -1.001   8.299 -0.2907 -0.3804 -0.0698
   44TAL   C21615550   3.384  -0.913   8.366  0.5446  0.0117  0.1969
   44TAL   C21715551   3.466  -1.000   8.461 -0.0977 -0.0989  1.5267
   44TAL   C21815552   3.420  -1.029   8.602 -0.7462 -0.3274  0.4264
   44TAL   C21915553   3.452  -0.911   8.692  0.8487 -0.5158  0.1209
   44TAL   C22015554   3.437  -0.959   8.839 -0.4522 -0.3785 -0.0509
   45HTM   C22115555   2.947  -0.971   8.242 -0.0784 -0.6728 -0.1266
   45HTM   C22215556   2.817  -0.950   8.207 -0.0737 -0.7441 -0.1860
   45HTM   C22315557   2.724  -0.968   8.316 -0.0721 -0.3505 -0.1187
   45HTM   C22415558   2.783  -1.002   8.434 -0.0756  0.0209 -0.0076
   45HTM    S2315559   2.962  -1.014   8.417 -0.0811 -0.0989  0.0202
   46TAL   C22515560   2.573  -0.943   8.278  0.0113 -0.1719 -0.0445
   46TAL   C22615561   2.513  -0.830   8.191 -0.3011  0.0910  0.0830
   46TAL   C22715562   2.483  -0.709   8.278 -0.0235  0.2003  0.4325
   46TAL   C22815563   2.364  -0.625   8.223 -0.3489  0.8443  0.5038
   46TAL   C22915564   2.333  -0.502   8.300 -0.1457  0.5041 -0.8768
   46TAL   C23015565   2.230  -0.404   8.255  0.1060 -0.5591  0.2714
   47HTM   C23115566   2.728  -1.031   8.569 -0.0926 -0.3830  0.2191
   47HTM   C23215567   2.798  -1.038   8.686 -0.4008 -0.3498  0.4091
   47HTM   C23315568   2.718  -1.073   8.800 -0.7347 -0.1488  0.2365
   47HTM   C23415569   2.586  -1.091   8.770 -0.6812 -0.0286 -0.0850
   47HTM    S2415570   2.553  -1.067   8.594 -0.2012 -0.1610 -0.1955
   48TAL   C23515571   2.777  -1.076   8.945 -0.2633  0.7115  0.8920
   48TAL   C23615572   2.909  -1.154   8.971 -0.5321 -0.8643  0.3849
   48TAL   C23715573   2.988  -1.145   9.103  0.6731  0.4216  0.3626
   48TAL   C23815574   2.986  -1.007   9.178  0.5681 -1.0889 -0.6312
   48TAL   C23915575   3.042  -0.878   9.112  0.1750  0.7905 -1.1045
   48TAL   C24015576   3.025  -0.772   9.215  0.6296 -1.0109  0.1605
    1HTM     C115577   7.685   1.496   2.695 -0.1220  0.2065  0.4907
    1HTM     C215578   7.551   1.474   2.684 -0.0978 -0.4017  1.2409
    1HTM     C315579   7.517   1.375   2.585 -0.2028 -0.6442  1.5160
    1HTM     C415580   7.625   1.322   2.521 -0.3068 -0.2208  0.9756
    1HTM     S115581   7.779   1.394   2.581 -0.2801  0.5228  0.0702
    2TAL     C515582   7.377   1.328   2.565 -0.3775 -0.1965 -0.2797
    2TAL     C615583   7.334   1.209   2.656 -0.7892  0.2227  0.9036
    2TAL     C715584   7.401   1.076   2.634  0.2219  0.7200  0.6676
    2TAL     C815585   7.336   0.982   2.738 -0.7074 -0.9715 -0.8229
    2TAL     C915586   7.299   0.837   2.691 -0.8614 -0.4749 -0.2665
    2TAL    C1015587   7.228   0.784   2.568 -1.4551  0.4803 -0.4105
    3HTM    C1115588   7.635   1.233   2.412 -1.1128  0.1932  0.8051
    3HTM    C1215589   7.674   1.103   2.423 -1.3248  0.1509  1.0769
    3HTM    C1315590   7.660   1.028   2.301 -0.5114  0.1826  0.9556
    3HTM    C1415591   7.611   1.101   2.197  0.3208  0.2489  0.5914
    3HTM     S215592   7.577   1.271   2.246  0.1402  0.2768  0.3715
    4TAL    C1515593   7.704   0.884   2.289  0.0090  0.4812 -0.8478
    4TAL    C1615594   7.738   0.807   2.415 -0.1225 -0.0367  0.2957
    4TAL    C1715595   7.766   0.659   2.388 -1.1710 -0.0093  0.6749
    4TAL    C1815596   7.666   0.563   2.301  0.1872  0.8605 -0.4589
    4TAL    C1915597   7.699   0.441   2.227 -0.6405  1.2176 -0.2575
    4TAL    C2015598   7.580   0.352   2.235  0.5528 -0.0267 -0.0935
    5HTM    C2115599   7.560   1.066   2.063 -0.9096  0.3383 -0.3832
    5HTM    C2215600   7.469   1.130   1.984 -1.4654 -0.4569 -0.4166
    5HTM    C2315601   7.437   1.058   1.863 -1.4169 -1.1276 -0.0382
    5HTM    C2415602   7.502   0.939   1.851 -0.8246 -0.8439  0.2839
    5HTM     S315603   7.611   0.909   1.992 -0.2775  0.3014  0.1330
    6TAL    C2515604   7.348   1.134   1.775  0.0399 -0.8388  0.5750
    6TAL    C2615605   7.197   1.152   1.820 -1.0937  0.6422 -0.0058
    6TAL    C2715606   7.109   1.067   1.729 -0.4658  0.2912 -0.7910
    6TAL    C2815607   7.097   1.076   1.588 -0.4135 -1.7485 -0.2008
    6TAL    C2915608   6.988   0.984   1.557 -0.6072  0.1571  0.0462
    6TAL    C3015609   6.950   0.995   1.411 -0.2771 -0.4456 -0.3651
    7HTM    C3115610   7.501   0.843   1.747  0.4230  0.5458 -0.6597
    7HTM    C3215611   7.607   0.781   1.687  0.4153  1.3434 -1.5548
    7HTM    C3315612   7.571   0.703   1.572  0.0237  1.0982 -1.2718
    7HTM    C3415613   7.438   0.705   1.543 -0.2670  0.1136 -0.1609
    7HTM     S415614   7.347   0.807   1.661 -0.0673 -0.5857  0.6200
    8TAL    C3515615   7.671   0.623   1.487 -0.0169 -0.5781  0.5152
    8TAL    C3615616   7.695   0.673   1.343 -0.1898 -0.4741  0.5141
    8TAL    C3715617   7.727   0.556   1.258  0.7639 -0.0680  0.2139
    8TAL    C3815618   7.701   0.608   1.118 -0.9977  0.4045  0.0095
    8TAL    C3915619   7.588   0.528   1.039 -0.0546 -0.2661  0.3529
    8TAL    C4015620   7.491   0.593   0.936  0.1827  0.3537  1.1346
    9HTM    C4115621   7.350   0.617   1.456 -0.0322 -0.2492  0.2908
    9HTM    C4215622   7.254   0.666   1.373  0.3966  0.0648 -0.0306
    9HTM    C4315623   7.210   0.572   1.274  0.5715  0.2800 -0.3132
    9HTM    C4415624   7.273   0.451   1.280  0.2761  0.1302 -0.2071
    9HTM     S515625   7.393   0.447   1.414 -0.2500 -0.2977  0.2614
   10TAL    C4515626   7.105   0.615   1.172 -0.1419 -0.2116 -0.3417
   10TAL    C4615627   6.967   0.648   1.221 -0.1684 -0.1985  0.3006
   10TAL    C4715628   6.910   0.728   1.112  0.3593  0.8957 -0.3957
   10TAL    C4815629   6.760   0.732   1.139 -0.7633 -0.0740  0.0101
   10TAL    C4915630   6.631   0.754   1.053  0.5886  0.1474  0.3747
   10TAL    C5015631   6.584   0.632   0.968  0.0209 -0.3669  0.2773
   11HTM    C5115632   7.254   0.320   1.211 -0.0810 -0.4018 -0.1546
   11HTM    C5215633   7.146   0.256   1.159  0.0545 -0.5803 -0.2192
   11HTM    C5315634   7.177   0.131   1.096  0.3043 -0.5076 -0.2404
   11HTM    C5415635   7.310   0.100   1.099  0.3596 -0.2737 -0.1919
   11HTM     S615636   7.406   0.227   1.184  0.0981 -0.1261 -0.1152
   12TAL    C5515637   7.065   0.064   1.023  0.4515  0.0789 -0.6473
   12TAL    C5615638   6.985  -0.042   1.119 -0.1924  0.5772  0.8862
   12TAL    C5715639   6.864  -0.106   1.061 -0.4913 -0.0342  0.3170
   12TAL    C5815640   6.853  -0.167   0.917 -0.3189 -0.1896  0.8860
   12TAL    C5915641   6.946  -0.278   0.873  0.3248 -0.4949  0.3167
   12TAL    C6015642   6.953  -0.320   0.730 -0.3482 -0.4873 -0.7858
   13HTM    C6115643   7.379  -0.005   1.039 -0.1374  0.1452 -0.6527
   13HTM    C6215644   7.513  -0.006   1.017 -0.1640  0.3310 -0.8300
   13HTM    C6315645   7.559  -0.122   0.946 -0.0424  0.1976 -0.5356
   13HTM    C6415646   7.460  -0.210   0.914  0.0768 -0.0892 -0.1340
   13HTM     S715647   7.299  -0.152   0.972  0.0446 -0.2148 -0.0961
   14TAL    C6515648   7.695  -0.147   0.899  0.9491 -0.6215  0.1383
   14TAL    C6615649   7.801  -0.166   1.004 -0.1761  0.1350  1.0570
   14TAL    C6715650   7.936  -0.221   0.966 -1.1904 -0.5877 -0.0289
   14TAL    C6815651   8.065  -0.142   1.013  0.4563 -0.4701  0.5345
   14TAL    C6915652   8.173  -0.238   1.032 -0.5332  0.4600 -0.2513
   14TAL    C7015653   8.303  -0.200   1.089  0.2383  0.3802 -0.2057
   15HTM    C7115654   7.464  -0.343   0.867  0.4728 -0.0225  0.2777
   15HTM    C7215655   7.363  -0.402   0.798  0.3128  0.5414  0.0152
   15HTM    C7315656   7.385  -0.542   0.771 -0.1146  0.5646 -0.4775
   15HTM    C7415657   7.504  -0.589   0.818 -0.2803  0.0179 -0.5907
   15HTM     S815658   7.597  -0.460   0.903  0.0931 -0.5735 -0.0799
   16TAL    C7515659   7.280  -0.636   0.717  0.2958 -0.2945 -0.3353
   16TAL    C7615660   7.131  -0.618   0.726 -0.6795 -0.0007 -0.6776
   16TAL    C7715661   7.070  -0.751   0.771 -0.0023  0.0354  0.3185
   16TAL    C7815662   6.923  -0.750   0.758  0.1467 -0.0917  0.4346
   16TAL    C7915663   6.869  -0.846   0.662  0.1168 -0.3369 -0.1407
   16TAL    C8015664   6.880  -0.999   0.698  0.0707 -0.4205 -0.4343
   17HTM    C8115665   7.561  -0.717   0.774  0.0169 -0.4968 -0.3130
   17HTM    C8215666   7.574  -0.763   0.647  0.1098 -0.5648 -0.2798
   17HTM    C8315667   7.658  -0.879   0.635  0.0738 -0.6051 -0.1490
   17HTM    C8415668   7.710  -0.921   0.753 -0.0466 -0.5681 -0.0824
   17HTM     S915669   7.656  -0.817   0.890 -0.1245 -0.4783 -0.1806
   18TAL    C8515670   7.660  -0.942   0.500 -0.3950 -0.6604  0.3210
   18TAL    C8615671   7.527  -0.974   0.433 -0.7027  0.6267 -1.3413
   18TAL    C8715672   7.430  -1.060   0.502 -0.1632  0.9305  0.7336
   18TAL    C8815673   7.308  -1.085   0.400  0.0912 -0.7202 -0.7272
   18TAL    C8915674   7.289  -1.218   0.342 -0.4330  0.2459 -0.5689
   18TAL    C9015675   7.249  -1.343   0.414  0.0977  0.1560  0.4717
   19HTM    C9115676   7.807  -1.029   0.777 -0.2178 -0.2717  0.2913
   19HTM    C9215677   7.897  -1.082   0.690 -0.0037 -0.1030  0.4106
   19HTM    C9315678   7.981  -1.184   0.748  0.2073  0.1526  0.5594
   19HTM    C9415679   7.954  -1.209   0.879  0.1539  0.1778  0.5535
   19HTM    S1015680   7.820  -1.105   0.940 -0.1692 -0.1204  0.3581
   20TAL    C9515681   8.093  -1.231   0.656 -0.8526  0.2094 -0.9447
   20TAL    C9615682   8.144  -1.371   0.645  0.4521  0.7646 -0.1696
   20TAL    C9715683   8.041  -1.458   0.581 -0.5098  0.2477 -0.0691
   20TAL    C9815684   8.087  -1.600   0.612 -0.6619  0.4276 -0.6380
   20TAL    C9915685   8.016  -1.702   0.518 -0.8267 -0.0977 -1.3786
   20TAL   C10015686   8.030  -1.854   0.560  0.2825 -0.8246 -0.8142
   21HTM   C10115687   8.012  -1.290   0.978 -0.4603  0.0956  0.2852
   21HTM   C10215688   8.009  -1.426   0.976 -0.9458  0.0987  0.5344
   21HTM   C10315689   8.067  -1.488   1.092 -0.6781  0.1009  0.4016
   21HTM   C10415690   8.115  -1.398   1.183  0.0113  0.0991  0.0513
   21HTM    S1115691   8.090  -1.228   1.128  0.3789  0.0944 -0.1396
   22TAL   C10515692   8.066  -1.640   1.103  0.0004 -0.5515  0.0358
   22TAL   C10615693   7.929  -1.703   1.103  1.1074  0.1989  0.4970
   22TAL   C10715694   7.892  -1.830   1.016 -1.1662  0.0692  0.3070
   22TAL   C10815695   7.922  -1.962   1.078  0.7920  0.5336  0.3208
   22TAL   C10915696   7.875  -2.008   1.214 -1.2281 -0.6961  0.2403
   22TAL   C11015697   7.914  -2.149   1.234 -0.2215  0.9586  0.5543
   23HTM   C11115698   8.170  -1.396   1.314 -0.2343 -0.3904  0.3005
   23HTM   C11215699   8.162  -1.297   1.408 -0.2701 -0.5288  0.4449
   23HTM   C11315700   8.214  -1.335   1.537 -0.1431 -0.6568  0.3571
   23HTM   C11415701   8.261  -1.462   1.542 -0.0106 -0.6162  0.1459
   23HTM    S1215702   8.245  -1.546   1.382 -0.0360 -0.4114  0.0406
   24TAL   C11515703   8.201  -1.239   1.652 -0.1801 -1.0845 -0.3349
   24TAL   C11615704   8.078  -1.180   1.715  0.4061 -0.7202 -0.2971
   24TAL   C11715705   7.960  -1.275   1.763 -0.1203 -0.6756 -0.0905
   24TAL   C11815706   7.871  -1.335   1.657 -0.6004  0.6828  0.9505
   24TAL   C11915707   7.894  -1.462   1.575 -0.9509 -0.4625 -0.0475
   24TAL   C12015708   7.918  -1.588   1.652  0.2915  1.1353  0.1289
   25HTM   C12115709   8.334  -1.533   1.637 -0.1999 -0.2208 -0.0044
   25HTM   C12215710   8.311  -1.563   1.768 -0.1357  0.0403  0.0686
   25HTM   C12315711   8.417  -1.640   1.829 -0.0336  0.2968  0.2147
   25HTM   C12415712   8.521  -1.667   1.745 -0.0198  0.2315  0.2529
   25HTM    S1315713   8.492  -1.599   1.580 -0.1355 -0.1624  0.1063
   26TAL   C12515714   8.384  -1.697   1.969 -0.0683 -0.4688 -0.2893
   26TAL   C12615715   8.287  -1.607   2.053  0.0156  0.2911  1.4178
   26TAL   C12715716   8.207  -1.701   2.145  0.9714  0.2130  0.2632
   26TAL   C12815717   8.091  -1.775   2.074 -0.4550 -0.8532 -1.4872
   26TAL   C12915718   8.000  -1.844   2.177 -0.1335 -1.1314  0.6490
   26TAL   C13015719   7.888  -1.924   2.117 -0.0710 -0.0571  0.5926
   27HTM   C13115720   8.645  -1.733   1.781  0.0009 -0.6962 -0.1113
   27HTM   C13215721   8.661  -1.862   1.822  0.5200 -0.7210 -0.3726
   27HTM   C13315722   8.794  -1.893   1.867  0.6659 -0.2981 -0.5075
   27HTM   C13415723   8.880  -1.787   1.860  0.2584  0.0488 -0.3490
   27HTM    S1415724   8.799  -1.639   1.796 -0.3462 -0.1331 -0.0146
   28TAL   C13515725   8.835  -2.004   1.959 -0.1645  0.1297 -1.3523
   28TAL   C13615726   8.767  -2.139   1.984  0.3538  1.0983  0.3553
   28TAL   C13715727   8.723  -2.238   1.872  0.0043 -1.0411 -0.0574
   28TAL   C13815728   8.790  -2.206   1.737 -0.5131  0.4971  0.6477
   28TAL   C13915729   8.680  -2.218   1.626  0.2454 -0.2164 -0.1571
   28TAL   C14015730   8.604  -2.085   1.590  0.3995 -0.2911  0.2221
   29HTM   C14115731   9.020  -1.779   1.894 -0.0114  0.5150  0.1053
   29HTM   C14215732   9.081  -1.705   1.992  0.4029  0.7539 -0.3250
   29HTM   C14315733   9.217  -1.746   2.018  0.2894  0.3610 -0.3241
   29HTM   C14415734   9.259  -1.850   1.941 -0.2119 -0.1772  0.1069
   29HTM    S1515735   9.130  -1.906   1.828 -0.5819 -0.2299  0.5484
   30TAL   C14515736   9.301  -1.669   2.120  0.4549  0.2845  0.7828
   30TAL   C14615737   9.249  -1.553   2.211  0.0819  1.2133  0.0038
   30TAL   C14715738   9.219  -1.413   2.149 -0.1392 -0.0691 -0.8102
   30TAL   C14815739   9.339  -1.314   2.120  0.1014  0.2360 -0.8805
   30TAL   C14915740   9.430  -1.287   2.245  0.5829 -0.1302  0.0303
   30TAL   C15015741   9.538  -1.186   2.216 -0.3253  0.4906  0.8415
   31HTM   C15115742   9.387  -1.920   1.938 -0.1939 -0.0507  0.0186
   31HTM   C15215743   9.422  -1.990   1.827  0.0322  0.4174 -0.2109
   31HTM   C15315744   9.554  -2.048   1.833  0.0539  0.4654 -0.2238
   31HTM   C15415745   9.620  -2.022   1.949 -0.1559  0.0339 -0.0040
   31HTM    S1615746   9.520  -1.922   2.061 -0.3987 -0.4706  0.2382
   32TAL   C15515747   9.606  -2.150   1.739  0.5396  0.5275 -0.0112
   32TAL   C15615748   9.528  -2.179   1.613  0.1087 -0.7495  0.0617
   32TAL   C15715749   9.592  -2.292   1.534  0.5730  0.1226 -0.0725
   32TAL   C15815750   9.567  -2.277   1.383 -0.1546 -0.5266  0.5893
   32TAL   C15915751   9.431  -2.229   1.312 -0.9609  0.3373 -0.2185
   32TAL   C16015752   9.464  -2.144   1.187 -0.2914 -0.3356  0.2654
   33HTM   C16115753   9.751  -2.065   1.996  0.4477  0.3597  0.0987
   33HTM   C16215754   9.861  -1.986   1.982  0.7155 -0.1590 -0.8866
   33HTM   C16315755   9.985  -2.054   2.013  0.6543 -0.6248 -1.6029
   33HTM   C16415756   9.968  -2.184   2.051  0.3399 -0.4615 -1.1639
   33HTM    S1715757   9.794  -2.231   2.050  0.0948  0.2993  0.1989
   34TAL   C16515758  10.110  -1.968   1.992 -0.8632  0.1270  0.5788
   34TAL   C16615759  10.144  -1.849   2.078  0.9484  0.0054 -0.7090
   34TAL   C16715760  10.158  -1.881   2.229 -0.5587 -0.1646  0.6053
   34TAL   C16815761  10.041  -1.853   2.314  0.3621 -0.5910  0.2624
   34TAL   C16915762  10.090  -1.892   2.449  0.3268  0.2344  0.2742
   34TAL   C17015763   9.987  -1.911   2.560  0.3272 -0.2436  0.7107
   35HTM   C17115764  10.067  -2.279   2.102  0.2386  1.3223 -0.4943
   35HTM   C17215765  10.051  -2.414   2.089  0.0214  1.4535 -1.8643
   35HTM   C17315766  10.171  -2.489   2.114 -0.1920  0.9757 -2.2386
   35HTM   C17415767  10.279  -2.412   2.147 -0.1377  0.4803 -1.1540
   35HTM    S1815768  10.236  -2.236   2.148  0.1899  0.5797  0.4366
   36TAL   C17515769  10.148  -2.646   2.124 -1.3291 -0.8401  0.8725
   36TAL   C17615770  10.205  -2.725   2.005  0.3316 -0.5995 -0.2627
   36TAL   C17715771  10.307  -2.675   1.909  0.4341 -0.6528 -1.4028
   36TAL   C17815772  10.397  -2.772   1.835  0.2557 -1.5092 -0.1954
   36TAL   C17915773  10.496  -2.695   1.740 -0.0847  0.0382 -1.3671
   36TAL   C18015774  10.572  -2.804   1.670 -0.0945  0.1995  1.1435
   37HTM   C18115775  10.415  -2.440   2.185 -0.1315 -0.5540 -0.0482
   37HTM   C18215776  10.521  -2.355   2.185 -0.4506 -0.1452  0.1346
   37HTM   C18315777  10.642  -2.414   2.236 -0.3111  0.3170  0.3470
   37HTM   C18415778  10.628  -2.544   2.275  0.1145  0.2604  0.3262
   37HTM    S1915779  10.459  -2.602   2.250  0.3740 -0.3859  0.0344
   38TAL   C18515780  10.780  -2.358   2.227 -0.2029 -0.7808 -0.4101
   38TAL   C18615781  10.837  -2.312   2.087 -0.3193  0.5054  0.1222
   38TAL   C18715782  10.826  -2.411   1.964  0.7384 -0.4486 -0.5482
   38TAL   C18815783  10.934  -2.509   1.969 -1.0723 -0.7014 -0.0430
   38TAL   C18915784  10.896  -2.623   1.891 -0.2964  0.1071  1.3038
   38TAL   C19015785  11.015  -2.703   1.849  0.5671 -0.5020 -0.3887
   39HTM   C19115786  10.733  -2.634   2.339 -0.4074 -0.4552  0.2989
   39HTM   C19215787  10.792  -2.739   2.276 -0.4606 -0.8874  0.9525
   39HTM   C19315788  10.914  -2.783   2.338 -0.5088 -0.5990  1.2578
   39HTM   C19415789  10.949  -2.711   2.448 -0.4923  0.0531  0.8371
   39HTM    S2015790  10.829  -2.581   2.483 -0.4140  0.3559  0.0162
   40TAL   C19515791  11.013  -2.891   2.278 -0.8355  0.9441  0.5543
   40TAL   C19615792  10.963  -2.998   2.174 -0.4889  1.2876 -0.1312
   40TAL   C19715793  10.830  -3.075   2.207 -0.8606 -0.5304  0.9728
   40TAL   C19815794  10.800  -3.152   2.082  0.1335  0.6724  0.2516
   40TAL   C19915795  10.683  -3.247   2.078  0.0741 -0.9124  0.4464
   40TAL   C20015796  10.688  -3.295   1.940 -0.7965  0.8826  0.3519
   41HTM   C20115797  11.078  -2.713   2.501  0.4415  0.0273  0.3520
   41HTM   C20215798  11.176  -2.627   2.461  0.1764  0.6410  0.9812
   41HTM   C20315799  11.295  -2.633   2.541 -0.0031  0.8163  1.2645
   41HTM   C20415800  11.288  -2.724   2.642  0.1252  0.3364  0.8514
   41HTM    S2115801  11.129  -2.809   2.644  0.4855 -0.3801  0.0664
   42TAL   C20515802  11.408  -2.543   2.508  0.3104 -0.2095  0.3594
   42TAL   C20615803  11.397  -2.389   2.535  0.5511  0.4238  0.2088
   42TAL   C20715804  11.345  -2.342   2.667 -0.8650 -0.7097 -0.1614
   42TAL   C20815805  11.344  -2.180   2.656  1.1963  0.0462 -0.1340
   42TAL   C20915806  11.317  -2.103   2.780 -0.4742  0.5104 -0.2081
   42TAL   C21015807  11.331  -1.957   2.783 -0.1777 -0.2964 -0.2908
   43HTM   C21115808  11.381  -2.732   2.754  0.0317 -0.1759 -0.2644
   43HTM   C21215809  11.354  -2.745   2.887  0.2041 -0.1374 -0.2251
   43HTM   C21315810  11.470  -2.731   2.971  0.2758  0.1253 -0.3642
   43HTM   C21415811  11.585  -2.708   2.902  0.1581  0.2870 -0.5097
   43HTM    S2215812  11.556  -2.702   2.725 -0.0541  0.1186 -0.4819
   44TAL   C21515813  11.441  -2.731   3.120  0.0060  0.1828 -0.6424
   44TAL   C21615814  11.394  -2.594   3.172  1.1345  0.1705 -0.9161
   44TAL   C21715815  11.335  -2.602   3.311 -0.1824  1.3597 -0.1127
   44TAL   C21815816  11.440  -2.602   3.423 -0.1339 -0.1694  0.4730
   44TAL   C21915817  11.383  -2.617   3.564  0.8209  0.4785 -0.1448
   44TAL   C22015818  11.385  -2.768   3.591  0.4996  0.2643 -0.0152
   45HTM   C22115819  11.724  -2.706   2.947  0.8013  0.6806 -0.5798
   45HTM   C22215820  11.833  -2.739   2.872  1.0440  0.0551  0.0302
   45HTM   C22315821  11.957  -2.735   2.945  0.6461 -0.9239  0.8010
   45HTM   C22415822  11.943  -2.699   3.076  0.1001 -1.0447  0.7788
   45HTM    S2315823  11.770  -2.667   3.117  0.0455  0.0772 -0.2253
   46TAL   C22515824  12.082  -2.737   2.858  1.6116  0.0452 -0.5660
   46TAL   C22615825  12.081  -2.617   2.761  0.1707  0.3413  0.2574
   46TAL   C22715826  12.210  -2.582   2.681  0.9431 -0.8713 -0.1953
   46TAL   C22815827  12.318  -2.504   2.768 -0.2061 -0.6949  0.6510
   46TAL   C22915828  12.425  -2.587   2.830  0.4470 -0.5475  0.5988
   46TAL   C23015829  12.520  -2.513   2.916 -1.1791 -0.1036 -0.8229
   47HTM   C23115830  12.034  -2.697   3.184 -0.3988 -0.0770  0.2176
   47HTM   C23215831  12.106  -2.594   3.237  0.1075 -0.0854 -0.4293
   47HTM   C23315832  12.217  -2.637   3.319  0.5509 -0.0999 -1.0221
   47HTM   C23415833  12.229  -2.772   3.329  0.3828 -0.1025 -0.8271
   47HTM    S2415834  12.101  -2.857   3.234 -0.3545 -0.0868  0.1277
   48TAL   C23515835  12.316  -2.522   3.372  1.1477 -0.4013  0.6135
   48TAL   C23615836  12.445  -2.532   3.453  0.1746  0.8206  0.0316
   48TAL   C23715837  12.555  -2.623   3.390 -0.5800  0.1774 -0.6048
   48TAL   C23815838  12.582  -2.750   3.462 -1.3885  0.3474 -0.0720
   48TAL   C23915839  12.675  -2.843   3.393  0.7776  0.3715 -0.2635
   48TAL   C24015840  12.703  -2.969   3.466  0.1782 -0.2028  0.4780
    1HTM     C115841   0.638   0.256   3.765  0.0250  0.1253 -0.1989
    1HTM     C215842   0.680   0.144   3.699  0.2073  0.0314  0.0775
    1HTM     C315843   0.821   0.119   3.714  0.1218 -0.1017  0.7318
    1HTM     C415844   0.886   0.211   3.790 -0.1256 -0.1094  0.9541
    1HTM     S115845   0.773   0.339   3.850 -0.2711  0.0522  0.3499
    2TAL     C515846   0.888  -0.008   3.653  1.0060  0.2549  0.5238
    2TAL     C615847   0.825  -0.146   3.680  0.5785 -0.5555 -0.2337
    2TAL     C715848   0.772  -0.210   3.548 -0.8854 -0.5246 -0.6996
    2TAL     C815849   0.681  -0.333   3.559  0.1450 -0.4634 -0.8671
    2TAL     C915850   0.690  -0.395   3.424  0.8580  0.3912 -0.0796
    2TAL    C1015851   0.617  -0.527   3.411 -0.0851  0.2172  0.3643
    3HTM    C1115852   1.019   0.216   3.835  0.0507  0.3759  0.0503
    3HTM    C1215853   1.062   0.225   3.964 -0.1074  0.0137  0.1300
    3HTM    C1315854   1.200   0.187   3.981 -0.3786 -0.9377  0.3498
    3HTM    C1415855   1.262   0.150   3.866 -0.4273 -1.3010  0.4377
    3HTM     S215856   1.150   0.160   3.725 -0.1321 -0.4631  0.2482
    4TAL    C1515857   1.267   0.202   4.118 -0.7175 -0.5315 -0.2282
    4TAL    C1615858   1.189   0.194   4.258 -0.6640 -0.4714 -0.2483
    4TAL    C1715859   1.141   0.050   4.300 -0.4653  0.1111 -0.3843
    4TAL    C1815860   1.266  -0.037   4.314  0.5192  0.7714 -0.3147
    4TAL    C1915861   1.254  -0.182   4.358  1.0236  0.2228 -0.0529
    4TAL    C2015862   1.387  -0.260   4.357  0.0557  0.2030  0.7690
    5HTM    C2115863   1.401   0.104   3.820  0.1771  0.9385 -0.5382
    5HTM    C2215864   1.440   0.077   3.692  0.7991  1.4753 -0.4704
    5HTM    C2315865   1.571   0.018   3.683  0.6817  1.1406 -0.0488
    5HTM    C2415866   1.631  -0.001   3.803 -0.0299  0.3485  0.2049
    5HTM     S315867   1.527   0.055   3.939 -0.6113 -0.0390 -0.0712
    6TAL    C2515868   1.608  -0.052   3.553 -0.5076 -1.1345 -0.3328
    6TAL    C2615869   1.731   0.024   3.504  0.6387 -0.7616 -0.2097
    6TAL    C2715870   1.711   0.174   3.474  0.1291 -0.0255  0.5438
    6TAL    C2815871   1.817   0.254   3.396  0.7380 -0.3093  0.2483
    6TAL    C2915872   1.880   0.196   3.266 -0.3511 -0.2536  1.2716
    6TAL    C3015873   1.970   0.288   3.195 -0.4849 -0.5720 -0.6768
    7HTM    C3115874   1.767  -0.068   3.837  0.1798 -0.0674  0.2217
    7HTM    C3215875   1.775  -0.194   3.888 -0.0179  0.0386  0.5236
    7HTM    C3315876   1.909  -0.236   3.920 -0.0943 -0.0577  0.7210
    7HTM    C3415877   2.003  -0.142   3.894  0.0450 -0.2372  0.5697
    7HTM     S415878   1.930   0.009   3.826  0.2856 -0.2996  0.1630
    8TAL    C3515879   1.930  -0.352   4.015 -0.6916 -0.0703 -0.1083
    8TAL    C3615880   1.856  -0.372   4.151  0.0238  0.3871  0.6080
    8TAL    C3715881   1.906  -0.473   4.244  0.5838  0.2146 -0.6222
    8TAL    C3815882   1.992  -0.596   4.217 -0.7494  0.2849 -0.0785
    8TAL    C3915883   1.940  -0.680   4.112  0.8805  1.0302  0.3589
    8TAL    C4015884   2.058  -0.741   4.037  0.5873  0.3256  0.0764
    9HTM    C4115885   2.149  -0.153   3.910  0.1814 -0.6319 -0.3122
    9HTM    C4215886   2.238  -0.243   3.860  0.7757  0.3884 -1.1628
    9HTM    C4315887   2.374  -0.219   3.903  0.7690  1.3139 -1.5939
    9HTM    C4415888   2.387  -0.112   3.986  0.1696  0.9994 -1.0718
    9HTM     S515889   2.228  -0.031   4.016 -0.4375 -0.5022  0.0130
   10TAL    C4515890   2.493  -0.305   3.870  1.4616  0.1288  1.0302
   10TAL    C4615891   2.502  -0.446   3.914  0.0671 -0.1297  0.0865
   10TAL    C4715892   2.419  -0.506   4.028  0.2314 -0.5937 -0.1154
   10TAL    C4815893   2.397  -0.429   4.160  0.3274 -0.0144  0.3004
   10TAL    C4915894   2.514  -0.435   4.259 -0.2446  0.3982  0.1071
   10TAL    C5015895   2.472  -0.365   4.385 -0.1787 -0.5947  0.9057
   11HTM    C5115896   2.506  -0.064   4.047  0.1937  0.1797 -0.3591
   11HTM    C5215897   2.525  -0.066   4.182  0.3645 -0.3939 -0.3886
   11HTM    C5315898   2.656  -0.023   4.223  0.4633 -0.7000 -0.3761
   11HTM    C5415899   2.737   0.013   4.119  0.3675 -0.3602 -0.3371
   11HTM     S615900   2.653  -0.006   3.960  0.1438  0.3790 -0.3129
   12TAL    C5515901   2.681  -0.002   4.374 -0.2101  0.0354  1.3897
   12TAL    C5615902   2.695   0.140   4.421 -0.1817 -0.3329  0.0589
   12TAL    C5715903   2.761   0.179   4.557  0.3563  0.4043 -0.7586
   12TAL    C5815904   2.666   0.257   4.663  0.3838  0.5063  0.6217
   12TAL    C5915905   2.575   0.161   4.742  0.2517  0.3762  0.1085
   12TAL    C6015906   2.469   0.246   4.817 -0.9531  0.5321 -1.7196
   13HTM    C6115907   2.867   0.072   4.118  0.2490 -0.3925 -0.6172
   13HTM    C6215908   2.981   0.018   4.169  0.2642 -0.5471 -0.8147
   13HTM    C6315909   3.100   0.091   4.135  0.2569 -0.4583 -0.6515
   13HTM    C6415910   3.077   0.201   4.058  0.2362 -0.2359 -0.3295
   13HTM     S715911   2.901   0.221   4.022  0.2242 -0.1205 -0.2067
   14TAL    C6515912   3.234   0.047   4.201  0.7550  1.2780  0.2080
   14TAL    C6615913   3.308  -0.064   4.112 -0.3387  0.2377 -1.3613
   14TAL    C6715914   3.328  -0.019   3.964 -0.0530 -0.6926  0.1971
   14TAL    C6815915   3.441  -0.095   3.913 -0.3780  0.1283 -1.2068
   14TAL    C6915916   3.567  -0.046   3.849  1.4088 -1.1921 -0.3159
   14TAL    C7015917   3.643   0.040   3.949  0.8847  0.7394  0.1167
   15HTM    C7115918   3.156   0.314   4.014  0.0930  0.0818  0.0281
   15HTM    C7215919   3.127   0.409   3.921  0.0599  0.3394  0.2969
   15HTM    C7315920   3.228   0.510   3.907  0.1941  0.2091  0.3260
   15HTM    C7415921   3.335   0.492   3.989  0.3294 -0.1479  0.0795
   15HTM     S815922   3.315   0.345   4.092  0.2978 -0.3487 -0.2110
   16TAL    C7515923   3.198   0.621   3.801  0.1645 -0.1620 -0.1817
   16TAL    C7615924   3.241   0.612   3.654  0.0425 -0.0817 -0.5941
   16TAL    C7715925   3.205   0.490   3.580 -0.0229 -0.6422  0.0712
   16TAL    C7815926   3.061   0.472   3.535 -0.4643  1.3189 -0.6646
   16TAL    C7915927   3.005   0.343   3.483  0.3082 -0.2657  0.1487
   16TAL    C8015928   2.857   0.355   3.443 -0.9297 -0.5549  0.4042
   17HTM    C8115929   3.476   0.551   3.977  0.2807  0.1064  0.1862
   17HTM    C8215930   3.593   0.484   3.954  0.1529 -0.1090  0.1678
   17HTM    C8315931   3.709   0.568   3.951  0.3209 -0.3356  0.2415
   17HTM    C8415932   3.682   0.700   3.972  0.5765 -0.2930  0.3160
   17HTM     S915933   3.505   0.728   3.997  0.6255  0.0391  0.2990
   18TAL    C8515934   3.845   0.511   3.909  0.1853 -0.1492 -0.1666
   18TAL    C8615935   3.956   0.494   4.009 -0.0006  0.4595 -0.8040
   18TAL    C8715936   3.960   0.375   4.104  1.4970  0.5917  0.5994
   18TAL    C8815937   4.055   0.376   4.217  0.7300 -0.0336 -0.3270
   18TAL    C8915938   3.993   0.455   4.329 -0.1299  0.0234  0.3815
   18TAL    C9015939   4.087   0.446   4.451  0.6164  0.0787 -0.7004
   19HTM    C9115940   3.770   0.813   3.979 -0.4091  0.1626  0.2859
   19HTM    C9215941   3.780   0.917   3.891 -0.3554  0.1116  0.2314
   19HTM    C9315942   3.873   1.019   3.932 -0.0440 -0.0812  0.0097
   19HTM    C9415943   3.935   0.993   4.051  0.1398 -0.1772 -0.1049
   19HTM    S1015944   3.879   0.836   4.121 -0.0680 -0.0303  0.0596
   20TAL    C9515945   3.909   1.139   3.847  0.2070  0.6469 -0.0781
   20TAL    C9615946   3.834   1.270   3.848 -0.3105  0.4378  0.3015
   20TAL    C9715947   3.909   1.372   3.766 -0.0459 -0.9531  1.5697
   20TAL    C9815948   3.849   1.523   3.748  0.5674  1.5773  0.9401
   20TAL    C9915949   3.709   1.562   3.799 -0.0389  0.6411 -0.3907
   20TAL   C10015950   3.672   1.709   3.773 -0.0260 -0.0462  0.6388
   21HTM   C10115951   4.013   1.076   4.143 -0.6328  0.6257 -0.4431
   21HTM   C10215952   4.095   1.180   4.111 -0.9799  1.0259 -0.0660
   21HTM   C10315953   4.144   1.253   4.225 -0.7145  0.3739  0.2466
   21HTM   C10415954   4.100   1.204   4.344 -0.1649 -0.5236  0.1080
   21HTM    S1115955   3.991   1.062   4.322  0.0619 -0.6155 -0.4324
   22TAL   C10515956   4.236   1.371   4.202 -0.5598 -0.4095 -0.6015
   22TAL   C10615957   4.224   1.464   4.076 -1.4135 -0.1510 -0.6872
   22TAL   C10715958   4.099   1.551   4.046  1.3838 -0.8312  0.0321
   22TAL   C10815959   3.976   1.563   4.140 -0.4580  0.0327  0.2376
   22TAL   C10915960   3.869   1.672   4.090 -0.1465  0.1197  0.1202
   22TAL   C11015961   3.757   1.646   4.191 -0.0571 -0.3635  0.7930
   23HTM   C11115962   4.124   1.260   4.479  0.2680 -0.1129  0.0166
   23HTM   C11215963   4.144   1.389   4.518  0.0608 -0.1232  0.1612
   23HTM   C11315964   4.161   1.404   4.661  0.1787 -0.2746  0.1637
   23HTM   C11415965   4.154   1.287   4.729  0.4761 -0.3797  0.0210
   23HTM    S1215966   4.124   1.147   4.619  0.6313 -0.2950 -0.1286
   24TAL   C11515967   4.199   1.532   4.724  0.2136 -0.1259  0.4121
   24TAL   C11615968   4.341   1.561   4.686 -1.0398  0.4470  0.2249
   24TAL   C11715969   4.381   1.699   4.742 -0.6467 -0.1041 -0.4939
   24TAL   C11815970   4.365   1.719   4.886  0.1509  0.3252 -0.5823
   24TAL   C11915971   4.451   1.649   4.983 -1.2348  0.0656 -0.9270
   24TAL   C12015972   4.381   1.663   5.109  1.0664 -0.1673 -0.0384
   25HTM   C12115973   4.145   1.265   4.876  0.8382  0.6281  0.0567
   25HTM   C12215974   4.152   1.142   4.934  0.6859  0.4146 -0.3705
   25HTM   C12315975   4.148   1.145   5.078  0.3048 -0.1074 -0.3623
   25HTM   C12415976   4.138   1.271   5.130  0.1665 -0.2919  0.0710
   25HTM    S1315977   4.133   1.396   4.999  0.5096  0.1830  0.5058
   26TAL   C12515978   4.131   1.018   5.160  0.3243  0.5281 -0.4344
   26TAL   C12615979   4.260   0.952   5.191  0.1596  0.4670 -0.0266
   26TAL   C12715980   4.344   0.905   5.072 -0.5205  0.5904 -0.7461
   26TAL   C12815981   4.468   0.818   5.103  0.7668 -0.1056  0.5613
   26TAL   C12915982   4.440   0.686   5.182  0.3978 -0.8364  0.6178
   26TAL   C13015983   4.573   0.611   5.203  0.2235 -0.4537  0.1072
   27HTM   C13115984   4.156   1.331   5.258 -0.9060  0.4121 -0.4311
   27HTM   C13215985   4.272   1.385   5.306 -0.3804 -0.2746 -0.8984
   27HTM   C13315986   4.271   1.408   5.448  0.6130 -0.9272 -0.7650
   27HTM   C13415987   4.154   1.372   5.509  0.8448 -0.7382 -0.1960
   27HTM    S1415988   4.036   1.306   5.390 -0.1814  0.2867  0.2187
   28TAL   C13515989   4.384   1.476   5.519  0.0845 -1.0185  0.2913
   28TAL   C13615990   4.396   1.627   5.477  0.6700  0.1114 -0.0419
   28TAL   C13715991   4.493   1.726   5.546 -0.5247 -0.9502 -0.1804
   28TAL   C13815992   4.464   1.864   5.496 -0.6133  0.3240  0.8770
   28TAL   C13915993   4.504   1.975   5.594 -0.9642  0.4510  0.1172
   28TAL   C14015994   4.495   2.107   5.518  0.3721  0.4722 -0.0885
   29HTM   C14115995   4.107   1.411   5.649  0.1511  0.6251  0.3427
   29HTM   C14215996   4.174   1.369   5.760  0.1599  0.6136  0.3333
   29HTM   C14315997   4.097   1.378   5.881  0.1502  0.5482  0.3320
   29HTM   C14415998   3.971   1.427   5.863  0.1341  0.5098  0.3408
   29HTM    S1515999   3.940   1.465   5.690  0.1298  0.5537  0.3513
   30TAL   C14516000   4.156   1.314   6.007  0.0099 -0.0787  0.1361
   30TAL   C14616001   4.253   1.405   6.082  1.3337 -0.6641  0.0129
   30TAL   C14716002   4.305   1.371   6.226  1.3184  0.0185  0.5019
   30TAL   C14816003   4.257   1.260   6.313  0.4910 -0.0361  1.1745
   30TAL   C14916004   4.343   1.248   6.440 -0.3481 -0.2123  0.5176
   30TAL   C15016005   4.280   1.154   6.548 -0.4497  0.2659  1.3331
   31HTM   C15116006   3.863   1.418   5.955 -0.4729 -0.5296 -0.3015
   31HTM   C15216007   3.851   1.351   6.073 -0.6405 -0.9287 -0.5404
   31HTM   C15316008   3.737   1.392   6.152 -0.5211 -0.9007 -0.3806
   31HTM   C15416009   3.662   1.490   6.093 -0.2623 -0.4802 -0.0200
   31HTM    S1616010   3.730   1.539   5.933 -0.1486 -0.0838  0.1471
   32TAL   C15516011   3.712   1.307   6.286 -0.2144 -0.3288  0.5572
   32TAL   C15616012   3.634   1.174   6.267 -0.2444  0.4795  0.2039
   32TAL   C15716013   3.697   1.058   6.353 -0.0979 -0.5633  0.6648
   32TAL   C15816014   3.849   1.036   6.339  0.1711  0.0808  0.4094
   32TAL   C15916015   3.931   1.015   6.206  0.0549 -0.1952  0.8880
   32TAL   C16016016   3.873   0.904   6.106  0.1001 -1.2296 -0.5601
   33HTM   C16116017   3.553   1.559   6.140  0.1779 -0.7441 -0.3186
   33HTM   C16216018   3.477   1.642   6.064  0.5023 -0.4700 -0.3483
   33HTM   C16316019   3.376   1.714   6.138  0.8118 -0.0078 -0.3656
   33HTM   C16416020   3.376   1.685   6.271  0.7234  0.0704 -0.3493
   33HTM    S1716021   3.503   1.565   6.314  0.2387 -0.4375 -0.3101
   34TAL   C16516022   3.269   1.799   6.061  0.3552  0.7568  0.0841
   34TAL   C16616023   3.322   1.903   5.963  0.7551 -0.8973 -0.6152
   34TAL   C16716024   3.212   1.997   5.898  0.8116  0.7234  0.1449
   34TAL   C16816025   3.129   1.941   5.763 -1.4215 -0.1779  0.1715
   34TAL   C16916026   2.980   1.993   5.775 -1.2019 -0.5953 -0.2222
   34TAL   C17016027   2.979   2.142   5.730  0.8179  0.0215  0.0725
   35HTM   C17116028   3.277   1.719   6.383  0.5336 -0.3693 -0.4125
   35HTM   C17216029   3.224   1.840   6.416  0.2598 -0.3354 -0.9543
   35HTM   C17316030   3.138   1.837   6.531  0.0709 -0.0577 -1.0860
   35HTM   C17416031   3.124   1.713   6.586  0.2008  0.1201 -0.6446
   35HTM    S1816032   3.220   1.590   6.496  0.5745 -0.0508 -0.0237
   36TAL   C17516033   3.074   1.972   6.566  0.0133  0.6661  0.7571
   36TAL   C17616034   2.983   2.026   6.448 -0.0770  0.2915 -0.7592
   36TAL   C17716035   2.867   1.939   6.405 -0.0679  0.0346  0.0642
   36TAL   C17816036   2.756   1.860   6.486  0.1001 -0.1211 -0.0364
   36TAL   C17916037   2.658   1.960   6.554 -0.0924 -0.6161 -1.1527
   36TAL   C18016038   2.531   1.881   6.607  0.2379  0.3133 -0.2226
   37HTM   C18116039   3.038   1.672   6.700  0.2023 -0.5228  0.4348
   37HTM   C18216040   3.018   1.547   6.750  0.2540 -0.3242  0.9609
   37HTM   C18316041   2.934   1.544   6.867  0.0461  0.1068  0.8254
   37HTM   C18416042   2.890   1.667   6.906 -0.1641  0.2369  0.1958
   37HTM    S1916043   2.952   1.797   6.797 -0.1154 -0.1782 -0.2783
   38TAL   C18516044   2.914   1.411   6.935 -0.4261 -0.2065 -0.4509
   38TAL   C18616045   3.030   1.348   7.007 -0.6339  0.9727 -1.0275
   38TAL   C18716046   3.108   1.417   7.119  0.2340 -0.0888  0.0399
   38TAL   C18816047   3.041   1.488   7.232  0.3700 -0.2730 -0.2494
   38TAL   C18916048   2.937   1.418   7.310  0.0712  0.6312 -0.1209
   38TAL   C19016049   2.949   1.416   7.461 -0.4826  0.2043 -1.0860
   39HTM   C19116050   2.798   1.684   7.011  0.0524  0.0968  0.5838
   39HTM   C19216051   2.806   1.747   7.131 -0.3381 -0.4019  0.8782
   39HTM   C19316052   2.681   1.752   7.203 -0.5826 -0.6638  0.4770
   39HTM   C19416053   2.578   1.693   7.136 -0.3786 -0.3648 -0.1237
   39HTM    S2016054   2.630   1.626   6.978  0.1423  0.2757 -0.2295
   40TAL   C19516055   2.664   1.861   7.312 -0.4611  0.3146 -0.9474
   40TAL   C19616056   2.698   1.819   7.456  0.0093 -0.2913  0.4070
   40TAL   C19716057   2.726   1.934   7.563  0.3168  0.2949  0.0439
   40TAL   C19816058   2.625   2.047   7.552 -0.6147 -1.1036 -0.6111
   40TAL   C19916059   2.483   2.029   7.610 -0.4518  0.5112  0.4968
   40TAL   C20016060   2.385   2.115   7.539  0.6775 -0.2483  0.5525
   41HTM   C20116061   2.444   1.678   7.162  0.2263 -0.6017 -0.0447
   41HTM   C20216062   2.341   1.765   7.184  0.2087 -0.5805 -0.2042
   41HTM   C20316063   2.213   1.701   7.196  0.2155 -0.5809 -0.1308
   41HTM   C20416064   2.218   1.565   7.183  0.2383 -0.6023  0.0847
   41HTM    S2116065   2.386   1.508   7.154  0.2532 -0.6239  0.2124
   42TAL   C20516066   2.075   1.771   7.214  0.2423  0.3071 -0.2125
   42TAL   C20616067   2.027   1.868   7.121 -0.1954 -0.3750  0.2581
   42TAL   C20716068   2.015   1.821   6.974 -0.8052 -0.0022  0.3706
   42TAL   C20816069   1.931   1.709   6.930  0.6964 -0.0483  1.0242
   42TAL   C20916070   1.779   1.711   6.937 -0.0822  0.4088  0.9288
   42TAL   C21016071   1.719   1.718   7.079  0.1533  0.5852  1.0399
   43HTM   C21116072   2.123   1.456   7.168 -0.0791 -0.2925 -0.3376
   43HTM   C21216073   2.145   1.330   7.119 -0.2918 -0.4769  0.0334
   43HTM   C21316074   2.039   1.237   7.149 -0.3910 -0.2413  0.4191
   43HTM   C21416075   1.937   1.292   7.222 -0.2539  0.1225  0.3422
   43HTM    S2216076   1.967   1.466   7.257  0.0131  0.1965 -0.2277
   44TAL   C21516077   2.037   1.093   7.102  0.2746 -0.9191 -1.3514
   44TAL   C21616078   2.167   1.016   7.103 -0.3213 -0.5222  0.6383
   44TAL   C21716079   2.174   0.889   7.009  0.6611 -0.8666 -0.3449
   44TAL   C21816080   2.308   0.833   7.007  0.7839 -0.1595  0.1165
   44TAL   C21916081   2.341   0.757   6.874 -0.0249  0.5655 -0.9095
   44TAL   C22016082   2.489   0.719   6.887  0.9263 -0.7647 -0.1192
   45HTM   C22116083   1.803   1.247   7.253 -0.5049  0.3292 -0.0700
   45HTM   C22216084   1.682   1.301   7.221 -0.7243 -0.1470 -0.0660
   45HTM   C22316085   1.570   1.225   7.268 -0.4247 -0.6436 -0.1426
   45HTM   C22416086   1.605   1.112   7.337  0.0232 -0.5461 -0.2052
   45HTM    S2316087   1.784   1.094   7.347  0.1020  0.1862 -0.1718
   46TAL   C22516088   1.432   1.278   7.255  1.0065 -0.8427  0.2763
   46TAL   C22616089   1.362   1.283   7.117  0.2663 -0.2028 -0.0097
   46TAL   C22716090   1.216   1.320   7.119  1.1498 -0.5076  0.0800
   46TAL   C22816091   1.185   1.473   7.120  0.6007  0.3675  0.4748
   46TAL   C22916092   1.027   1.500   7.094 -0.2583 -0.2402 -0.6353
   46TAL   C23016093   0.908   1.426   7.155 -1.1310  0.8765 -0.7625
   47HTM   C23116094   1.525   1.004   7.389  0.5033 -0.1963  0.2418
   47HTM   C23216095   1.404   1.012   7.451  0.6863 -0.1710  0.6009
   47HTM   C23316096   1.346   0.884   7.481  0.7373 -0.1591  0.7501
   47HTM   C23416097   1.423   0.778   7.442  0.5930 -0.1752  0.5044
   47HTM    S2416098   1.576   0.833   7.364  0.3800 -0.2071  0.0625
   48TAL   C23516099   1.216   0.896   7.555  0.4432  0.3039  0.0270
   48TAL   C23616100   1.126   0.777   7.603 -0.1472  0.7688  0.2522
   48TAL   C23716101   1.088   0.661   7.510 -0.0579 -0.1641  0.5506
   48TAL   C23816102   0.985   0.574   7.570 -0.5397 -0.0096 -0.3831
   48TAL   C23916103   0.917   0.481   7.471  0.8560 -0.9377 -1.1366
   48TAL   C24016104   0.793   0.394   7.522  0.1068 -1.1450  0.0302
    1HTM     C116105   6.424   4.258   3.927  0.4275  0.2973  0.2569
    1HTM     C216106   6.432   4.351   3.828  0.5258  0.2474  0.2177
    1HTM     C316107   6.326   4.344   3.731  0.6937  0.1153  0.0422
    1HTM     C416108   6.236   4.244   3.756  0.7230  0.0646 -0.0525
    1HTM     S116109   6.280   4.152   3.905  0.5401  0.1806  0.0737
    2TAL     C516110   6.318   4.430   3.612  0.3499 -0.3899 -0.1818
    2TAL     C616111   6.434   4.520   3.583 -0.0022  0.1947  0.5587
    2TAL     C716112   6.414   4.610   3.465 -0.1554 -1.0373 -0.5600
    2TAL     C816113   6.450   4.551   3.331  0.5084  0.4872  0.1591
    2TAL     C916114   6.469   4.662   3.228 -0.1850  0.0612  0.2379
    2TAL    C1016115   6.352   4.759   3.188 -0.5167 -0.4657 -0.3724
    3HTM    C1116116   6.099   4.223   3.692  0.1495  0.3992  0.2106
    3HTM    C1216117   6.044   4.289   3.587  0.6038 -0.0428 -0.3242
    3HTM    C1316118   5.909   4.248   3.557  0.8261 -0.3594 -0.9210
    3HTM    C1416119   5.862   4.150   3.639  0.5417 -0.1591 -0.8411
    3HTM     S216120   5.985   4.102   3.762 -0.0337  0.4500  0.0004
    4TAL    C1516121   5.826   4.338   3.473 -0.0949 -0.7041 -1.0015
    4TAL    C1616122   5.869   4.477   3.467 -0.8153 -1.9310 -0.0540
    4TAL    C1716123   5.782   4.567   3.382  0.3441 -0.4492 -0.3640
    4TAL    C1816124   5.800   4.721   3.389 -0.3040 -0.0637 -0.5981
    4TAL    C1916125   5.742   4.823   3.288 -0.9839 -0.0079 -0.5173
    4TAL    C2016126   5.596   4.828   3.261  0.0794  0.6629 -0.1041
    5HTM    C2116127   5.735   4.080   3.627  0.0415  0.6549  0.1295
    5HTM    C2216128   5.679   4.016   3.733  0.5605 -0.2446 -0.1084
    5HTM    C2316129   5.543   3.973   3.710  0.7703 -0.9073 -0.1256
    5HTM    C2416130   5.497   4.003   3.586  0.4114 -0.5129  0.0990
    5HTM     S316131   5.621   4.089   3.487 -0.2245  0.7356  0.3517
    6TAL    C2516132   5.454   3.932   3.828  0.2622  1.4668  1.1686
    6TAL    C2616133   5.464   3.784   3.867 -0.1432  0.1681  0.1144
    6TAL    C2716134   5.380   3.740   3.979 -0.1931  0.7809 -0.4096
    6TAL    C2816135   5.430   3.607   4.047  0.0271 -0.4784 -0.3044
    6TAL    C2916136   5.550   3.638   4.154  0.7208 -1.1342 -0.4451
    6TAL    C3016137   5.587   3.518   4.232 -0.3281 -0.5952  0.3939
    7HTM    C3116138   5.361   3.971   3.530  0.0155 -0.9405  0.5612
    7HTM    C3216139   5.340   3.956   3.396  0.3645 -1.0628  0.5193
    7HTM    C3316140   5.201   3.949   3.359  0.4470 -0.6452  0.1150
    7HTM    C3416141   5.116   3.959   3.465  0.1610 -0.2046 -0.1513
    7HTM     S416142   5.205   3.978   3.621 -0.2380 -0.2836  0.0897
    8TAL    C3516143   5.163   3.914   3.215 -0.1536  0.7313 -0.4957
    8TAL    C3616144   5.259   3.957   3.107  0.2020  0.0395 -0.6667
    8TAL    C3716145   5.227   3.926   2.967  0.6966 -0.2477 -0.3045
    8TAL    C3816146   5.286   4.014   2.848 -0.1025 -0.2065  0.3550
    8TAL    C3916147   5.427   4.042   2.812 -0.5185 -0.4219  0.0061
    8TAL    C4016148   5.515   3.917   2.779  0.1793 -0.4369  0.2382
    9HTM    C4116149   4.971   3.934   3.476 -0.2256 -0.2526 -0.2511
    9HTM    C4216150   4.906   3.922   3.595 -0.3495  0.0572 -0.2850
    9HTM    C4316151   4.765   3.892   3.582 -0.3593  0.1324 -0.3530
    9HTM    C4416152   4.724   3.881   3.452 -0.2429 -0.1200 -0.3709
    9HTM     S516153   4.859   3.909   3.336 -0.1107 -0.4751 -0.3027
   10TAL    C4516154   4.670   3.858   3.700 -1.1045  0.2203 -0.6884
   10TAL    C4616155   4.655   3.957   3.813 -0.5689 -0.0891  0.6344
   10TAL    C4716156   4.579   3.903   3.933  0.7666  1.5385 -0.4969
   10TAL    C4816157   4.579   3.980   4.069  0.8179  0.2763  0.0125
   10TAL    C4916158   4.464   3.920   4.161 -0.7274  0.1384  0.1157
   10TAL    C5016159   4.452   4.018   4.284 -0.0643  1.0368 -0.2891
   11HTM    C5116160   4.596   3.852   3.392 -0.1428  0.4186  0.3416
   11HTM    C5216161   4.543   3.920   3.286 -0.4308  1.2116  0.9714
   11HTM    C5316162   4.414   3.871   3.245 -0.6533  1.6780  1.0987
   11HTM    C5416163   4.369   3.766   3.319 -0.5347  1.2406  0.5662
   11HTM     S616164   4.487   3.720   3.448 -0.1299  0.1976 -0.1432
   12TAL    C5516165   4.362   3.923   3.113  0.1218  0.4748  1.0410
   12TAL    C5616166   4.440   4.030   3.038  0.3262  0.0538  0.5410
   12TAL    C5716167   4.388   4.080   2.895  0.7697  0.3193 -1.5288
   12TAL    C5816168   4.228   4.089   2.882 -0.8641  0.5589 -0.3228
   12TAL    C5916169   4.192   4.107   2.735  0.2449  0.4379 -0.6841
   12TAL    C6016170   4.047   4.143   2.728 -0.2231 -0.6270  0.4057
   13HTM    C6116171   4.239   3.698   3.321  0.4063 -0.0659 -0.4348
   13HTM    C6216172   4.218   3.590   3.402  0.1029  0.4193  0.1472
   13HTM    C6316173   4.093   3.522   3.376 -0.1075  0.6483  0.5422
   13HTM    C6416174   4.020   3.578   3.275  0.0348  0.3378  0.2613
   13HTM     S716175   4.103   3.722   3.205  0.4495 -0.2727 -0.5299
   14TAL    C6516176   4.050   3.400   3.461 -0.7284 -0.1195  0.6140
   14TAL    C6616177   4.136   3.280   3.421  0.7791 -0.1170 -0.1500
   14TAL    C6716178   4.079   3.136   3.466  0.4892  0.2890  0.0401
   14TAL    C6816179   3.940   3.103   3.411  0.2267  0.0182  0.6695
   14TAL    C6916180   3.856   3.005   3.489  0.2507 -0.5203 -0.5248
   14TAL    C7016181   3.709   3.022   3.459 -0.2787 -0.4634  0.3057
   15HTM    C7116182   3.905   3.526   3.197 -0.0954 -0.1148 -0.4461
   15HTM    C7216183   3.896   3.521   3.061  0.1104 -0.7126 -0.4427
   15HTM    C7316184   3.779   3.453   3.013  0.1134 -0.8043 -0.3218
   15HTM    C7416185   3.698   3.406   3.112 -0.0902 -0.2764 -0.2330
   15HTM     S816186   3.764   3.444   3.276 -0.3031  0.3825 -0.2956
   16TAL    C7516187   3.766   3.430   2.868 -0.7882 -0.3926  1.5228
   16TAL    C7616188   3.795   3.285   2.829  0.2265 -0.1385 -0.7285
   16TAL    C7716189   3.713   3.247   2.707 -0.5417 -0.7350 -0.0394
   16TAL    C7816190   3.732   3.108   2.643  0.6315 -0.0809  1.1925
   16TAL    C7916191   3.609   3.084   2.564 -0.4723  0.6446  0.4614
   16TAL    C8016192   3.610   2.948   2.504  0.9968 -0.3553 -0.1745
   17HTM    C8116193   3.572   3.343   3.097  0.1899 -0.3447  0.8793
   17HTM    C8216194   3.477   3.375   3.005  0.1361  0.9888  1.3502
   17HTM    C8316195   3.358   3.296   3.015 -0.2415  1.4790  0.8653
   17HTM    C8416196   3.361   3.203   3.116 -0.4756  0.5194  0.0247
   17HTM     S916197   3.518   3.209   3.205 -0.2355 -1.0904 -0.2216
   18TAL    C8516198   3.250   3.315   2.910 -0.0965  0.0281  0.1649
   18TAL    C8616199   3.141   3.410   2.955 -0.2927 -0.0283  0.4814
   18TAL    C8716200   3.075   3.485   2.838  0.5415  0.6996 -0.3706
   18TAL    C8816201   3.128   3.626   2.823  0.6594 -0.3047  0.3268
   18TAL    C8916202   3.064   3.721   2.715  0.6078  0.1553 -0.3437
   18TAL    C9016203   3.028   3.675   2.575 -0.5527 -0.6373  0.5941
   19HTM    C9116204   3.259   3.116   3.167 -0.1713 -0.5191  0.0694
   19HTM    C9216205   3.251   3.065   3.293  0.4014 -1.7558 -0.3619
   19HTM    C9316206   3.134   2.986   3.317  0.6896 -2.2983 -0.6887
   19HTM    C9416207   3.051   2.976   3.209  0.3367 -1.4752 -0.5068
   19HTM    S1016208   3.116   3.067   3.068 -0.3927  0.0607  0.0963
   20TAL    C9516209   3.115   2.923   3.458  0.3637  0.1422 -0.5542
   20TAL    C9616210   3.236   2.856   3.522 -0.5629 -0.2520 -0.8258
   20TAL    C9716211   3.340   2.774   3.452 -1.3514 -0.0559 -1.1304
   20TAL    C9816212   3.313   2.651   3.380 -0.8721  0.0319  0.1188
   20TAL    C9916213   3.184   2.571   3.422  0.0220  0.4404  1.0957
   20TAL   C10016214   3.177   2.421   3.376  0.0122  0.5282 -0.1756
   21HTM   C10116215   2.931   2.904   3.199 -0.4396  0.4337  0.1209
   21HTM   C10216216   2.806   2.936   3.243 -0.5546 -0.0645  0.1646
   21HTM   C10316217   2.702   2.853   3.187 -0.2319 -0.5925  0.3313
   21HTM   C10416218   2.748   2.758   3.101  0.1294 -0.4970  0.4145
   21HTM    S1116219   2.927   2.766   3.083  0.0894  0.2733  0.2880
   22TAL   C10516220   2.562   2.860   3.222  0.1710 -0.2967 -0.7260
   22TAL   C10616221   2.532   2.949   3.340 -0.5204  0.3627  0.7300
   22TAL   C10716222   2.394   3.001   3.353 -0.0446 -0.0394 -0.2857
   22TAL   C10816223   2.359   3.091   3.472 -0.9855  0.4839  0.7164
   22TAL   C10916224   2.290   3.025   3.588 -0.3603  1.0661  0.0443
   22TAL   C11016225   2.340   2.887   3.645 -0.3684 -0.8318  0.0546
   23HTM   C11116226   2.675   2.653   3.029  0.2078  0.6908 -0.5525
   23HTM   C11216227   2.592   2.665   2.921  0.5683  0.6860 -0.8363
   23HTM   C11316228   2.552   2.539   2.865  0.4399  0.6726 -0.7158
   23HTM   C11416229   2.604   2.431   2.929 -0.0186  0.6672 -0.3401
   23HTM    S1216230   2.709   2.480   3.067 -0.3261  0.6789 -0.1076
   24TAL   C11516231   2.444   2.542   2.761 -0.3362  0.4459  0.4344
   24TAL   C11616232   2.302   2.546   2.819  0.6323  0.3780  0.7446
   24TAL   C11716233   2.181   2.562   2.716 -0.0165  0.5459 -0.4489
   24TAL   C11816234   2.203   2.646   2.592  0.3067  0.9235 -1.2345
   24TAL   C11916235   2.069   2.658   2.523 -0.5064 -0.0997  1.1131
   24TAL   C12016236   2.090   2.730   2.395 -0.9233 -1.5492  0.5312
   25HTM   C12116237   2.592   2.286   2.903 -0.4000 -0.3407  0.5163
   25HTM   C12216238   2.682   2.205   2.842  0.1481 -0.8487  1.9188
   25HTM   C12316239   2.636   2.069   2.825  0.1844 -0.9167  2.3395
   25HTM   C12416240   2.510   2.048   2.873 -0.3358 -0.4606  1.2578
   25HTM    S1316241   2.440   2.198   2.945 -0.9165  0.0943 -0.3888
   26TAL   C12516242   2.713   1.963   2.733  0.2940  0.1308  0.0420
   26TAL   C12616243   2.826   1.966   2.631 -0.4655 -0.2256 -0.1427
   26TAL   C12716244   2.953   1.984   2.707 -0.5557 -0.0302 -0.4329
   26TAL   C12816245   3.096   2.009   2.652 -0.0058  0.9325  0.6112
   26TAL   C12916246   3.221   1.990   2.735  0.2614 -0.1803 -0.2891
   26TAL   C13016247   3.276   1.847   2.731 -0.0258 -0.3668 -1.3041
   27HTM   C13116248   2.435   1.927   2.871 -0.0410  0.4695 -1.0432
   27HTM   C13216249   2.306   1.923   2.915 -0.1914  0.6773 -1.4479
   27HTM   C13316250   2.247   1.792   2.910 -0.1216  0.6182 -0.9174
   27HTM   C13416251   2.330   1.696   2.861  0.0823  0.3653 -0.1085
   27HTM    S1416252   2.491   1.764   2.817  0.2026  0.1807  0.0476
   28TAL   C13516253   2.112   1.743   2.966 -0.5734  0.1380  0.2401
   28TAL   C13616254   2.105   1.671   3.100  0.5879 -0.4979  0.7089
   28TAL   C13716255   2.155   1.776   3.204 -0.0425  0.1210 -0.4327
   28TAL   C13816256   2.104   1.740   3.345 -1.6876  0.1544 -0.9144
   28TAL   C13916257   2.176   1.834   3.453  0.5972  0.3856 -0.1864
   28TAL   C14016258   2.110   1.973   3.482 -0.6495  1.0467  0.5502
   29HTM   C14116259   2.310   1.555   2.817 -0.3713  0.5306  0.1427
   29HTM   C14216260   2.417   1.473   2.798  0.0967  0.9921  0.7107
   29HTM   C14316261   2.381   1.338   2.764  0.8630  0.7051  1.0013
   29HTM   C14416262   2.247   1.317   2.757  0.9794  0.0246  0.6547
   29HTM    S1516263   2.154   1.467   2.794  0.1234 -0.3090 -0.0710
   30TAL   C14516264   2.501   1.241   2.749 -0.2037 -0.3563  0.4592
   30TAL   C14616265   2.582   1.261   2.611  0.1237 -0.6019 -0.2193
   30TAL   C14716266   2.688   1.144   2.604  0.0418 -1.7800  0.3914
   30TAL   C14816267   2.631   1.005   2.580 -0.8984  0.4184 -1.0056
   30TAL   C14916268   2.610   0.961   2.438  0.4209  0.4643  0.3068
   30TAL   C15016269   2.737   0.918   2.367 -0.0661 -0.2342 -0.1215
   31HTM   C15116270   2.161   1.201   2.705 -0.5572 -0.0239 -0.5186
   31HTM   C15216271   2.039   1.203   2.644 -0.9327 -0.7195  0.1785
   31HTM   C15316272   2.001   1.077   2.585 -0.7827 -1.0752  0.8234
   31HTM   C15416273   2.095   0.979   2.601 -0.2930 -0.6510  0.6179
   31HTM    S1616274   2.239   1.038   2.692  0.0192  0.2377 -0.4138
   32TAL   C15516275   1.884   1.074   2.493  1.2024 -0.0512 -1.0326
   32TAL   C15616276   1.872   1.201   2.398 -0.8707  0.0460  0.3444
   32TAL   C15716277   1.970   1.230   2.291 -0.6117 -0.2218  0.2193
   32TAL   C15816278   2.020   1.116   2.211  0.1266  0.5062 -0.2808
   32TAL   C15916279   2.072   1.180   2.089 -0.5884  1.2714 -0.2559
   32TAL   C16016280   2.223   1.163   2.101 -0.2997 -0.8939  0.8874
   33HTM   C16116281   2.108   0.849   2.534  0.3343  0.1854 -0.1475
   33HTM   C16216282   2.207   0.787   2.465  0.3658  0.2903 -0.1981
   33HTM   C16316283   2.168   0.658   2.412  0.4538  0.2787 -0.2344
   33HTM   C16416284   2.040   0.623   2.440  0.4896  0.1650 -0.2112
   33HTM    S1716285   1.957   0.751   2.537  0.4144  0.0629 -0.1414
   34TAL   C16516286   2.261   0.576   2.327 -0.7658 -0.0849  0.4049
   34TAL   C16616287   2.356   0.631   2.218 -0.1258 -0.5910  0.2963
   34TAL   C16716288   2.278   0.719   2.108 -0.1609  1.0181 -0.2680
   34TAL   C16816289   2.140   0.661   2.054 -1.1236 -0.7659  1.5036
   34TAL   C16916290   2.062   0.731   1.942 -0.3494 -0.3345 -0.4057
   34TAL   C17016291   1.919   0.670   1.945  0.2552  0.2489  0.6723
   35HTM   C17116292   1.959   0.507   2.415 -0.5170 -0.1710  0.2994
   35HTM   C17216293   1.827   0.491   2.446 -0.6275 -0.0786 -0.1032
   35HTM   C17316294   1.769   0.371   2.392 -0.5980  0.0542 -0.4354
   35HTM   C17416295   1.856   0.295   2.320 -0.4650  0.0629 -0.2861
   35HTM    S1816296   2.020   0.371   2.314 -0.3660 -0.0970  0.2901
   36TAL   C17516297   1.635   0.342   2.438 -0.0885 -0.7013 -0.3007
   36TAL   C17616298   1.532   0.314   2.320  0.4490 -0.5510 -0.3236
   36TAL   C17716299   1.387   0.320   2.382  0.2620 -0.3200  0.7824
   36TAL   C17816300   1.338   0.204   2.461  0.4834 -0.1082 -0.2336
   36TAL   C17916301   1.194   0.219   2.491 -0.2365  1.0851 -0.1899
   36TAL   C18016302   1.148   0.280   2.625  0.8472  0.0865 -0.4312
   37HTM   C18116303   1.828   0.188   2.234 -1.1039  0.0272 -0.3531
   37HTM   C18216304   1.792   0.179   2.103 -0.9875 -0.1461 -0.3736
   37HTM   C18316305   1.784   0.044   2.054 -0.5703 -0.1981 -0.3063
   37HTM   C18416306   1.813  -0.050   2.148 -0.3685 -0.0645 -0.2344
   37HTM    S1916307   1.854   0.025   2.307 -0.6924  0.1391 -0.2463
   38TAL   C18516308   1.748   0.017   1.909 -0.0730  0.7812  0.4140
   38TAL   C18616309   1.644   0.111   1.846 -0.3071 -0.8270 -0.3945
   38TAL   C18716310   1.500   0.104   1.901  0.4798 -0.2738 -0.4515
   38TAL   C18816311   1.447  -0.038   1.935 -0.7044  0.3620 -1.1260
   38TAL   C18916312   1.322  -0.078   2.012  0.0282 -0.3198 -0.5295
   38TAL   C19016313   1.342  -0.225   2.023  0.4181 -0.7067  0.1546
   39HTM   C19116314   1.798  -0.193   2.121  0.2742 -0.0259 -0.2119
   39HTM   C19216315   1.713  -0.280   2.183  0.0519  0.2229 -0.1628
   39HTM   C19316316   1.718  -0.414   2.130 -0.3141  0.1869 -0.1106
   39HTM   C19416317   1.807  -0.429   2.028 -0.3707 -0.0897 -0.1200
   39HTM    S2016318   1.891  -0.274   1.989  0.0369 -0.3276 -0.1959
   40TAL   C19516319   1.640  -0.520   2.207  0.5908 -0.4117 -0.5773
   40TAL   C19616320   1.492  -0.544   2.160  0.1483  0.3865  0.9048
   40TAL   C19716321   1.492  -0.640   2.040  0.0639  0.1636  0.2842
   40TAL   C19816322   1.358  -0.668   1.969  0.6798  0.5347  0.1430
   40TAL   C19916323   1.359  -0.802   1.893  0.2910 -0.3456  0.1907
   40TAL   C20016324   1.368  -0.761   1.747 -0.7049 -0.1760 -0.9503
   41HTM   C20116325   1.858  -0.548   1.958  0.1390 -0.0453 -0.2914
   41HTM   C20216326   1.918  -0.562   1.836  0.3621 -0.3862 -0.1457
   41HTM   C20316327   1.945  -0.698   1.800  0.1389 -0.5107  0.1475
   41HTM   C20416328   1.906  -0.789   1.895 -0.2544 -0.2643  0.2254
   41HTM    S2116329   1.831  -0.708   2.037 -0.3744  0.1469 -0.0678
   42TAL   C20516330   2.011  -0.728   1.659  0.4333 -0.3541 -0.8615
   42TAL   C20616331   2.131  -0.654   1.605 -0.9233 -0.9268  0.7850
   42TAL   C20716332   2.217  -0.697   1.486  0.4109  0.4780  0.2271
   42TAL   C20816333   2.161  -0.680   1.344 -0.1442 -0.0966  0.1807
   42TAL   C20916334   2.282  -0.710   1.255  0.0591  0.5345  0.0851
   42TAL   C21016335   2.245  -0.711   1.108 -0.3861  0.3044 -0.3772
   43HTM   C21116336   1.897  -0.937   1.879 -0.2309  0.0217  0.0850
   43HTM   C21216337   1.790  -1.018   1.903 -0.3437  0.0331 -0.3621
   43HTM   C21316338   1.823  -1.158   1.899 -0.4044  0.0224 -0.5080
   43HTM   C21416339   1.954  -1.184   1.873 -0.3380  0.0027 -0.1721
   43HTM    S2216340   2.048  -1.031   1.850 -0.1924 -0.0038  0.3586
   44TAL   C21516341   1.727  -1.257   1.935 -0.1149  0.0177 -0.1515
   44TAL   C21616342   1.635  -1.246   2.053  0.5438  0.1519  0.2253
   44TAL   C21716343   1.552  -1.371   2.086  0.0390 -0.8275 -0.8477
   44TAL   C21816344   1.474  -1.346   2.223 -0.2572  0.2752  1.3676
   44TAL   C21916345   1.388  -1.462   2.264 -0.2053  0.4689  0.4844
   44TAL   C22016346   1.327  -1.426   2.387 -0.2639 -0.7433 -0.5297
   45HTM   C22116347   2.036  -1.301   1.879  0.4475  0.1586 -0.0979
   45HTM   C22216348   2.084  -1.366   1.989  0.5486  0.4773  0.0490
   45HTM   C22316349   2.178  -1.470   1.958  0.5603  0.4206  0.2710
   45HTM   C22416350   2.201  -1.485   1.824  0.4680  0.0583  0.2935
   45HTM    S2316351   2.105  -1.367   1.727  0.3585 -0.2417  0.0340
   46TAL   C22516352   2.252  -1.556   2.060 -0.7462  0.1451 -0.4661
   46TAL   C22616353   2.214  -1.549   2.199 -0.4972  0.3362 -0.5343
   46TAL   C22716354   2.091  -1.639   2.227 -0.4235 -0.0174  0.4580
   46TAL   C22816355   1.996  -1.579   2.326 -0.7702  0.0723  0.3630
   46TAL   C22916356   1.871  -1.655   2.367 -0.0803  1.6387  0.3802
   46TAL   C23016357   1.784  -1.617   2.482  0.3786  0.4342  0.1555
   47HTM   C23116358   2.250  -1.600   1.744 -0.7326 -0.1016 -0.2850
   47HTM   C23216359   2.305  -1.597   1.619 -0.9209 -0.2482 -0.3723
   47HTM   C23316360   2.352  -1.725   1.573 -0.3385 -0.1745  0.0003
   47HTM   C23416361   2.333  -1.826   1.663  0.2938  0.0283  0.3716
   47HTM    S2416362   2.254  -1.767   1.814  0.2021  0.1428  0.2789
   48TAL   C23516363   2.433  -1.761   1.447 -0.7664 -0.5757 -0.0409
   48TAL   C23616364   2.579  -1.728   1.463  0.0145 -0.9478  0.0152
   48TAL   C23716365   2.661  -1.826   1.548 -0.3659 -0.2136 -0.4534
   48TAL   C23816366   2.687  -1.961   1.486  0.4261 -0.6347 -0.2206
   48TAL   C23916367   2.760  -1.967   1.352 -0.6521 -0.6198 -0.1972
   48TAL   C24016368   2.695  -1.920   1.224 -1.2497 -0.1734 -0.1407
    1HTM     C116369   4.182   6.590   3.192  0.1625 -0.0014  0.1956
    1HTM     C216370   4.058   6.633   3.155 -0.0043 -0.0663  0.6624
    1HTM     C316371   4.045   6.776   3.151 -0.2311 -0.0715  1.1485
    1HTM     C416372   4.159   6.843   3.186 -0.2371 -0.0108  1.0522
    1HTM     S116373   4.293   6.729   3.226  0.0452  0.0583  0.3347
    2TAL     C516374   3.909   6.846   3.112 -0.4423  0.6542  0.8313
    2TAL     C616375   3.796   6.795   3.200  0.8262 -0.1076  0.6483
    2TAL     C716376   3.666   6.825   3.124  0.1117 -0.2073 -0.9028
    2TAL     C816377   3.542   6.839   3.212 -0.6809  0.5081 -0.1598
    2TAL     C916378   3.444   6.903   3.115 -0.8585  0.1980 -1.2246
    2TAL    C1016379   3.325   6.932   3.205 -0.0593  0.8227 -0.0504
    3HTM    C1116380   4.180   6.984   3.205 -0.0968 -0.0090 -0.7805
    3HTM    C1216381   4.302   7.042   3.225  0.1249 -0.3017 -1.2500
    3HTM    C1316382   4.296   7.185   3.238  0.4799 -0.3120 -0.9361
    3HTM    C1416383   4.170   7.236   3.227  0.5290 -0.0271 -0.2272
    3HTM     S216384   4.048   7.106   3.201  0.1273  0.2788  0.1015
    4TAL    C1516385   4.423   7.271   3.249  0.4969  0.3438  0.4493
    4TAL    C1616386   4.547   7.203   3.285 -0.4446 -0.3407 -0.3681
    4TAL    C1716387   4.650   7.310   3.321 -0.6860  1.3550  0.1404
    4TAL    C1816388   4.783   7.245   3.358 -0.3413 -0.3224 -0.0863
    4TAL    C1916389   4.911   7.324   3.385 -0.3760 -0.8782  0.6118
    4TAL    C2016390   4.931   7.412   3.511 -0.8597  0.8420  0.2766
    5HTM    C2116391   4.117   7.376   3.241  0.0968  0.0100  0.3816
    5HTM    C2216392   4.170   7.497   3.206  0.3859  0.0759  1.0237
    5HTM    C2316393   4.075   7.605   3.207  0.4778  0.1580  0.8821
    5HTM    C2416394   3.949   7.567   3.242  0.2587  0.1549  0.1320
    5HTM     S316395   3.941   7.390   3.278 -0.0832  0.0471 -0.4581
    6TAL    C2516396   4.097   7.750   3.175 -0.5094 -0.3992  0.4671
    6TAL    C2616397   4.246   7.787   3.132  0.4647 -0.8053 -0.3080
    6TAL    C2716398   4.256   7.920   3.060 -0.0301 -0.4257  0.9924
    6TAL    C2816399   4.217   7.901   2.914  0.5499 -0.3841 -0.4289
    6TAL    C2916400   4.236   8.016   2.828  0.5801 -0.3613  0.3695
    6TAL    C3016401   4.358   8.101   2.801  0.5325 -0.0034 -0.1185
    7HTM    C3116402   3.819   7.627   3.249 -0.0451  0.0972  0.7056
    7HTM    C3216403   3.702   7.557   3.239 -0.0644  0.1218  0.7557
    7HTM    C3316404   3.584   7.640   3.242 -0.0305  0.1901  0.3477
    7HTM    C3416405   3.611   7.773   3.255  0.0148  0.2176 -0.0135
    7HTM     S416406   3.788   7.804   3.264  0.0180  0.1587  0.1347
    8TAL    C3516407   3.452   7.569   3.201  0.3773 -0.1877  0.3624
    8TAL    C3616408   3.429   7.552   3.049  0.3544 -1.1392  0.5709
    8TAL    C3716409   3.297   7.592   2.976 -0.1442  0.5790  0.2727
    8TAL    C3816410   3.163   7.571   3.049 -0.1450  0.3698  0.2774
    8TAL    C3916411   3.048   7.557   2.950 -0.0352 -0.3300 -0.1241
    8TAL    C4016412   2.918   7.521   3.021  0.3724 -0.4063 -0.0593
    9HTM    C4116413   3.519   7.889   3.263 -0.0078  0.6288 -0.6575
    9HTM    C4216414   3.560   8.017   3.283 -0.3595  0.7544 -0.7189
    9HTM    C4316415   3.457   8.116   3.262 -0.6304  0.4630 -0.7681
    9HTM    C4416416   3.337   8.062   3.225 -0.4855  0.1152 -0.7444
    9HTM     S516417   3.345   7.882   3.215  0.0084  0.1287 -0.6574
   10TAL    C4516418   3.496   8.256   3.292 -0.0956 -0.3474 -0.9153
   10TAL    C4616419   3.588   8.349   3.218 -0.4684  0.2946 -0.5531
   10TAL    C4716420   3.515   8.390   3.090  0.2929 -1.2399 -0.6402
   10TAL    C4816421   3.604   8.477   2.998  0.1328 -0.3869  0.6585
   10TAL    C4916422   3.642   8.615   3.048 -0.2522  0.2669  0.2125
   10TAL    C5016423   3.751   8.672   2.958 -0.0414  0.6190 -0.3817
   11HTM    C5116424   3.208   8.122   3.184  0.2120  0.2031 -0.9550
   11HTM    C5216425   3.124   8.061   3.096  0.2624  0.2429 -1.0303
   11HTM    C5316426   3.002   8.134   3.071  0.0985  0.0632 -0.7637
   11HTM    C5416427   2.994   8.251   3.141 -0.0768 -0.1134 -0.4851
   11HTM     S616428   3.139   8.278   3.244 -0.0482 -0.0658 -0.5383
   12TAL    C5516429   2.902   8.078   2.964 -0.2128  0.9223 -0.2585
   12TAL    C5616430   2.801   8.152   2.864  0.0403 -0.5678 -0.8604
   12TAL    C5716431   2.734   8.069   2.758 -0.1035 -0.2129  0.4462
   12TAL    C5816432   2.619   8.136   2.675 -0.3672 -0.1173 -0.2924
   12TAL    C5916433   2.484   8.134   2.747 -0.7508 -0.2617  1.4564
   12TAL    C6016434   2.369   8.173   2.657 -1.1322  0.5520  0.8638
   13HTM    C6116435   2.898   8.354   3.136 -0.1041 -0.3022  0.5502
   13HTM    C6216436   2.916   8.487   3.112  0.0855 -0.3493  0.4276
   13HTM    C6316437   2.794   8.562   3.105  0.1878 -0.1979  0.2607
   13HTM    C6416438   2.682   8.486   3.123  0.0761 -0.0351  0.2561
   13HTM     S716439   2.723   8.313   3.150 -0.1688 -0.0608  0.4637
   14TAL    C6516440   2.780   8.709   3.065  0.0901  0.1237  0.6273
   14TAL    C6616441   2.901   8.801   3.093 -0.1578 -0.6123 -0.5090
   14TAL    C6716442   2.895   8.948   3.044 -0.5923 -0.4275  0.6526
   14TAL    C6816443   2.950   8.949   2.905  0.1969 -0.0475  0.2698
   14TAL    C6916444   2.969   9.098   2.842  0.0757  0.9233  0.5722
   14TAL    C7016445   3.026   9.098   2.699  0.2524 -0.2414 -0.1785
   15HTM    C7116446   2.554   8.536   3.128 -0.1765  0.2269 -0.4223
   15HTM    C7216447   2.504   8.636   3.205 -0.4131  0.1616 -0.4886
   15HTM    C7316448   2.360   8.642   3.207 -0.4256 -0.0820 -0.6126
   15HTM    C7416449   2.301   8.546   3.130 -0.1986 -0.2028 -0.6407
   15HTM     S816450   2.423   8.441   3.049  0.0505 -0.0165 -0.5119
   16TAL    C7516451   2.302   8.753   3.294  0.4107 -0.2912 -0.1864
   16TAL    C7616452   2.224   8.874   3.239  0.6799 -0.1089  1.0428
   16TAL    C7716453   2.179   8.990   3.332 -0.8365  0.0586 -1.1728
   16TAL    C7816454   2.068   9.101   3.306 -0.3687 -0.2860 -0.6233
   16TAL    C7916455   2.053   9.223   3.400 -0.1747 -0.5002  0.6179
   16TAL    C8016456   1.972   9.204   3.525  0.7187 -0.1068  0.9478
   17HTM    C8116457   2.160   8.534   3.093  0.1331  0.8234  0.5824
   17HTM    C8216458   2.119   8.513   2.965  0.7551  0.9320  0.3540
   17HTM    C8316459   1.976   8.503   2.952  0.8438  0.3319 -0.2590
   17HTM    C8416460   1.908   8.516   3.070  0.2894 -0.2342 -0.4981
   17HTM     S916461   2.021   8.543   3.208 -0.3930 -0.0522  0.0367
   18TAL    C8516462   1.900   8.484   2.819  0.1547  0.2527 -0.2157
   18TAL    C8616463   1.993   8.456   2.698  0.6994  0.1359 -0.2108
   18TAL    C8716464   1.934   8.442   2.563 -1.1724  0.4153 -0.0704
   18TAL    C8816465   1.901   8.580   2.511  0.3935  0.1589 -0.6109
   18TAL    C8916466   1.809   8.597   2.392  0.5840  0.3484  0.7774
   18TAL    C9016467   1.779   8.746   2.373 -1.0050  0.5720 -0.2975
   19HTM    C9116468   1.766   8.490   3.099 -0.9365  0.3891 -0.1413
   19HTM    C9216469   1.654   8.558   3.061 -1.2518 -0.2363 -0.3444
   19HTM    C9316470   1.532   8.489   3.092 -0.9314 -0.8597 -0.4365
   19HTM    C9416471   1.550   8.368   3.154 -0.3719 -0.7096 -0.3036
   19HTM    S1016472   1.726   8.333   3.178 -0.2049  0.2379 -0.0500
   20TAL    C9516473   1.402   8.561   3.057  0.2893  0.4415  0.2558
   20TAL    C9616474   1.380   8.619   2.919 -0.3685  0.2053  0.7598
   20TAL    C9716475   1.393   8.529   2.789  0.1042 -0.0927 -0.1991
   20TAL    C9816476   1.290   8.424   2.734 -1.2007  0.0797  0.3715
   20TAL    C9916477   1.159   8.490   2.692  0.4021  0.4582 -1.0676
   20TAL   C10016478   1.038   8.402   2.659  0.0110 -0.5873 -0.1040
   21HTM   C10116479   1.452   8.258   3.190 -0.3542  0.0471 -0.1450
   21HTM   C10216480   1.485   8.129   3.219 -0.1189  0.0091 -0.5707
   21HTM   C10316481   1.371   8.043   3.237  0.0356 -0.1924 -0.5504
   21HTM   C10416482   1.252   8.106   3.223 -0.0818 -0.3074 -0.1093
   21HTM    S1116483   1.273   8.281   3.184 -0.3991 -0.1701  0.3179
   22TAL   C10516484   1.399   7.902   3.281  0.0201  0.1928  0.0283
   22TAL   C10616485   1.447   7.810   3.169  0.0825 -0.2473 -0.5726
   22TAL   C10716486   1.466   7.669   3.224 -0.1427 -0.6589  0.5572
   22TAL   C10816487   1.583   7.657   3.309 -0.6024  0.0171 -0.1272
   22TAL   C10916488   1.730   7.692   3.267  0.7443  0.9826 -0.6900
   22TAL   C11016489   1.775   7.642   3.126 -1.4268 -1.4971 -0.2042
   23HTM   C11116490   1.117   8.070   3.253  0.0224  0.1964  0.2856
   23HTM   C11216491   1.005   8.147   3.239  0.1461  0.4590  0.7039
   23HTM   C11316492   0.883   8.077   3.270  0.0270  0.4625  0.2604
   23HTM   C11416493   0.903   7.947   3.308 -0.1875  0.2027 -0.4960
   23HTM    S1216494   1.078   7.903   3.306 -0.2561 -0.0690 -0.7086
   24TAL   C11516495   0.752   8.151   3.256  0.0800  0.7750  0.2940
   24TAL   C11616496   0.713   8.251   3.358 -0.3410 -0.6251  0.2378
   24TAL   C11716497   0.703   8.215   3.504 -1.1709  0.4935 -0.4198
   24TAL   C11816498   0.592   8.114   3.530 -0.4348 -0.6517  0.1429
   24TAL   C11916499   0.583   8.061   3.672 -1.4885 -0.0413  0.0691
   24TAL   C12016500   0.706   7.978   3.715 -0.2898  0.4099  0.3500
   25HTM   C12116501   0.811   7.851   3.357  0.3398  0.0240  0.4922
   25HTM   C12216502   0.682   7.835   3.318  0.2611  0.2762  0.6485
   25HTM   C12316503   0.623   7.711   3.363  0.1040  0.3461  0.6365
   25HTM   C12416504   0.708   7.633   3.435  0.0629  0.1471  0.4711
   25HTM    S1316505   0.870   7.710   3.453  0.2207 -0.1463  0.3164
   26TAL   C12516506   0.478   7.666   3.337  0.7168 -0.2470  0.5785
   26TAL   C12616507   0.363   7.755   3.376 -0.7200 -0.1239 -0.8656
   26TAL   C12716508   0.348   7.792   3.529  0.6833 -0.0413 -0.4490
   26TAL   C12816509   0.219   7.871   3.553 -0.7148 -0.2753  0.3790
   26TAL   C12916510   0.176   7.867   3.699 -0.0225 -0.9979 -0.7220
   26TAL   C13016511   0.099   7.998   3.732 -0.2888 -0.1162  0.1263
   27HTM   C13116512   0.683   7.496   3.479 -0.0465  0.2276 -0.4852
   27HTM   C13216513   0.706   7.458   3.608  0.1201  0.4443 -0.4500
   27HTM   C13316514   0.703   7.316   3.628  0.2467  0.4727 -0.2255
   27HTM   C13416515   0.678   7.245   3.514  0.1768  0.2776 -0.0894
   27HTM    S1416516   0.656   7.353   3.372 -0.0563  0.0410 -0.2356
   28TAL   C13516517   0.739   7.265   3.761 -0.9302  0.2541 -0.4194
   28TAL   C13616518   0.693   7.328   3.889  0.2861 -0.6506  0.2586
   28TAL   C13716519   0.553   7.329   3.931  0.0820 -0.0361 -0.9361
   28TAL   C13816520   0.507   7.205   4.007  1.2437 -0.1387 -0.6905
   28TAL   C13916521   0.580   7.156   4.123 -1.1799 -0.1136  0.2785
   28TAL   C14016522   0.533   7.019   4.158 -0.2898  0.4275 -0.0859
   29HTM   C14116523   0.650   7.106   3.495  0.6518  0.5527 -0.2368
   29HTM   C14216524   0.576   7.054   3.392  1.8003  0.7577 -1.2023
   29HTM   C14316525   0.576   6.911   3.387  1.8956  0.7672 -1.5377
   29HTM   C14416526   0.649   6.852   3.486  0.8199  0.5696 -0.8280
   29HTM    S1516527   0.725   6.975   3.594 -0.4065  0.3541  0.3280
   30TAL   C14516528   0.485   6.834   3.287 -0.6133 -0.8560  0.5911
   30TAL   C14616529   0.334   6.871   3.261 -0.8095 -0.1193  0.2855
   30TAL   C14716530   0.318   6.967   3.145  0.9094  0.4194  0.4677
   30TAL   C14816531   0.305   6.898   3.000  0.7707 -0.6999 -0.5332
   30TAL   C14916532   0.227   6.987   2.902 -0.8798 -0.2651  0.9772
   30TAL   C15016533   0.257   6.935   2.766  0.4889  0.9311  0.0815
   31HTM   C15116534   0.686   6.711   3.519 -0.0075 -0.0629  0.0419
   31HTM   C15216535   0.621   6.594   3.497 -0.1472 -0.0727  0.4778
   31HTM   C15316536   0.690   6.478   3.547 -0.1554  0.0074  0.6730
   31HTM   C15416537   0.808   6.507   3.609 -0.0219  0.0783  0.3860
   31HTM    S1616538   0.842   6.685   3.607  0.1256  0.0491 -0.1574
   32TAL   C15516539   0.642   6.340   3.504 -0.5612 -0.0353 -0.5360
   32TAL   C15616540   0.547   6.270   3.610 -0.4032 -0.2111 -0.2657
   32TAL   C15716541   0.630   6.200   3.712  0.7720  1.6624  0.7466
   32TAL   C15816542   0.543   6.168   3.832  0.5001  0.5936  0.5517
   32TAL   C15916543   0.606   6.092   3.954 -0.0494  0.2622 -0.2002
   32TAL   C16016544   0.665   6.184   4.069 -0.6801  0.6652  0.8773
   33HTM   C16116545   0.912   6.430   3.667 -0.0973  0.2250  0.2189
   33HTM   C16216546   0.970   6.466   3.785  0.2894  0.2578  0.0217
   33HTM   C16316547   1.052   6.363   3.843  0.3129  0.1998 -0.1121
   33HTM   C16416548   1.056   6.248   3.770 -0.0559  0.1226 -0.0170
   33HTM    S1716549   0.956   6.261   3.620 -0.4647  0.1172  0.2511
   34TAL   C16516550   1.124   6.396   3.977  0.2418 -0.8166 -0.2485
   34TAL   C16616551   1.104   6.302   4.093 -0.6762  0.2230  0.0794
   34TAL   C16716552   1.227   6.289   4.195 -0.0089 -1.1044  0.3048
   34TAL   C16816553   1.275   6.419   4.270  0.4829 -0.7219  0.8188
   34TAL   C16916554   1.359   6.412   4.397 -0.6726 -0.2804 -0.0061
   34TAL   C17016555   1.297   6.321   4.505  0.3722 -0.9990  0.0692
   35HTM   C17116556   1.118   6.122   3.795  0.0571 -0.1332 -0.2256
   35HTM   C17216557   1.062   6.000   3.824  0.2017 -0.2527 -0.4505
   35HTM   C17316558   1.156   5.904   3.875  0.2616 -0.1456 -0.3583
   35HTM   C17416559   1.284   5.952   3.885  0.1628  0.0557 -0.0632
   35HTM    S1816560   1.294   6.124   3.831 -0.0150  0.1262  0.1227
   36TAL   C17516561   1.118   5.773   3.944 -1.0430  1.1856  0.0894
   36TAL   C17616562   0.986   5.722   3.986  0.3414 -0.0196 -0.4357
   36TAL   C17716563   0.885   5.717   3.871 -0.5662  0.0129 -0.3832
   36TAL   C17816564   0.742   5.704   3.900 -0.0898  0.2291  0.5454
   36TAL   C17916565   0.676   5.679   3.769 -0.1623 -1.0200 -0.5475
   36TAL   C18016566   0.530   5.726   3.786 -0.6806  0.2050 -0.3818
   37HTM   C18116567   1.411   5.894   3.919 -0.2540 -0.6444  0.3565
   37HTM   C18216568   1.446   5.789   3.998  0.1730 -0.7160  0.0826
   37HTM   C18316569   1.588   5.765   4.005  0.2801 -0.0937  0.1018
   37HTM   C18416570   1.661   5.853   3.931 -0.0653  0.4520  0.3905
   37HTM    S1916571   1.557   5.973   3.846 -0.5564  0.2211  0.6625
   38TAL   C18516572   1.658   5.649   4.083  0.4232 -0.8869  0.8052
   38TAL   C18616573   1.588   5.576   4.190  0.5905  0.6436 -0.6415
   38TAL   C18716574   1.683   5.468   4.230 -0.2336  0.2175  0.0993
   38TAL   C18816575   1.637   5.347   4.306 -0.2181  0.6110  0.3381
   38TAL   C18916576   1.588   5.366   4.451  0.0716 -0.2142  0.2606
   38TAL   C19016577   1.599   5.236   4.518  0.3130  0.4034 -1.1916
   39HTM   C19116578   1.809   5.873   3.889  0.6512  0.2756 -0.9571
   39HTM   C19216579   1.865   5.953   3.795  1.1404  0.1919 -0.7420
   39HTM   C19316580   2.009   5.947   3.792  1.1498  0.0118 -0.1513
   39HTM   C19416581   2.062   5.862   3.884  0.6678 -0.0423  0.0838
   39HTM    S2016582   1.934   5.782   3.982  0.1606  0.1319 -0.4264
   40TAL   C19516583   2.073   6.045   3.696 -0.5961  0.5373  0.0376
   40TAL   C19616584   1.992   6.088   3.563 -1.3608 -0.0195 -0.2462
   40TAL   C19716585   2.081   6.163   3.464  0.0820  0.2060  0.0591
   40TAL   C19816586   2.186   6.088   3.381 -0.4712  0.5857  0.4198
   40TAL   C19916587   2.303   6.166   3.328 -0.1402  0.1525 -0.3633
   40TAL   C20016588   2.379   6.076   3.237 -0.5208  0.3037  0.4183
   41HTM   C20116589   2.194   5.834   3.918 -0.2251 -0.3214 -0.4758
   41HTM   C20216590   2.236   5.777   4.035 -0.5498 -0.8695 -0.6224
   41HTM   C20316591   2.378   5.752   4.040 -0.5529 -0.8353 -0.3226
   41HTM   C20416592   2.444   5.790   3.927 -0.2307 -0.2609  0.0526
   41HTM    S2116593   2.332   5.861   3.805  0.1043  0.2855  0.0561
   42TAL   C20516594   2.434   5.685   4.162  0.0322  1.0266  0.0823
   42TAL   C20616595   2.579   5.721   4.231 -0.6887 -0.8183 -0.3989
   42TAL   C20716596   2.723   5.654   4.194  1.5359 -0.1590  1.0199
   42TAL   C20816597   2.723   5.507   4.197 -0.6871  0.6256 -0.1740
   42TAL   C20916598   2.851   5.430   4.167 -0.3576 -0.7039 -0.1873
   42TAL   C21016599   2.858   5.297   4.229  0.7884  0.0805  0.9666
   43HTM   C21116600   2.583   5.776   3.894  0.2045 -0.1009  0.2172
   43HTM   C21216601   2.677   5.875   3.904  0.2854 -0.2325  0.7983
   43HTM   C21316602   2.809   5.833   3.868  0.3631 -0.2809  1.1272
   43HTM   C21416603   2.817   5.703   3.829  0.3414 -0.1862  0.7969
   43HTM    S2216604   2.657   5.622   3.836  0.2202 -0.0269  0.0389
   44TAL   C21516605   2.924   5.935   3.857 -0.2624 -0.1466  0.9084
   44TAL   C21616606   3.008   5.967   3.982  0.1777 -0.2407  0.2595
   44TAL   C21716607   3.079   5.855   4.044 -0.2771  1.0720 -0.2995
   44TAL   C21816608   3.211   5.919   4.090 -0.5369  0.7152 -0.4098
   44TAL   C21916609   3.331   5.811   4.088  0.4457 -0.2595  0.0861
   44TAL   C22016610   3.460   5.859   4.158 -0.9809  1.0219 -0.1721
   45HTM   C22116611   2.935   5.631   3.773  0.5010  0.2742  0.0283
   45HTM   C22216612   3.003   5.662   3.658  0.6260  0.1802  0.0769
   45HTM   C22316613   3.078   5.552   3.604  0.0899 -0.0739 -0.1597
   45HTM   C22416614   3.067   5.437   3.676 -0.4438 -0.1737 -0.3888
   45HTM    S2316615   2.960   5.459   3.820 -0.3097  0.0473 -0.3228
   46TAL   C22516616   3.170   5.563   3.478  0.4921 -0.5172  0.5144
   46TAL   C22616617   3.193   5.691   3.412 -0.0213  0.4330 -0.4788
   46TAL   C22716618   3.276   5.675   3.288 -0.0530  0.1106 -0.2498
   46TAL   C22816619   3.363   5.798   3.255 -0.4653 -0.4453  0.4027
   46TAL   C22916620   3.289   5.936   3.279  0.0890 -0.4172  0.3024
   46TAL   C23016621   3.381   6.058   3.253  0.4739  0.3645  0.0695
   47HTM   C23116622   3.118   5.302   3.662 -1.1439 -0.2546 -0.1910
   47HTM   C23216623   3.078   5.196   3.739 -0.5385 -0.2720  0.1115
   47HTM   C23316624   3.140   5.071   3.702  0.3571  0.0074  0.6227
   47HTM   C23416625   3.227   5.082   3.598  0.4345  0.2378  0.7098
   47HTM    S2416626   3.238   5.252   3.537 -0.6258  0.1190  0.1488
   48TAL   C23516627   3.082   4.948   3.767 -0.2022  0.6131 -0.0577
   48TAL   C23616628   3.154   4.822   3.711  0.5729 -0.1699 -0.4000
   48TAL   C23716629   3.089   4.691   3.697 -0.6024  0.6138 -0.5198
   48TAL   C23816630   2.979   4.660   3.596 -0.1248 -0.1366  0.6191
   48TAL   C23916631   2.980   4.728   3.460  0.3127 -0.6450  0.9854
   48TAL   C24016632   2.842   4.777   3.395 -0.5155 -0.4588  0.1634
    1HTM     C116633   3.109   2.399   6.115 -0.3642  0.2065  0.0474
    1HTM     C216634   3.115   2.351   6.242 -0.1819  0.2589  0.0591
    1HTM     C316635   3.059   2.439   6.341  0.0404  0.3392  0.1158
    1HTM     C416636   3.010   2.555   6.288  0.0277  0.3479  0.1473
    1HTM     S116637   3.031   2.562   6.109 -0.2684  0.2548  0.1076
    2TAL     C516638   3.054   2.372   6.475 -0.8566 -0.6011 -0.0345
    2TAL     C616639   3.190   2.357   6.550  0.0135  0.1993  0.6826
    2TAL     C716640   3.269   2.481   6.612  0.9099  1.2015 -0.7316
    2TAL     C816641   3.213   2.527   6.755 -0.9886  0.2320 -0.3877
    2TAL     C916642   3.219   2.425   6.864 -0.8908  0.8330 -0.5531
    2TAL    C1016643   3.362   2.424   6.940  0.4897  0.8976 -0.4757
    3HTM    C1116644   2.948   2.669   6.348 -0.4334 -0.1346 -0.0330
    3HTM    C1216645   2.870   2.681   6.460 -0.4183  0.3285 -0.0685
    3HTM    C1316646   2.850   2.817   6.502 -0.1081  0.4853 -0.4159
    3HTM    C1416647   2.913   2.909   6.423  0.1133  0.1417 -0.6452
    3HTM     S216648   3.002   2.830   6.288 -0.0540 -0.4106 -0.4384
    4TAL    C1516649   2.738   2.837   6.607  0.1545 -0.1927  0.1106
    4TAL    C1616650   2.769   2.826   6.758  0.0643 -0.8467 -0.1277
    4TAL    C1716651   2.759   2.678   6.781  0.9138  0.0072 -0.5055
    4TAL    C1816652   2.819   2.624   6.906 -1.0066  0.2664  0.0049
    4TAL    C1916653   2.748   2.671   7.031 -0.8275 -1.3496  0.6758
    4TAL    C2016654   2.795   2.611   7.161  0.1899 -0.6641  0.4969
    5HTM    C2116655   2.937   3.055   6.422 -0.7894  0.2359 -0.2663
    5HTM    C2216656   2.942   3.138   6.530 -1.4508  0.5428 -0.4611
    5HTM    C2316657   2.979   3.273   6.497 -1.1965  0.4371 -0.6112
    5HTM    C2416658   3.003   3.293   6.365 -0.3411  0.0496 -0.5310
    5HTM     S316659   2.979   3.142   6.270  0.2138 -0.2139 -0.2575
    6TAL    C2516660   2.998   3.375   6.615  0.4466  0.0712 -0.6006
    6TAL    C2616661   2.879   3.404   6.705 -0.0410  0.3079 -0.9531
    6TAL    C2716662   2.907   3.519   6.809 -0.0643 -0.7656  0.0677
    6TAL    C2816663   2.884   3.659   6.736 -0.4752  0.3897 -0.5278
    6TAL    C2916664   2.858   3.754   6.849 -0.5675 -0.4657 -0.2484
    6TAL    C3016665   2.844   3.889   6.776 -0.4093 -0.0079  0.5444
    7HTM    C3116666   3.047   3.413   6.298  0.3186  0.2030  0.1834
    7HTM    C3216667   3.130   3.515   6.336  0.4792  0.1993 -0.1541
    7HTM    C3316668   3.143   3.618   6.237 -0.0644  0.2875 -0.1403
    7HTM    C3416669   3.070   3.596   6.124 -0.6394  0.3584  0.2076
    7HTM     S416670   2.979   3.441   6.134 -0.5383  0.3190  0.5476
    8TAL    C3516671   3.235   3.740   6.258 -0.2821 -0.8945 -0.4530
    8TAL    C3616672   3.196   3.845   6.347 -0.1647  0.3613 -0.2785
    8TAL    C3716673   3.203   3.800   6.500 -0.8691  1.5610  1.1386
    8TAL    C3816674   3.170   3.898   6.601 -0.3213  0.3930 -0.1976
    8TAL    C3916675   3.224   4.038   6.627  0.4410 -0.5773 -0.0897
    8TAL    C4016676   3.371   4.063   6.586 -0.7917  0.1308 -0.5822
    9HTM    C4116677   3.057   3.678   6.001  0.3167 -0.2572 -0.7075
    9HTM    C4216678   3.140   3.763   5.935 -0.1398  0.0750 -0.8705
    9HTM    C4316679   3.076   3.838   5.831 -0.7200  0.1026 -0.5010
    9HTM    C4416680   2.943   3.811   5.817 -0.7058 -0.2086 -0.0563
    9HTM     S516681   2.889   3.687   5.936  0.0472 -0.5634 -0.0697
   10TAL    C4516682   3.157   3.916   5.732 -0.3953 -0.5388 -0.3784
   10TAL    C4616683   3.257   3.836   5.661  0.0897  0.6144 -0.3132
   10TAL    C4716684   3.345   3.885   5.551 -0.1772 -0.5006 -0.3941
   10TAL    C4816685   3.305   3.784   5.440 -0.0393  1.3587 -0.5580
   10TAL    C4916686   3.386   3.769   5.310 -0.5958  0.1201 -0.2680
   10TAL    C5016687   3.527   3.733   5.316  0.4559  0.0866 -0.4740
   11HTM    C5116688   2.848   3.888   5.742 -0.0838  0.0942  0.0509
   11HTM    C5216689   2.740   3.839   5.674  0.1512 -0.0460 -0.2291
   11HTM    C5316690   2.660   3.941   5.611  0.1941 -0.1509 -0.4525
   11HTM    C5416691   2.707   4.067   5.630 -0.0082 -0.0906 -0.3428
   11HTM     S616692   2.857   4.068   5.730 -0.2707  0.1046  0.0543
   12TAL    C5516693   2.533   3.887   5.542  0.1817 -1.0003 -0.2753
   12TAL    C5616694   2.404   3.974   5.546  0.0683 -0.1879 -0.4027
   12TAL    C5716695   2.364   3.999   5.401  0.6159  0.7321  0.0540
   12TAL    C5816696   2.224   4.020   5.345  0.5404  0.2050 -0.9711
   12TAL    C5916697   2.120   3.959   5.429  1.1484 -0.2150  0.0477
   12TAL    C6016698   1.989   3.916   5.362 -0.5112  0.0385 -0.1826
   13HTM    C6116699   2.672   4.203   5.596 -0.0686  0.8657  0.3691
   13HTM    C6216700   2.610   4.299   5.670 -0.6839  0.9314 -0.2180
   13HTM    C6316701   2.606   4.428   5.606 -1.1201  0.6304 -0.8188
   13HTM    C6416702   2.666   4.430   5.483 -0.8374  0.3354 -0.6897
   13HTM     S716703   2.732   4.268   5.439  0.0082  0.4155  0.2080
   14TAL    C6516704   2.545   4.543   5.673  0.9378  0.3277  0.4010
   14TAL    C6616705   2.387   4.548   5.656 -0.1656 -0.8651 -0.9986
   14TAL    C6716706   2.299   4.443   5.720  0.3278  0.9962 -1.5712
   14TAL    C6816707   2.154   4.457   5.699  0.5282  0.4557  0.2487
   14TAL    C6916708   2.072   4.322   5.717 -0.5510 -0.0627  0.6007
   14TAL    C7016709   1.985   4.281   5.595  0.8835  1.0072 -0.4004
   15HTM    C7116710   2.690   4.534   5.385  0.2038  0.2932 -0.0769
   15HTM    C7216711   2.811   4.547   5.324  0.0263  0.4257 -0.4076
   15HTM    C7316712   2.824   4.668   5.247 -0.1982  0.6044 -0.1702
   15HTM    C7416713   2.713   4.747   5.249 -0.1919  0.6082  0.3416
   15HTM     S816714   2.582   4.674   5.349  0.1004  0.3845  0.5650
   16TAL    C7516715   2.947   4.694   5.161  0.8779 -0.0780  0.2537
   16TAL    C7616716   3.079   4.620   5.208  0.1413 -0.3864  0.0617
   16TAL    C7716717   3.144   4.690   5.323  0.3219  1.3369 -0.9451
   16TAL    C7816718   3.136   4.829   5.388  0.3167  0.7683 -0.9219
   16TAL    C7916719   3.237   4.898   5.480 -0.0543 -0.2172 -0.0321
   16TAL    C8016720   3.382   4.878   5.448 -0.9972 -0.0969 -0.0355
   17HTM    C8116721   2.696   4.881   5.203  0.4589  0.0547  0.0670
   17HTM    C8216722   2.599   4.938   5.126  0.3804  0.1665  0.2487
   17HTM    C8316723   2.622   5.077   5.097  0.3029  0.2337  0.5049
   17HTM    C8416724   2.737   5.126   5.152  0.3223  0.1730  0.5186
   17HTM     S916725   2.826   5.000   5.245  0.4410  0.0253  0.2065
   18TAL    C8516726   2.538   5.151   4.995  0.2128 -0.1452  0.3124
   18TAL    C8616727   2.534   5.127   4.846 -1.0022  0.9601  0.2304
   18TAL    C8716728   2.462   5.243   4.772  0.2572  0.1536  0.8502
   18TAL    C8816729   2.491   5.235   4.618  0.0556 -1.4044  1.1498
   18TAL    C8916730   2.497   5.121   4.521 -0.6945 -0.2675  0.0425
   18TAL    C9016731   2.480   5.162   4.374  0.1991  1.2767  0.2308
   19HTM    C9116732   2.787   5.261   5.159 -0.4359  0.0403 -0.5442
   19HTM    C9216733   2.782   5.334   5.273 -2.1134  0.3675 -0.7865
   19HTM    C9316734   2.833   5.468   5.259 -2.4679  0.5341 -0.5436
   19HTM    C9416735   2.879   5.496   5.134 -1.0607  0.3334 -0.1159
   19HTM    S1016736   2.859   5.355   5.023  0.8361 -0.0845  0.0141
   20TAL    C9516737   2.841   5.577   5.370 -0.3299 -0.2651 -0.1899
   20TAL    C9616738   2.800   5.550   5.510  1.3509  0.9799  0.1303
   20TAL    C9716739   2.801   5.679   5.586  0.4696 -1.0851 -0.3259
   20TAL    C9816740   2.725   5.663   5.720  0.4988 -0.3764  0.8381
   20TAL    C9916741   2.704   5.790   5.790 -0.2827 -0.3109  0.2903
   20TAL   C10016742   2.655   5.790   5.933 -0.2155  0.1241  0.3865
   21HTM   C10116743   2.938   5.614   5.087 -0.5007  0.4104  0.8952
   21HTM   C10216744   2.876   5.710   5.013 -0.4251  0.7842  1.3092
   21HTM   C10316745   2.955   5.830   4.996 -0.0551  0.5380  1.2760
   21HTM   C10416746   3.077   5.824   5.057  0.1513 -0.0234  0.8365
   21HTM    S1116747   3.101   5.667   5.142 -0.1074 -0.2870  0.4275
   22TAL   C10516748   2.907   5.936   4.899 -0.4851 -0.2491 -0.9523
   22TAL   C10616749   2.794   6.020   4.946  0.3058 -0.1171 -0.9844
   22TAL   C10716750   2.793   6.159   4.882  0.3534  0.5368  1.1196
   22TAL   C10816751   2.934   6.219   4.829  0.3632 -0.1775  0.0116
   22TAL   C10916752   2.906   6.368   4.798 -0.1023 -0.5234  0.1536
   22TAL   C11016753   2.796   6.415   4.701  0.4360 -1.1679 -0.3478
   23HTM   C11116754   3.198   5.900   5.059  0.0420  0.2859 -0.6450
   23HTM   C11216755   3.303   5.893   5.145  0.0563  0.3011 -0.6613
   23HTM   C11316756   3.409   5.987   5.115 -0.0080  0.3890 -0.6150
   23HTM   C11416757   3.384   6.065   5.006 -0.0714  0.4406 -0.5634
   23HTM    S1216758   3.224   6.026   4.932 -0.0546  0.3820 -0.5693
   24TAL   C11516759   3.527   6.005   5.219 -0.0347 -0.2953  0.8993
   24TAL   C11616760   3.639   5.899   5.215  1.0269  0.0625  1.2822
   24TAL   C11716761   3.749   5.915   5.320  0.5991 -0.0026  0.1441
   24TAL   C11816762   3.865   5.807   5.340 -0.0220 -0.1001 -0.4804
   24TAL   C11916763   3.959   5.799   5.228 -0.4754  0.2104 -0.1577
   24TAL   C12016764   4.040   5.929   5.203 -0.1450  0.8449 -0.3568
   25HTM   C12116765   3.470   6.168   4.943  0.0453  0.4085 -0.0676
   25HTM   C12216766   3.484   6.210   4.814 -0.3648  0.7391 -0.0089
   25HTM   C12316767   3.561   6.331   4.801 -0.3784  0.7547  0.0532
   25HTM   C12416768   3.606   6.381   4.919  0.0214  0.4360  0.0419
   25HTM    S1316769   3.553   6.279   5.058  0.4493  0.0888 -0.0488
   26TAL   C12516770   3.603   6.389   4.674 -0.2837 -0.7016  0.6421
   26TAL   C12616771   3.473   6.400   4.582 -0.5284  0.0408 -1.0507
   26TAL   C12716772   3.496   6.449   4.444  1.2176 -0.5145  0.7910
   26TAL   C12816773   3.388   6.398   4.333 -0.4111  0.5512  0.1779
   26TAL   C12916774   3.373   6.248   4.325  0.0799 -0.3014  0.0230
   26TAL   C13016775   3.499   6.167   4.320 -0.2269 -0.0230 -0.8147
   27HTM   C13116776   3.648   6.514   4.947  0.0386 -0.4384  0.4357
   27HTM   C13216777   3.583   6.613   5.015  0.2450 -0.4276  0.6200
   27HTM   C13316778   3.660   6.735   5.027  0.3176 -0.4547  0.4436
   27HTM   C13416779   3.783   6.728   4.969  0.1667 -0.4860  0.1248
   27HTM    S1416780   3.812   6.567   4.893 -0.0808 -0.4835  0.0220
   28TAL   C13516781   3.601   6.855   5.105  0.8693  0.3686 -0.1091
   28TAL   C13616782   3.527   6.948   5.017 -0.4271  0.1534  0.3971
   28TAL   C13716783   3.386   6.961   5.064  0.5870  0.2907  0.0477
   28TAL   C13816784   3.263   7.027   4.987 -0.4900  1.5268 -0.3787
   28TAL   C13916785   3.207   6.972   4.855 -0.3387  1.0797 -0.6984
   28TAL   C14016786   3.051   6.968   4.846 -0.7472 -0.5382 -0.1118
   29HTM   C14116787   3.891   6.815   4.989 -0.4407 -0.3451  0.3159
   29HTM   C14216788   3.976   6.846   4.887 -0.5973 -1.1014 -0.0539
   29HTM   C14316789   4.105   6.894   4.931 -0.2630 -1.4570 -0.6143
   29HTM   C14416790   4.118   6.901   5.066  0.1486 -0.9720 -0.6719
   29HTM    S1516791   3.968   6.846   5.150  0.1457 -0.0209 -0.0176
   30TAL   C14516792   4.221   6.943   4.847  0.2972  0.8533  1.0619
   30TAL   C14616793   4.286   6.826   4.773  0.1951 -0.5739 -0.3883
   30TAL   C14716794   4.417   6.870   4.704  0.0181  0.2384 -0.8179
   30TAL   C14816795   4.468   6.751   4.626  1.1214  0.7861  0.5558
   30TAL   C14916796   4.525   6.758   4.492 -0.5522  1.0931  0.1772
   30TAL   C15016797   4.442   6.778   4.365 -0.1935  0.8898  0.6498
   31HTM   C15116798   4.238   6.938   5.142  0.6441  0.1798 -0.5859
   31HTM   C15216799   4.257   7.052   5.214  0.2991  0.1915 -0.5114
   31HTM   C15316800   4.379   7.053   5.291 -0.1224  0.1522  0.1734
   31HTM   C15416801   4.453   6.939   5.277 -0.0991  0.1104  0.6212
   31HTM    S1616802   4.374   6.822   5.165  0.4618  0.1178  0.2093
   32TAL   C15516803   4.405   7.165   5.381 -0.9389 -0.0776 -0.1921
   32TAL   C15616804   4.495   7.276   5.308  0.2476 -0.4477 -1.7524
   32TAL   C15716805   4.541   7.391   5.402 -0.0143 -0.5356  1.3977
   32TAL   C15816806   4.636   7.352   5.501  0.7468  0.3143 -0.2269
   32TAL   C15916807   4.624   7.433   5.628 -0.9474  0.2850  0.3373
   32TAL   C16016808   4.746   7.423   5.715  0.0294  0.2840  0.7635
   33HTM   C16116809   4.565   6.901   5.362  0.1624  0.0579 -0.0464
   33HTM   C16216810   4.570   6.810   5.464  0.3320 -0.2218 -0.3018
   33HTM   C16316811   4.689   6.818   5.544  0.3307 -0.2446 -0.2975
   33HTM   C16416812   4.776   6.915   5.503  0.1600  0.0178 -0.0387
   33HTM    S1716813   4.713   7.005   5.360 -0.0135  0.3164  0.2214
   34TAL   C16516814   4.724   6.725   5.654  0.2261 -0.9743 -1.2841
   34TAL   C16616815   4.653   6.596   5.675  0.5859 -0.3857 -0.9395
   34TAL   C16716816   4.527   6.583   5.767  0.2987  0.0089 -0.6828
   34TAL   C16816817   4.505   6.444   5.821  0.4987  0.5635 -0.3078
   34TAL   C16916818   4.430   6.348   5.718  0.1051 -0.6885 -0.6729
   34TAL   C17016819   4.465   6.201   5.748 -0.0722  0.2627 -0.2350
   35HTM   C17116820   4.905   6.957   5.561  0.6368  0.2065  0.7788
   35HTM   C17216821   5.015   6.892   5.609  1.0859  0.4963  0.1667
   35HTM   C17316822   5.128   6.979   5.631  1.0872  0.7466 -0.7473
   35HTM   C17416823   5.104   7.109   5.599  0.6390  0.6478 -0.8321
   35HTM    S1816824   4.935   7.133   5.539  0.1772  0.2275  0.2442
   36TAL   C17516825   5.240   6.917   5.709  0.7249  0.1166 -0.7352
   36TAL   C17616826   5.232   6.858   5.854 -0.1388  0.4040  0.7972
   36TAL   C17716827   5.357   6.797   5.916 -0.5398  0.0986 -0.1015
   36TAL   C17816828   5.465   6.898   5.948  0.6123  0.6611  0.0780
   36TAL   C17916829   5.560   6.839   6.053 -0.0231  1.5939  0.5795
   36TAL   C18016830   5.650   6.714   6.021  1.5422  0.0841  0.0941
   37HTM   C18116831   5.192   7.219   5.617  0.0049 -0.1236  0.9880
   37HTM   C18216832   5.317   7.230   5.672 -0.1580  0.0328  1.3319
   37HTM   C18316833   5.382   7.355   5.642 -0.0033 -0.1183  1.0195
   37HTM   C18416834   5.307   7.439   5.565  0.2773 -0.3900  0.4373
   37HTM    S1916835   5.147   7.366   5.524  0.3689 -0.4768  0.2373
   38TAL   C18516836   5.523   7.392   5.696 -0.5872  0.7369 -0.8531
   38TAL   C18616837   5.524   7.388   5.846 -0.1850  0.2169 -0.7961
   38TAL   C18716838   5.542   7.516   5.921  0.4609  0.3082  0.5961
   38TAL   C18816839   5.674   7.586   5.888  0.5689 -0.6581 -0.3462
   38TAL   C18916840   5.807   7.524   5.927 -0.6267 -0.6251 -0.1341
   38TAL   C19016841   5.922   7.623   5.962  1.1014 -0.5949  0.0992
   39HTM   C19116842   5.332   7.577   5.521  0.4010  0.0841  0.1483
   39HTM   C19216843   5.246   7.680   5.498  0.4030  0.1467  0.4172
   39HTM   C19316844   5.309   7.797   5.442  0.3200  0.1128  0.2521
   39HTM   C19416845   5.443   7.783   5.422  0.2546  0.0243 -0.1427
   39HTM    S2016846   5.501   7.620   5.473  0.2932 -0.0234 -0.3382
   40TAL   C19516847   5.233   7.929   5.423  0.8550  0.7726 -0.1419
   40TAL   C19616848   5.082   7.920   5.437 -0.7855  0.0701  1.3451
   40TAL   C19716849   5.018   8.046   5.460  0.3222  0.1563  0.3292
   40TAL   C19816850   4.905   7.999   5.541  1.0507  0.1485  0.2099
   40TAL   C19916851   4.764   8.066   5.547 -0.4124 -0.1423  0.4364
   40TAL   C20016852   4.767   8.204   5.611  0.3536  0.7978  0.1541
   41HTM   C20116853   5.534   7.882   5.371  0.0910 -0.0873  0.0044
   41HTM   C20216854   5.557   7.896   5.237  0.0931 -0.1810 -0.0056
   41HTM   C20316855   5.667   7.984   5.206 -0.0830  0.0184 -0.0699
   41HTM   C20416856   5.728   8.036   5.315 -0.2191  0.2641 -0.1090
   41HTM    S2116857   5.651   7.978   5.468 -0.1349  0.2626 -0.0672
   42TAL   C20516858   5.695   8.016   5.055  0.1276  0.6516  0.1070
   42TAL   C20616859   5.761   7.911   4.964  0.3020 -0.1894 -0.5680
   42TAL   C20716860   5.888   7.846   5.011  0.3575  0.2315  0.1671
   42TAL   C20816861   6.000   7.833   4.908 -0.0366 -0.8464 -0.2949
   42TAL   C20916862   6.059   7.967   4.846 -0.3098  0.1063 -0.0588
   42TAL   C21016863   5.980   8.049   4.749  0.3470 -0.4133  1.0172
   43HTM   C21116864   5.841   8.122   5.325 -0.3441  0.0587  0.1039
   43HTM   C21216865   5.969   8.079   5.340 -0.3697 -0.2620 -0.4953
   43HTM   C21316866   6.066   8.186   5.337 -0.1521 -0.4632 -0.6092
   43HTM   C21416867   6.012   8.309   5.318  0.0392 -0.2959 -0.0966
   43HTM    S2216868   5.832   8.301   5.303 -0.0412  0.1321  0.5747
   44TAL   C21516869   6.211   8.162   5.392  1.2396  0.4729 -0.2792
   44TAL   C21616870   6.289   8.039   5.353 -0.3200 -0.4608 -0.9794
   44TAL   C21716871   6.431   8.057   5.418 -0.4031 -0.3689 -0.2227
   44TAL   C21816872   6.527   8.146   5.347 -0.1420 -0.5321  0.2195
   44TAL   C21916873   6.628   8.226   5.428  0.7199  1.7915 -0.2417
   44TAL   C22016874   6.722   8.293   5.340 -0.9666 -0.2146 -0.0138
   45HTM   C22116875   6.073   8.442   5.311 -0.0381 -0.2646 -0.6591
   45HTM   C22216876   6.013   8.549   5.251  0.3383 -0.2103 -0.9507
   45HTM   C22316877   6.092   8.670   5.256  0.4332 -0.2828 -0.5860
   45HTM   C22416878   6.212   8.655   5.319  0.1287 -0.3925 -0.0163
   45HTM    S2316879   6.235   8.486   5.377 -0.3043 -0.4127  0.1046
   46TAL   C22516880   6.040   8.803   5.200  0.2322  0.3884  0.0816
   46TAL   C22616881   5.901   8.801   5.130  0.3551  0.4280 -0.9022
   46TAL   C22716882   5.850   8.914   5.051  0.1412 -0.5783 -0.0488
   46TAL   C22816883   5.728   8.869   4.986  0.7499  0.0994 -0.7705
   46TAL   C22916884   5.673   8.973   4.895  0.5656 -0.3328  0.1604
   46TAL   C23016885   5.549   8.936   4.818  0.0704 -0.1153 -0.5333
   47HTM   C23116886   6.324   8.748   5.318 -0.0331 -0.6915  0.2113
   47HTM   C23216887   6.422   8.775   5.228 -0.3531 -0.3672 -0.0445
   47HTM   C23316888   6.522   8.867   5.276 -0.6858  0.2058 -0.4146
   47HTM   C23416889   6.500   8.909   5.404 -0.6195  0.3188 -0.4407
   47HTM    S2416890   6.350   8.837   5.473 -0.1281 -0.2952  0.0034
   48TAL   C23516891   6.655   8.898   5.206  0.4994 -0.4131  0.1362
   48TAL   C23616892   6.635   8.958   5.063 -0.3091  0.6981 -0.4390
   48TAL   C23716893   6.773   8.985   4.997 -0.5182  0.1111 -0.6337
   48TAL   C23816894   6.875   9.083   5.055 -0.0543  0.6058 -0.0535
   48TAL   C23916895   6.994   9.066   4.962  0.2903  0.5196 -0.2808
   48TAL   C24016896   7.113   9.138   5.011 -0.2959  0.2446 -0.6622
    1HTM     C116897   3.397   2.202   5.534  0.0735 -0.2538 -0.3240
    1HTM     C216898   3.453   2.250   5.419  0.5552 -0.6673 -0.2704
    1HTM     C316899   3.413   2.179   5.300  0.7904 -0.8857 -0.2191
    1HTM     C416900   3.327   2.076   5.325  0.4878 -0.6385 -0.2337
    1HTM     S116901   3.289   2.061   5.500 -0.1221 -0.1068 -0.3138
    2TAL     C516902   3.470   2.207   5.165 -0.2018 -0.7097  2.0550
    2TAL     C616903   3.618   2.225   5.141 -0.5146 -0.1330  0.4892
    2TAL     C716904   3.708   2.104   5.128 -0.3348 -0.6495  0.2803
    2TAL     C816905   3.861   2.109   5.113  0.9771 -0.4402  0.2025
    2TAL     C916906   3.933   2.222   5.041  0.8769  0.2089  0.1456
    2TAL    C1016907   3.909   2.261   4.895  0.7037  0.0783 -0.2999
    3HTM    C1116908   3.275   1.967   5.254  0.1117  0.1311  0.4539
    3HTM    C1216909   3.214   1.975   5.132 -0.1301  0.6656  0.6039
    3HTM    C1316910   3.156   1.851   5.089 -0.1899  0.8466  0.1601
    3HTM    C1416911   3.173   1.748   5.177  0.0063  0.4502 -0.3285
    3HTM     S216912   3.264   1.801   5.323  0.2841 -0.1875 -0.2652
    4TAL    C1516913   3.086   1.823   4.957 -0.1492 -0.7654  0.5618
    4TAL    C1616914   2.937   1.874   4.945  0.1017  0.4251 -0.4931
    4TAL    C1716915   2.835   1.809   5.030  0.5911  0.6238  0.4293
    4TAL    C1816916   2.712   1.899   5.059  0.8974 -0.1475 -0.3981
    4TAL    C1916917   2.730   2.044   5.108  0.7102 -0.1493  0.1818
    4TAL    C2016918   2.648   2.091   5.231  0.4909 -0.4142  0.9602
    5HTM    C2116919   3.136   1.615   5.174  0.5118 -0.0335  0.3279
    5HTM    C2216920   3.071   1.542   5.270  0.3783  0.1057  0.3428
    5HTM    C2316921   3.072   1.401   5.246 -0.2500  0.1307  0.1514
    5HTM    C2416922   3.137   1.364   5.132 -0.5955  0.0105 -0.0096
    5HTM     S316923   3.203   1.508   5.045 -0.1506 -0.1448  0.0687
    6TAL    C2516924   3.010   1.308   5.348 -0.3273  1.6004  0.6108
    6TAL    C2616925   2.918   1.354   5.466  0.3304  0.6330  0.8723
    6TAL    C2716926   2.778   1.291   5.463  0.4681 -0.9195 -0.0846
    6TAL    C2816927   2.693   1.369   5.571 -0.2213  0.0116 -0.7408
    6TAL    C2916928   2.578   1.290   5.636 -0.5730  1.0517 -0.0251
    6TAL    C3016929   2.628   1.204   5.750  0.4864 -0.1746 -0.5965
    7HTM    C3116930   3.156   1.231   5.075  0.6433  0.3251 -0.1456
    7HTM    C3216931   3.117   1.192   4.951  0.6981  0.2802 -0.1489
    7HTM    C3316932   3.134   1.051   4.926  0.3444  0.2023  0.0452
    7HTM    C3416933   3.185   0.982   5.032  0.0197  0.1879  0.1963
    7HTM     S416934   3.217   1.091   5.172  0.1365  0.2721  0.1047
    8TAL    C3516935   3.071   0.984   4.801 -0.5310 -0.7122 -0.6959
    8TAL    C3616936   2.918   0.980   4.768 -0.2707  0.0407  0.1754
    8TAL    C3716937   2.851   0.885   4.872 -0.2194 -0.8292  0.6099
    8TAL    C3816938   2.704   0.872   4.874  0.7386 -0.3744 -0.9110
    8TAL    C3916939   2.670   0.766   4.984 -0.1580 -0.4338 -0.3260
    8TAL    C4016940   2.546   0.686   4.949 -1.0470 -0.4672  0.5702
    9HTM    C4116941   3.216   0.840   5.055 -0.0359 -0.6018  0.6375
    9HTM    C4216942   3.172   0.766   5.160  0.5854 -0.8561  0.7288
    9HTM    C4316943   3.222   0.631   5.161  0.8165 -0.7773  0.2621
    9HTM    C4416944   3.304   0.602   5.056  0.3714 -0.4628 -0.1849
    9HTM     S516945   3.326   0.745   4.948 -0.3800 -0.2401 -0.0502
   10TAL    C4516946   3.178   0.529   5.260  0.9791  0.2446 -0.7498
   10TAL    C4616947   3.231   0.537   5.408  0.2731 -0.5774 -0.1296
   10TAL    C4716948   3.191   0.452   5.529 -0.4351 -0.3703  0.4084
   10TAL    C4816949   3.246   0.480   5.671 -0.8278 -1.3280  0.7320
   10TAL    C4916950   3.240   0.357   5.758  0.0803  0.8189 -0.2974
   10TAL    C5016951   3.312   0.362   5.890 -0.3958  0.1971  1.0234
   11HTM    C5116952   3.375   0.485   5.020  0.1051 -0.2540  0.2942
   11HTM    C5216953   3.331   0.378   4.949 -0.2116 -0.4234  0.7434
   11HTM    C5316954   3.431   0.276   4.928 -0.3363 -0.5263  0.6386
   11HTM    C5416955   3.552   0.307   4.983 -0.1148 -0.4354  0.1093
   11HTM     S616956   3.549   0.467   5.066  0.2716 -0.2110 -0.3007
   12TAL    C5516957   3.373   0.145   4.878 -0.5687  0.2764  0.1450
   12TAL    C5616958   3.378   0.135   4.720  0.6486 -0.4232  0.2123
   12TAL    C5716959   3.332   0.011   4.645 -0.6290  0.1043  0.7855
   12TAL    C5816960   3.186  -0.024   4.670  0.1628 -0.5423 -0.5303
   12TAL    C5916961   3.154  -0.153   4.592  0.0849  0.3268 -1.1877
   12TAL    C6016962   3.003  -0.164   4.571  0.8220  0.8988  0.2105
   13HTM    C6116963   3.676   0.233   4.983  0.0224 -0.5577  1.1481
   13HTM    C6216964   3.790   0.290   5.033  0.2376 -1.2735  1.5061
   13HTM    C6316965   3.910   0.220   4.996  0.0135 -1.2572  0.7107
   13HTM    C6416966   3.889   0.110   4.918 -0.3725 -0.5290 -0.2539
   13HTM     S716967   3.713   0.086   4.886 -0.4839  0.1983 -0.2322
   14TAL    C6516968   4.046   0.280   5.014  0.3245  0.4020  0.2564
   14TAL    C6616969   4.066   0.379   5.120 -0.3949  1.7928 -1.1024
   14TAL    C6716970   4.052   0.526   5.099  0.9093  0.1362 -0.7167
   14TAL    C6816971   4.073   0.610   5.226 -0.0556  0.2766 -1.2465
   14TAL    C6916972   4.018   0.573   5.365  0.4428 -0.3752  0.8678
   14TAL    C7016973   3.916   0.687   5.408 -0.7385 -0.6012  0.5801
   15HTM    C7116974   3.982   0.008   4.862 -0.1903 -0.0330 -0.2992
   15HTM    C7216975   3.979  -0.060   4.744  0.1932  0.3960 -0.5636
   15HTM    C7316976   4.084  -0.158   4.731  0.3641  0.5920 -0.6729
   15HTM    C7416977   4.167  -0.164   4.839  0.1107  0.3122 -0.4921
   15HTM     S816978   4.118  -0.047   4.967 -0.3668 -0.2246 -0.1671
   16TAL    C7516979   4.082  -0.250   4.613 -1.0036 -0.3089  0.4622
   16TAL    C7616980   3.957  -0.310   4.556  0.6991 -1.5428 -0.0922
   16TAL    C7716981   3.969  -0.431   4.478 -0.3840 -1.2639  0.0953
   16TAL    C7816982   4.042  -0.540   4.546 -0.8400  0.3394  0.3864
   16TAL    C7916983   3.940  -0.628   4.622 -0.4929  1.3081  0.4778
   16TAL    C8016984   4.032  -0.717   4.718 -0.1257 -1.4310  0.3590
   17HTM    C8116985   4.280  -0.238   4.882 -0.6298  0.2660  0.3453
   17HTM    C8216986   4.404  -0.192   4.918 -0.9948  0.9220  0.7995
   17HTM    C8316987   4.501  -0.296   4.939 -0.5027  1.4329  1.1054
   17HTM    C8416988   4.451  -0.422   4.920  0.2373  1.1665  0.8845
   17HTM     S916989   4.277  -0.418   4.873  0.3712  0.2422  0.2681
   18TAL    C8516990   4.650  -0.292   4.960  0.4907 -1.1920  0.0802
   18TAL    C8616991   4.712  -0.166   4.890 -0.5209  0.1488 -0.3035
   18TAL    C8716992   4.753  -0.207   4.749  0.0069  0.4870  0.3660
   18TAL    C8816993   4.824  -0.100   4.669  0.4214 -0.4215  0.7648
   18TAL    C8916994   4.878  -0.158   4.539 -0.0217  0.3830  0.2235
   18TAL    C9016995   4.964  -0.067   4.451  0.9173 -0.1412 -0.1626
   19HTM    C9116996   4.510  -0.554   4.931  0.4297  0.2011 -0.1326
   19HTM    C9216997   4.538  -0.626   5.043 -0.2160 -0.0567 -0.1274
   19HTM    C9316998   4.582  -0.761   5.017 -0.6301 -0.1879 -0.1551
   19HTM    C9416999   4.587  -0.792   4.884 -0.3004 -0.0298 -0.1816
   19HTM    S1017000   4.537  -0.652   4.781  0.5656  0.2993 -0.1733
   20TAL    C9517001   4.619  -0.842   5.146  0.3042 -0.2038  0.8495
   20TAL    C9617002   4.505  -0.865   5.240 -0.2993 -0.9077 -0.3661
   20TAL    C9717003   4.536  -0.967   5.346 -0.0779  0.1017  0.8716
   20TAL    C9817004   4.439  -0.968   5.461  0.8074 -0.6438  0.0423
   20TAL    C9917005   4.455  -1.056   5.588 -0.1815 -0.5341 -0.6844
   20TAL   C10017006   4.608  -1.089   5.610 -0.6765 -0.6254  0.0629
   21HTM   C10117007   4.651  -0.912   4.819  0.4657 -0.2877  0.0192
   21HTM   C10217008   4.744  -0.916   4.720  0.7510 -0.3207  0.2860
   21HTM   C10317009   4.788  -1.049   4.687  0.6506 -0.3524  0.2781
   21HTM   C10417010   4.729  -1.146   4.761  0.2889 -0.3433  0.0055
   21HTM    S1117011   4.611  -1.078   4.879  0.0451 -0.2936 -0.2645
   22TAL   C10517012   4.900  -1.069   4.575 -0.1053  0.5419 -0.3525
   22TAL   C10617013   4.943  -0.949   4.486 -0.0279 -0.1803  0.8718
   22TAL   C10717014   5.096  -0.934   4.515  0.3136  0.6185 -0.1116
   22TAL   C10817015   5.179  -1.049   4.457 -0.2369 -1.2133  0.8083
   22TAL   C10917016   5.325  -1.056   4.432 -1.2075  0.7198  0.0480
   22TAL   C11017017   5.391  -1.201   4.430 -1.1019  0.1587  0.0997
   23HTM   C11117018   4.719  -1.289   4.760  0.4570  0.1204 -0.8431
   23HTM   C11217019   4.606  -1.365   4.752  0.2371  0.4432 -0.8758
   23HTM   C11317020   4.633  -1.507   4.743 -0.1765  0.3300 -0.3998
   23HTM   C11417021   4.766  -1.538   4.744 -0.2720 -0.0792 -0.0041
   23HTM    S1217022   4.868  -1.390   4.757  0.1563 -0.3556 -0.2037
   24TAL   C11517023   4.525  -1.604   4.727  0.3151 -0.2933 -0.3628
   24TAL   C11617024   4.423  -1.628   4.838 -0.1109  0.0241  1.1939
   24TAL   C11717025   4.300  -1.725   4.833 -0.4771  0.9378  1.2242
   24TAL   C11817026   4.289  -1.829   4.723 -0.0716 -0.1209  0.6903
   24TAL   C11917027   4.387  -1.944   4.723  0.2788  0.7741  0.5302
   24TAL   C12017028   4.322  -2.042   4.621 -0.1138  0.1574  0.2880
   25HTM   C12117029   4.815  -1.675   4.768  0.4205 -0.1009  0.2761
   25HTM   C12217030   4.854  -1.724   4.889  0.5372 -0.1473  0.2201
   25HTM   C12317031   4.872  -1.867   4.890  0.5618 -0.1451  0.1423
   25HTM   C12417032   4.847  -1.927   4.770  0.4642 -0.0973  0.1388
   25HTM    S1317033   4.798  -1.806   4.645  0.3323 -0.0509  0.2343
   26TAL   C12517034   4.926  -1.937   5.018  0.1256 -0.0529  0.8096
   26TAL   C12617035   4.855  -1.929   5.151 -0.2105  0.3974  0.5738
   26TAL   C12717036   4.740  -2.053   5.159 -0.3353  0.0680 -0.6379
   26TAL   C12817037   4.788  -2.203   5.138 -1.1072  0.1393  0.1109
   26TAL   C12917038   4.895  -2.243   5.243 -1.0853  0.6038 -0.2124
   26TAL   C13017039   4.945  -2.379   5.222 -0.6711  0.6276  0.5060
   27HTM   C13117040   4.855  -2.060   4.725 -0.2727 -0.2017  0.6823
   27HTM   C13217041   4.765  -2.156   4.693 -0.3457 -0.4127  1.4631
   27HTM   C13317042   4.825  -2.281   4.654 -0.4057 -0.4503  1.4915
   27HTM   C13417043   4.961  -2.280   4.658 -0.3783 -0.2680  0.7324
   27HTM    S1417044   5.024  -2.120   4.710 -0.2740 -0.0326 -0.0835
   28TAL   C13517045   4.749  -2.411   4.629 -0.2582  0.5982 -0.6979
   28TAL   C13617046   4.723  -2.459   4.485 -0.6408 -0.3529  0.7632
   28TAL   C13717047   4.818  -2.556   4.418  0.6939  0.1730  0.5814
   28TAL   C13817048   4.813  -2.701   4.461 -0.8311  0.0874 -0.1191
   28TAL   C13917049   4.913  -2.801   4.402 -1.9081 -0.9190  0.0640
   28TAL   C14017050   4.875  -2.943   4.409 -0.4646 -0.4648 -0.0008
   29HTM   C14117051   5.059  -2.381   4.617 -0.4492 -0.3369 -0.6181
   29HTM   C14217052   5.143  -2.380   4.510 -0.7321 -0.9080 -0.8570
   29HTM   C14317053   5.239  -2.487   4.510 -0.6356 -0.8243 -0.4563
   29HTM   C14417054   5.228  -2.570   4.618 -0.2795 -0.1896  0.0880
   29HTM    S1517055   5.095  -2.519   4.728 -0.0362  0.3560  0.1372
   30TAL   C14517056   5.348  -2.524   4.402 -0.2502  0.6951 -0.2664
   30TAL   C14617057   5.358  -2.454   4.273  1.8071 -1.4746  0.4078
   30TAL   C14717058   5.462  -2.507   4.179 -0.8269 -0.6247 -0.0140
   30TAL   C14817059   5.604  -2.528   4.212 -0.8726  0.4786 -0.0772
   30TAL   C14917060   5.699  -2.588   4.106  0.3434 -0.3084 -0.1749
   30TAL   C15017061   5.840  -2.619   4.152 -0.2283  0.7073 -0.2323
   31HTM   C15117062   5.306  -2.692   4.650  0.0086 -0.0144  0.1563
   31HTM   C15217063   5.440  -2.707   4.664 -0.0337 -0.4438  0.1261
   31HTM   C15317064   5.478  -2.824   4.739 -0.3797 -0.7149 -0.1144
   31HTM   C15417065   5.372  -2.898   4.782 -0.6011 -0.4920 -0.2676
   31HTM    S1617066   5.215  -2.826   4.732 -0.3880  0.0817 -0.1191
   32TAL   C15517067   5.624  -2.835   4.773 -0.4165  0.2822 -0.2437
   32TAL   C15617068   5.728  -2.718   4.778  0.6520  0.7129 -0.1275
   32TAL   C15717069   5.791  -2.696   4.908 -0.3507  1.1217 -0.2968
   32TAL   C15817070   5.803  -2.823   5.001 -0.8552 -0.0291  0.3949
   32TAL   C15917071   5.865  -2.789   5.133 -0.2931 -0.2039  0.1469
   32TAL   C16017072   5.830  -2.914   5.213  0.4167 -0.7869  0.1586
   33HTM   C16117073   5.377  -3.018   4.865  0.4748 -0.6138 -0.4051
   33HTM   C16217074   5.450  -3.049   4.976  0.7579 -1.2188 -0.7511
   33HTM   C16317075   5.412  -3.172   5.039  0.2691 -1.0819 -0.7761
   33HTM   C16417076   5.309  -3.236   4.976 -0.3868 -0.3726 -0.4491
   33HTM    S1717077   5.252  -3.144   4.832 -0.4384  0.1820 -0.0813
   34TAL   C16517078   5.489  -3.227   5.160  0.3023  0.1837  0.0188
   34TAL   C16617079   5.503  -3.131   5.287  0.7459  1.2153 -0.5708
   34TAL   C16717080   5.586  -3.187   5.405 -0.2120 -0.4871  0.4666
   34TAL   C16817081   5.594  -3.107   5.530 -0.7660 -1.0104 -0.3340
   34TAL   C16917082   5.657  -3.159   5.663  0.0238 -0.2567  0.9602
   34TAL   C17017083   5.559  -3.232   5.751  0.3057 -0.2337 -0.4731
   35HTM   C17117084   5.230  -3.353   5.018 -0.9392  0.0795 -0.2502
   35HTM   C17217085   5.104  -3.373   4.970 -0.7914 -0.8780 -0.2716
   35HTM   C17317086   5.038  -3.487   5.029  0.0590 -1.4006 -0.2936
   35HTM   C17417087   5.114  -3.554   5.120  0.5596 -0.8415 -0.2894
   35HTM    S1817088   5.276  -3.477   5.141 -0.0086  0.3980 -0.2566
   36TAL   C17517089   4.893  -3.517   4.988 -0.2838 -1.5736 -1.0847
   36TAL   C17617090   4.870  -3.585   4.854 -0.2911  0.1445 -0.0525
   36TAL   C17717091   4.730  -3.632   4.804 -0.3918 -0.0043 -0.3042
   36TAL   C17817092   4.641  -3.714   4.901 -0.3194  0.0324  0.9212
   36TAL   C17917093   4.498  -3.760   4.855  0.2859  0.9800 -0.0632
   36TAL   C18017094   4.392  -3.669   4.813  1.4382 -0.2414 -0.0730
   37HTM   C18117095   5.094  -3.683   5.186 -0.4900  0.5369  0.8756
   37HTM   C18217096   5.162  -3.740   5.289 -1.0639  0.4404  1.2134
   37HTM   C18317097   5.111  -3.868   5.330 -1.0161  0.1819  0.4892
   37HTM   C18417098   5.002  -3.909   5.258 -0.4058  0.0812 -0.4009
   37HTM    S1917099   4.957  -3.788   5.132  0.1604  0.3070 -0.3934
   38TAL   C18517100   5.184  -3.943   5.444 -0.6096  0.9177 -0.2275
   38TAL   C18617101   5.294  -3.870   5.527 -0.1473  0.3914  0.1279
   38TAL   C18717102   5.322  -3.910   5.669  0.2383 -0.6480  0.3465
   38TAL   C18817103   5.375  -3.787   5.737 -0.1907  1.0772 -0.0098
   38TAL   C18917104   5.514  -3.743   5.713 -0.7129  0.3697 -0.3118
   38TAL   C19017105   5.567  -3.623   5.797  1.0142  0.2469  0.9960
   39HTM   C19117106   4.921  -4.027   5.267  0.7222 -0.0664  0.1742
   39HTM   C19217107   4.816  -4.062   5.187  0.9829  0.2099 -0.2983
   39HTM   C19317108   4.762  -4.193   5.216  0.7893  0.1689 -0.8301
   39HTM   C19417109   4.826  -4.258   5.317  0.3809 -0.1386 -0.7630
   39HTM    S2017110   4.960  -4.158   5.385  0.2078 -0.4025 -0.0171
   40TAL   C19517111   4.650  -4.256   5.126 -0.0167  0.8902  0.2976
   40TAL   C19617112   4.518  -4.184   5.141  1.0445 -0.8651 -0.1621
   40TAL   C19717113   4.410  -4.247   5.048 -0.4738 -0.6011 -0.4412
   40TAL   C19817114   4.323  -4.358   5.111 -0.9856  0.6745 -1.1361
   40TAL   C19917115   4.213  -4.419   5.024 -0.4054  0.7056 -0.4416
   40TAL   C20017116   4.266  -4.522   4.916 -1.0962  0.7284  0.3644
   41HTM   C20117117   4.812  -4.402   5.363 -0.1734 -0.4580  0.4076
   41HTM   C20217118   4.705  -4.485   5.347 -0.1053 -0.6016  0.6756
   41HTM   C20317119   4.735  -4.624   5.368  0.1264 -0.5583  0.6387
   41HTM   C20417120   4.865  -4.648   5.401  0.2352 -0.3813  0.3428
   41HTM    S2117121   4.961  -4.495   5.407  0.0515 -0.2549  0.0856
   42TAL   C20517122   4.618  -4.713   5.355  1.4927 -0.0551  0.1300
   42TAL   C20617123   4.602  -4.862   5.317  0.9150  0.6371 -0.2890
   42TAL   C20717124   4.472  -4.940   5.304  0.1889  0.7775 -0.5823
   42TAL   C20817125   4.378  -4.930   5.188 -1.1585  0.2549  0.4946
   42TAL   C20917126   4.454  -4.942   5.042 -0.0678 -0.6747 -0.2353
   42TAL   C21017127   4.473  -5.086   4.993  0.4511 -0.6653  0.2599
   43HTM   C21117128   4.916  -4.774   5.446 -0.4393 -0.2239 -0.3072
   43HTM   C21217129   4.910  -4.823   5.573 -1.1541 -0.4818 -0.4314
   43HTM   C21317130   4.981  -4.946   5.592 -0.8987 -0.2995 -0.1864
   43HTM   C21417131   5.042  -4.992   5.478  0.0107  0.0976  0.1249
   43HTM    S2217132   5.014  -4.881   5.339  0.6198  0.2734  0.1326
   44TAL   C21517133   4.959  -5.020   5.723  0.7298  0.6900  0.7587
   44TAL   C21617134   4.952  -4.937   5.854 -0.7866  0.2343  0.2280
   44TAL   C21717135   5.068  -4.888   5.936 -0.5202 -0.3996  0.5742
   44TAL   C21817136   5.018  -4.843   6.074 -0.2633  1.1040 -0.1254
   44TAL   C21917137   5.137  -4.809   6.158  0.4528  0.8591 -0.4961
   44TAL   C22017138   5.088  -4.761   6.292  0.3686  0.7060  0.0817
   45HTM   C22117139   5.132  -5.111   5.455  0.5176  0.4102 -0.2606
   45HTM   C22217140   5.190  -5.150   5.338  0.8973  0.2087 -0.0092
   45HTM   C22317141   5.290  -5.252   5.354  0.5090 -0.1125  0.4389
   45HTM   C22417142   5.309  -5.291   5.483 -0.1668 -0.1561  0.5294
   45HTM    S2317143   5.200  -5.201   5.596 -0.3669  0.2082  0.0514
   46TAL   C22517144   5.374  -5.299   5.237 -1.1309  0.3560 -0.2166
   46TAL   C22617145   5.292  -5.361   5.118 -0.2749  0.3828 -0.4814
   46TAL   C22717146   5.391  -5.372   4.995  0.0954 -1.6586  0.2213
   46TAL   C22817147   5.423  -5.253   4.914 -0.6407 -0.0156 -0.2094
   46TAL   C22917148   5.306  -5.170   4.857 -0.1696 -0.1756 -0.5792
   46TAL   C23017149   5.341  -5.026   4.823  0.0928 -0.2193 -0.1262
   47HTM   C23117150   5.381  -5.402   5.532 -0.0147 -0.0673  0.0141
   47HTM   C23217151   5.331  -5.528   5.544  0.0350 -0.0918 -0.0348
   47HTM   C23317152   5.425  -5.622   5.600  0.0283 -0.0467  0.0532
   47HTM   C23417153   5.546  -5.567   5.630 -0.0267  0.0118  0.1692
   47HTM    S2417154   5.551  -5.392   5.590 -0.0744  0.0148  0.1764
   48TAL   C23517155   5.375  -5.764   5.629 -0.7321 -0.0690  0.5525
   48TAL   C23617156   5.348  -5.857   5.511  1.2794  0.2618 -0.7683
   48TAL   C23717157   5.316  -5.999   5.560 -0.1123 -0.6121 -0.3074
   48TAL   C23817158   5.431  -6.082   5.605  0.5240  0.0964  0.4638
   48TAL   C23917159   5.375  -6.207   5.682 -0.9412 -0.9302 -0.1855
   48TAL   C24017160   5.447  -6.220   5.817 -0.1664 -1.1130  0.0357
    1HTM     C117161   6.294   3.323   3.285  0.2367 -0.4832  0.1826
    1HTM     C217162   6.321   3.440   3.221  0.6179 -0.3965  0.4910
    1HTM     C317163   6.221   3.477   3.125  0.8696  0.0497  0.3973
    1HTM     C417164   6.117   3.389   3.116  0.6805  0.3032  0.0175
    1HTM     S117165   6.138   3.251   3.230  0.1656 -0.0042 -0.2534
    2TAL     C517166   6.217   3.597   3.037  1.0306  0.2348  0.3936
    2TAL     C617167   6.302   3.712   3.088 -1.4287  0.6435  0.6403
    2TAL     C717168   6.241   3.782   3.206 -0.1424  0.2460 -1.3310
    2TAL     C817169   6.341   3.867   3.284 -0.2413  0.6729  0.7150
    2TAL     C917170   6.266   3.951   3.392 -0.5452  1.4113 -0.0676
    2TAL    C1017171   6.347   4.007   3.509 -0.6383 -0.6469 -0.3046
    3HTM    C1117172   5.989   3.391   3.043  0.3597 -0.4107  0.3374
    3HTM    C1217173   5.875   3.340   3.099  0.2477 -0.4560  0.0752
    3HTM    C1317174   5.764   3.331   3.008  0.3804 -0.2341 -0.1105
    3HTM    C1417175   5.793   3.375   2.882  0.5939 -0.0197  0.0102
    3HTM     S217176   5.964   3.431   2.869  0.6437 -0.0818  0.3706
    4TAL    C1517177   5.633   3.263   3.037  0.6574  0.0475 -0.0344
    4TAL    C1617178   5.609   3.191   3.175  1.1021 -0.7244  0.6178
    4TAL    C1717179   5.660   3.042   3.166  0.2693 -0.7176  0.0530
    4TAL    C1817180   5.572   2.951   3.091 -0.0095 -0.5939  0.2402
    4TAL    C1917181   5.626   2.814   3.067 -0.9904  0.2990 -0.4565
    4TAL    C2017182   5.524   2.710   3.043 -0.0393  0.1061  0.0467
    5HTM    C2117183   5.706   3.381   2.771  0.0366  0.3906  0.7480
    5HTM    C2217184   5.680   3.292   2.671 -0.2034 -0.2387  1.3530
    5HTM    C2317185   5.593   3.344   2.568 -0.1478 -0.7463  1.0419
    5HTM    C2417186   5.554   3.473   2.590  0.1345 -0.5041  0.1998
    5HTM     S317187   5.623   3.538   2.743  0.3536  0.3908 -0.2694
    6TAL    C2517188   5.538   3.260   2.445 -0.0362 -0.7650  0.2401
    6TAL    C2617189   5.558   3.106   2.427  1.2181  0.3685 -0.1498
    6TAL    C2717190   5.481   3.007   2.521 -0.9672 -0.3774 -0.5377
    6TAL    C2817191   5.482   2.871   2.459 -1.1665 -0.4550 -0.1989
    6TAL    C2917192   5.369   2.778   2.483 -0.7676 -0.9646 -0.4721
    6TAL    C3017193   5.421   2.652   2.409  0.5478  0.7867  0.1361
    7HTM    C3117194   5.457   3.561   2.517  0.0117  0.0123 -0.1267
    7HTM    C3217195   5.369   3.643   2.581  0.3418  0.2697  0.0026
    7HTM    C3317196   5.280   3.713   2.492  0.2968  0.3933  0.1438
    7HTM    C3417197   5.300   3.684   2.361 -0.0675  0.2299  0.1221
    7HTM     S417198   5.434   3.566   2.338 -0.3845 -0.0951 -0.0799
    8TAL    C3517199   5.180   3.807   2.550  0.0541 -0.3863  0.2074
    8TAL    C3617200   5.054   3.729   2.597 -0.8305  0.7520  0.0146
    8TAL    C3717201   4.931   3.810   2.590  0.0691 -0.4878  0.4892
    8TAL    C3817202   4.913   3.925   2.689 -0.2508 -0.5432 -0.9985
    8TAL    C3917203   4.885   3.885   2.836 -0.2023  0.1314 -0.4473
    8TAL    C4017204   4.860   4.014   2.914  0.5930  0.7283  0.4267
    9HTM    C4117205   5.230   3.728   2.240 -0.0257  0.1705 -0.0047
    9HTM    C4217206   5.213   3.669   2.119 -0.2241  0.2220 -0.0029
    9HTM    C4317207   5.131   3.745   2.028  0.0565  0.5125 -0.0178
    9HTM    C4417208   5.085   3.862   2.081  0.4685  0.6825 -0.0309
    9HTM     S517209   5.142   3.886   2.250  0.5349  0.4874 -0.0254
   10TAL    C4517210   5.108   3.688   1.887 -0.3107  0.3325  0.0358
   10TAL    C4617211   5.227   3.660   1.811 -0.2765  0.6432 -0.2275
   10TAL    C4717212   5.200   3.585   1.675  0.2488  0.2046 -0.1856
   10TAL    C4817213   5.343   3.577   1.609 -0.6092  0.5850  1.0030
   10TAL    C4917214   5.450   3.501   1.698  0.6203  0.0152  1.0883
   10TAL    C5017215   5.464   3.356   1.674 -0.5204 -0.0284 -0.3010
   11HTM    C5117216   5.002   3.962   2.014  0.4607  0.0330 -0.3833
   11HTM    C5217217   5.015   4.098   2.022  0.5637  0.0453 -0.7177
   11HTM    C5317218   4.921   4.170   1.941  0.4102 -0.0809 -0.6539
   11HTM    C5417219   4.836   4.090   1.870  0.1902 -0.1898 -0.2708
   11HTM     S617220   4.869   3.915   1.902  0.1595 -0.1405  0.0415
   12TAL    C5517221   4.927   4.322   1.924  0.1309 -0.0534 -0.6058
   12TAL    C5617222   4.935   4.412   2.054 -1.3791  0.4078 -0.5415
   12TAL    C5717223   4.936   4.565   2.027 -0.5854  1.3064  0.1640
   12TAL    C5817224   4.928   4.656   2.143 -0.1845  0.0476  0.0805
   12TAL    C5917225   5.062   4.652   2.216  0.1616 -0.8146 -1.0748
   12TAL    C6017226   5.102   4.776   2.300  0.6500  0.3292  0.4898
   13HTM    C6117227   4.729   4.135   1.780 -0.0840 -0.4559 -0.2677
   13HTM    C6217228   4.627   4.216   1.819 -0.5021 -0.8863 -0.4470
   13HTM    C6317229   4.547   4.266   1.711 -0.3453 -0.9927 -0.6124
   13HTM    C6417230   4.588   4.224   1.588  0.1927 -0.6432 -0.5592
   13HTM     S717231   4.732   4.116   1.600  0.5453 -0.1490 -0.2940
   14TAL    C6517232   4.438   4.360   1.729  1.1681 -0.4961 -0.0242
   14TAL    C6617233   4.404   4.428   1.867 -0.3051 -0.4566  0.2482
   14TAL    C6717234   4.283   4.508   1.892 -0.1182 -0.3709  1.6594
   14TAL    C6817235   4.276   4.548   2.037 -0.3460  0.5053  0.3823
   14TAL    C6917236   4.282   4.700   2.047 -0.3129  0.1040  0.2504
   14TAL    C7017237   4.143   4.756   2.022  0.3347 -1.0933  0.6125
   15HTM    C7117238   4.548   4.252   1.448 -1.0356 -0.6402  0.0335
   15HTM    C7217239   4.595   4.189   1.337 -0.9480 -0.5839  0.0379
   15HTM    C7317240   4.532   4.232   1.215 -0.4017 -0.0635 -0.0643
   15HTM    C7417241   4.438   4.329   1.233 -0.0729  0.2770 -0.1468
   15HTM     S817242   4.421   4.373   1.407 -0.4304 -0.0357 -0.1014
   16TAL    C7517243   4.532   4.155   1.082 -0.1621  0.2528  0.3484
   16TAL    C7617244   4.465   4.013   1.102  0.4927  0.7333 -0.1365
   16TAL    C7717245   4.311   4.014   1.130  0.2416 -0.4440  0.4359
   16TAL    C7817246   4.256   3.875   1.157 -1.1430 -1.4142  0.1062
   16TAL    C7917247   4.103   3.880   1.186  0.5934  0.3972  1.0114
   16TAL    C8017248   4.025   3.915   1.054  0.5479  0.2636 -0.6860
   17HTM    C8117249   4.373   4.409   1.135 -0.5148 -0.2020 -0.1042
   17HTM    C8217250   4.288   4.376   1.033 -0.6400  0.3204 -0.1707
   17HTM    C8317251   4.229   4.491   0.969 -0.3545  0.6702  0.1772
   17HTM    C8417252   4.270   4.610   1.020 -0.0120  0.4145  0.5090
   17HTM     S917253   4.386   4.587   1.156 -0.0230 -0.2931  0.4070
   18TAL    C8517254   4.132   4.447   0.858  1.4286 -0.5485 -0.0794
   18TAL    C8617255   4.147   4.517   0.727 -0.0225 -0.1451 -0.0169
   18TAL    C8717256   4.279   4.492   0.648 -1.1460 -0.1041 -0.0528
   18TAL    C8817257   4.330   4.601   0.554 -0.8563 -0.3405 -0.2533
   18TAL    C8917258   4.468   4.584   0.505 -1.2309 -0.5612 -0.3411
   18TAL    C9017259   4.555   4.709   0.554 -1.1610  0.1470  0.3416
   19HTM    C9117260   4.199   4.731   0.980 -0.4374 -0.8305  0.1254
   19HTM    C9217261   4.217   4.792   0.860 -0.9176 -1.5799 -0.3505
   19HTM    C9317262   4.152   4.920   0.849 -0.7499 -1.5268 -0.7902
   19HTM    C9417263   4.083   4.956   0.962 -0.1418 -0.7372 -0.6495
   19HTM    S1017264   4.095   4.830   1.090  0.2695  0.0069  0.0547
   20TAL    C9517265   4.138   4.992   0.722 -0.9102 -1.0537 -0.7467
   20TAL    C9617266   4.245   5.078   0.660  0.7537  0.0919 -0.3164
   20TAL    C9717267   4.214   5.107   0.511 -0.5219  0.7408  0.3134
   20TAL    C9817268   4.308   5.033   0.406 -0.8330 -0.2482  0.0637
   20TAL    C9917269   4.314   5.101   0.275 -0.6095 -0.3013 -0.0807
   20TAL   C10017270   4.186   5.108   0.197 -0.1160 -0.7542 -0.2433
   21HTM   C10117271   4.013   5.083   0.993  0.5245  0.0543  0.4099
   21HTM   C10217272   4.046   5.213   0.963  0.4069  0.1332  0.6189
   21HTM   C10317273   3.960   5.310   1.027  0.1777 -0.0533  0.5981
   21HTM   C10417274   3.863   5.255   1.104  0.1207 -0.2742  0.3732
   21HTM    S1117275   3.871   5.075   1.104  0.3538 -0.2637  0.1687
   22TAL   C10517276   3.981   5.467   1.015  0.1991  0.5437 -0.7224
   22TAL   C10617277   4.120   5.529   1.016  0.0825  0.2465  0.1287
   22TAL   C10717278   4.196   5.518   1.146 -0.3409 -0.0979  0.5586
   22TAL   C10817279   4.128   5.583   1.267  0.4897 -0.0997 -0.3452
   22TAL   C10917280   4.203   5.609   1.392 -0.8899 -0.0044 -0.6846
   22TAL   C11017281   4.124   5.648   1.507 -0.1930  0.3778  0.6102
   23HTM   C11117282   3.769   5.310   1.197 -0.4967  0.1481 -0.3340
   23HTM   C11217283   3.674   5.400   1.162 -0.8101 -0.2419 -0.4967
   23HTM   C11317284   3.580   5.430   1.267 -0.7285 -0.1472 -0.4504
   23HTM   C11417285   3.604   5.363   1.383 -0.3530  0.3149 -0.2524
   23HTM    S1217286   3.748   5.255   1.368 -0.0711  0.6690 -0.1079
   24TAL   C11517287   3.450   5.519   1.245 -0.1059 -0.5623  0.3237
   24TAL   C11617288   3.381   5.509   1.104 -0.5829 -0.3973 -0.7357
   24TAL   C11717289   3.328   5.374   1.089  0.2562  0.3420  0.4903
   24TAL   C11817290   3.255   5.354   0.959  0.6835 -0.4021 -0.2332
   24TAL   C11917291   3.247   5.206   0.923 -0.4150 -0.3297 -0.1412
   24TAL   C12017292   3.151   5.186   0.815 -0.3640 -0.1455  0.5532
   25HTM   C12117293   3.527   5.361   1.507 -0.0393  0.2181  0.2996
   25HTM   C12217294   3.552   5.429   1.623 -0.5888  0.3251  0.3622
   25HTM   C12317295   3.462   5.396   1.730 -1.0054  0.3113  0.0113
   25HTM   C12417296   3.368   5.303   1.696 -0.7733  0.1936 -0.3189
   25HTM    S1317297   3.386   5.250   1.524 -0.0049  0.0910 -0.2115
   26TAL   C12517298   3.486   5.447   1.874  0.9021  0.1006  0.4290
   26TAL   C12617299   3.448   5.596   1.877 -0.3717 -0.8572  0.0155
   26TAL   C12717300   3.334   5.638   1.971 -0.4330 -0.2797  1.1233
   26TAL   C12817301   3.306   5.789   2.012  0.1560  0.0502 -0.1167
   26TAL   C12917302   3.293   5.887   1.892 -0.2071 -0.0498 -0.2135
   26TAL   C13017303   3.159   5.963   1.885 -1.2278 -0.4810 -1.1276
   27HTM   C13117304   3.247   5.252   1.773 -0.2284  0.5511 -0.2545
   27HTM   C13217305   3.126   5.311   1.750 -0.4260  0.0584 -0.4965
   27HTM   C13317306   3.014   5.224   1.774 -0.1330 -0.3117 -0.4418
   27HTM   C13417307   3.049   5.100   1.817  0.2881 -0.1015 -0.1582
   27HTM    S1417308   3.228   5.082   1.829  0.3477  0.5857  0.0636
   28TAL   C13517309   2.881   5.269   1.732  1.0570 -0.4709 -0.5762
   28TAL   C13617310   2.797   5.377   1.799 -0.6632 -0.5082  1.0582
   28TAL   C13717311   2.777   5.359   1.946 -1.1024  0.2693 -0.3024
   28TAL   C13817312   2.750   5.478   2.037 -0.4875 -0.1161 -0.4235
   28TAL   C13917313   2.636   5.569   1.998  0.3191  0.0520  0.4325
   28TAL   C14017314   2.628   5.694   2.089 -0.0883  0.5563  0.0354
   29HTM   C14117315   2.957   4.982   1.832 -0.0910 -0.2687 -0.3536
   29HTM   C14217316   2.882   4.933   1.729  0.0110 -0.4467 -0.3427
   29HTM   C14317317   2.845   4.794   1.745  0.0663 -0.4426 -0.1805
   29HTM   C14417318   2.892   4.738   1.861  0.0064 -0.2616 -0.0677
   29HTM    S1517319   2.986   4.857   1.959 -0.1253 -0.0807 -0.1584
   30TAL   C14517320   2.752   4.738   1.643 -0.9326  0.4699  0.9496
   30TAL   C14617321   2.828   4.733   1.507  0.1212  1.2764  0.5212
   30TAL   C14717322   2.931   4.620   1.486 -0.3965 -1.4854  1.1384
   30TAL   C14817323   2.880   4.479   1.498 -0.0547  0.5391  0.1938
   30TAL   C14917324   2.774   4.442   1.391 -0.2935  0.1759 -0.9993
   30TAL   C15017325   2.740   4.295   1.430 -0.4524  0.2212 -0.2565
   31HTM   C15117326   2.873   4.604   1.910  0.1810 -0.0390  0.1999
   31HTM   C15217327   2.783   4.507   1.881 -0.0842  0.2073  0.1864
   31HTM   C15317328   2.815   4.379   1.939 -0.1735 -0.0050 -0.2235
   31HTM   C15417329   2.930   4.379   2.012  0.0237 -0.4132 -0.5226
   31HTM    S1617330   3.007   4.542   2.013  0.3400 -0.5624 -0.3080
   32TAL   C15517331   2.740   4.250   1.894 -0.4527 -0.9767  0.7463
   32TAL   C15617332   2.613   4.280   1.815  0.1608  0.1700 -0.1778
   32TAL   C15717333   2.548   4.147   1.769  0.4111 -0.4578  0.3136
   32TAL   C15817334   2.400   4.172   1.745 -0.2996 -0.5092  0.5570
   32TAL   C15917335   2.302   4.075   1.812 -0.4680  0.3549 -0.3536
   32TAL   C16017336   2.152   4.108   1.783 -0.7511  0.3749 -0.8420
   33HTM   C16117337   2.974   4.271   2.105 -0.5702 -0.2720  0.3295
   33HTM   C16217338   2.929   4.144   2.126 -1.1821  0.0778  1.2547
   33HTM   C16317339   2.980   4.083   2.246 -1.1162  0.5428  1.4657
   33HTM   C16417340   3.064   4.164   2.317 -0.4540  0.5469  0.7012
   33HTM    S1717341   3.086   4.324   2.236  0.1423 -0.0400 -0.3526
   34TAL   C16517342   2.950   3.940   2.289  0.6670  0.5193 -0.5982
   34TAL   C16617343   2.856   3.854   2.187 -0.0341 -0.7239 -0.3679
   34TAL   C16717344   2.801   3.730   2.259  0.4679  0.1040 -0.4135
   34TAL   C16817345   2.854   3.599   2.215 -0.0934 -0.4096 -0.0975
   34TAL   C16917346   2.785   3.483   2.280  1.2848  0.5063  0.4620
   34TAL   C17017347   2.867   3.364   2.265 -0.1359 -0.3848 -0.1321
   35HTM   C17117348   3.112   4.137   2.452 -0.2668  0.0140  0.4227
   35HTM   C17217349   3.214   4.053   2.485 -0.3455 -0.1296  0.3040
   35HTM   C17317350   3.253   4.061   2.623 -0.0003  0.0048  0.2012
   35HTM   C17417351   3.180   4.151   2.696  0.3416  0.2507  0.2415
   35HTM    S1817352   3.057   4.234   2.594  0.2534  0.3324  0.4137
   36TAL   C17517353   3.377   3.974   2.684  0.7458 -0.8823  0.3755
   36TAL   C17617354   3.494   3.983   2.586  0.9762  0.4124  0.9394
   36TAL   C17717355   3.632   3.923   2.613 -1.1929 -0.7752  0.7707
   36TAL   C17817356   3.645   3.799   2.704 -0.1065 -0.5841  0.0407
   36TAL   C17917357   3.791   3.759   2.740 -0.7605 -0.4910  0.7898
   36TAL   C18017358   3.907   3.775   2.643  0.1102 -0.7346 -0.7482
   37HTM   C18117359   3.197   4.197   2.832 -1.0917 -0.1995  0.0800
   37HTM   C18217360   3.214   4.331   2.852 -2.5980 -0.0172  0.3901
   37HTM   C18317361   3.264   4.364   2.983 -2.5334  0.1975  0.3120
   37HTM   C18417362   3.285   4.256   3.062 -0.9778  0.1789 -0.0575
   37HTM    S1917363   3.243   4.102   2.978  0.5379 -0.1135 -0.3378
   38TAL   C18517364   3.279   4.515   3.007 -1.1895 -0.7715  0.1276
   38TAL   C18617365   3.432   4.556   2.991 -0.0457 -0.2319 -0.1748
   38TAL   C18717366   3.495   4.696   3.005  0.2933 -0.0611  0.1889
   38TAL   C18817367   3.422   4.807   2.920 -0.5415 -0.2203  0.3244
   38TAL   C18917368   3.410   4.801   2.772  0.2723 -0.3889  0.6617
   38TAL   C19017369   3.527   4.793   2.686 -1.4733  0.2086  0.3716
   39HTM   C19117370   3.317   4.266   3.204 -0.4512 -0.0518 -0.1205
   39HTM   C19217371   3.239   4.215   3.303 -0.5752  0.5980  0.1245
   39HTM   C19317372   3.288   4.245   3.436 -0.4599  1.0324 -0.0125
   39HTM   C19417373   3.403   4.318   3.437 -0.2479  0.7138 -0.3618
   39HTM    S2017374   3.459   4.356   3.269 -0.1768 -0.1664 -0.5464
   40TAL   C19517375   3.217   4.179   3.561 -0.3262  0.6833 -0.9682
   40TAL   C19617376   3.089   4.267   3.591  0.6222 -0.3476  0.7961
   40TAL   C19717377   3.067   4.306   3.736  0.2163 -0.2413 -0.2467
   40TAL   C19817378   3.185   4.315   3.831  0.2927  0.0773  0.6731
   40TAL   C19917379   3.171   4.284   3.971 -0.7593  0.5706  0.7111
   40TAL   C20017380   3.293   4.301   4.055 -0.1502 -0.9013  0.5005
   41HTM   C20117381   3.463   4.379   3.553  0.3945  0.2207  0.1108
   41HTM   C20217382   3.575   4.322   3.605  0.3892  0.0830 -0.0284
   41HTM   C20317383   3.616   4.378   3.732  0.3837 -0.2398  0.1194
   41HTM   C20417384   3.535   4.478   3.776  0.3847 -0.3483  0.3713
   41HTM    S2117385   3.400   4.510   3.661  0.3929 -0.0485  0.4418
   42TAL   C20517386   3.742   4.316   3.807  0.8286  0.5858  0.1365
   42TAL   C20617387   3.697   4.195   3.896 -0.1766  1.4424  0.3350
   42TAL   C20717388   3.822   4.108   3.915 -0.0591 -0.6092  0.7486
   42TAL   C20817389   3.936   4.142   4.023  0.1643 -0.0950  0.8056
   42TAL   C20917390   3.884   4.181   4.160 -0.1197  0.8145  0.4127
   42TAL   C21017391   3.983   4.140   4.273  0.0781  0.1666  0.3792
   43HTM   C21117392   3.548   4.563   3.890  1.0409  0.4529  0.3596
   43HTM   C21217393   3.662   4.627   3.928  0.6242  1.4180  0.0407
   43HTM   C21317394   3.640   4.743   4.010 -0.1510  1.7755 -0.6441
   43HTM   C21417395   3.508   4.767   4.036 -0.3253  1.0833 -0.8475
   43HTM    S2217396   3.401   4.645   3.957  0.4823 -0.0833 -0.1844
   44TAL   C21517397   3.760   4.816   4.070  0.2483 -0.0171 -1.3000
   44TAL   C21617398   3.869   4.875   3.988 -0.3232 -1.8727  1.1056
   44TAL   C21717399   3.834   4.953   3.846 -0.3705  0.3617 -0.6703
   44TAL   C21817400   3.741   5.068   3.842  0.5727  0.4859 -0.8755
   44TAL   C21917401   3.769   5.190   3.918 -0.5472  0.1132 -0.6850
   44TAL   C22017402   3.659   5.295   3.925  0.4948 -0.4351  0.3929
   45HTM   C22117403   3.444   4.880   4.099 -0.1206 -0.4053  0.8446
   45HTM   C22217404   3.317   4.875   4.147 -0.1731  0.1589  0.7797
   45HTM   C22317405   3.272   4.998   4.206  0.0561  0.6114  0.0343
   45HTM   C22417406   3.365   5.098   4.203  0.2834  0.3920 -0.4693
   45HTM    S2317407   3.518   5.043   4.125  0.2251 -0.4091 -0.0376
   46TAL   C22517408   3.142   4.997   4.285  0.4580  0.2725 -0.2135
   46TAL   C22617409   3.073   4.866   4.328 -0.7538  0.1425 -0.3919
   46TAL   C22717410   2.944   4.838   4.253  1.3421  0.7763  0.3608
   46TAL   C22817411   2.855   4.728   4.312 -0.6712 -0.1787 -0.7592
   46TAL   C22917412   2.907   4.581   4.289  0.3113 -0.0310 -0.2986
   46TAL   C23017413   2.923   4.542   4.145 -0.0146 -0.4788 -0.1599
   47HTM   C23117414   3.365   5.235   4.242 -0.1653  0.0015 -0.1213
   47HTM   C23217415   3.463   5.327   4.266 -0.1029 -0.0199 -0.2921
   47HTM   C23317416   3.416   5.448   4.328  0.0612 -0.0947 -0.0154
   47HTM   C23417417   3.281   5.449   4.351  0.1238 -0.1302  0.3662
   47HTM    S2417418   3.203   5.296   4.296 -0.0206 -0.0715  0.4063
   48TAL   C23517419   3.498   5.554   4.396  0.3284 -0.5844 -0.0060
   48TAL   C23617420   3.441   5.688   4.454 -0.1555  1.0377  0.5433
   48TAL   C23717421   3.442   5.705   4.604  0.1634 -0.7904  1.1551
   48TAL   C23817422   3.585   5.713   4.679  0.7639 -0.0377 -0.4101
   48TAL   C23917423   3.652   5.572   4.708  0.3428 -0.3209 -0.5304
   48TAL   C24017424   3.712   5.588   4.857  0.9516  0.4404  0.6128
    1HTM     C117425   7.520   9.441   1.996 -0.4213 -0.5668  0.3323
    1HTM     C217426   7.538   9.576   1.994 -0.7371 -0.5224  0.3476
    1HTM     C317427   7.676   9.615   1.987 -0.8428 -0.1991  0.0307
    1HTM     C417428   7.763   9.510   1.983 -0.6075  0.0025 -0.2264
    1HTM     S117429   7.677   9.352   1.988 -0.2312 -0.2016 -0.0869
    2TAL     C517430   7.711   9.761   1.982 -0.3579 -0.0095 -0.7382
    2TAL     C617431   7.732   9.844   1.855 -0.2279  1.7755  0.0709
    2TAL     C717432   7.600   9.848   1.767 -0.1130 -0.1744  0.0011
    2TAL     C817433   7.479   9.935   1.799  0.3316  0.8842  0.5898
    2TAL     C917434   7.507  10.069   1.856  0.1879  0.5603  0.7665
    2TAL    C1017435   7.382  10.156   1.849 -0.3882 -0.0831  0.7084
    3HTM    C1117436   7.912   9.504   2.003 -0.1032 -0.3102  0.0687
    3HTM    C1217437   7.975   9.387   2.031  0.2419 -0.1585 -0.0609
    3HTM    C1317438   8.110   9.403   2.079  0.1142  0.1972  0.1846
    3HTM    C1417439   8.149   9.534   2.087 -0.3280  0.3160  0.5015
    3HTM     S217440   8.018   9.646   2.035 -0.6203 -0.0141  0.5145
    4TAL    C1517441   8.214   9.304   2.082 -0.6956 -0.0520 -0.6779
    4TAL    C1617442   8.254   9.201   1.974  0.7979 -0.7801  1.1991
    4TAL    C1717443   8.403   9.193   1.971 -0.0091  0.6582 -0.8130
    4TAL    C1817444   8.470   9.311   1.912 -0.4602  0.4592 -0.1787
    4TAL    C1917445   8.609   9.345   1.957 -0.5504  0.2680 -1.3779
    4TAL    C2017446   8.679   9.430   1.850 -0.6897 -0.6713  0.2999
    5HTM    C2117447   8.276   9.604   2.130 -0.1652 -0.4270 -0.3095
    5HTM    C2217448   8.347   9.705   2.073 -0.5729 -0.1862 -0.3957
    5HTM    C2317449   8.470   9.736   2.142 -0.7873  0.5012 -0.3074
    5HTM    C2417450   8.493   9.658   2.251 -0.5431  0.7847 -0.1540
    5HTM     S317451   8.360   9.539   2.277 -0.0188  0.2006 -0.1086
    6TAL    C2517452   8.568   9.841   2.095  0.7993 -0.8984  0.7846
    6TAL    C2617453   8.513   9.963   2.013  0.2798 -0.7093  0.5734
    6TAL    C2717454   8.592  10.031   1.901 -0.8478  0.8675 -0.7217
    6TAL    C2817455   8.533  10.130   1.802  0.6202 -0.0166 -0.4304
    6TAL    C2917456   8.461  10.254   1.848 -0.8855 -0.6205 -0.8752
    6TAL    C3017457   8.501  10.335   1.968  0.0453 -0.5074  0.2966
    7HTM    C3117458   8.617   9.647   2.329  0.3178  0.5195 -0.0072
    7HTM    C3217459   8.634   9.540   2.411 -0.5345  0.6404  0.3557
    7HTM    C3317460   8.741   9.557   2.507 -0.6523  0.2687  0.5568
    7HTM    C3417461   8.804   9.678   2.498  0.1105 -0.1355  0.3473
    7HTM     S417462   8.734   9.780   2.366  1.0442 -0.0776 -0.1239
    8TAL    C3517463   8.799   9.435   2.585 -0.5264  0.7077  0.1201
    8TAL    C3617464   8.710   9.368   2.688  0.5810 -0.4201 -0.7074
    8TAL    C3717465   8.795   9.272   2.768  0.3474 -0.5945 -0.5724
    8TAL    C3817466   8.742   9.151   2.833  0.2179 -0.6062 -0.9951
    8TAL    C3917467   8.663   9.164   2.965  0.1945 -0.3984  0.6539
    8TAL    C4017468   8.575   9.047   3.021  0.4593  0.3266 -0.0791
    9HTM    C4117469   8.920   9.738   2.572  0.4860 -0.6399  0.1700
    9HTM    C4217470   8.976   9.856   2.532  0.7923 -1.0119 -0.5202
    9HTM    C4317471   9.091   9.894   2.609  0.7663 -0.7550 -0.6075
    9HTM    C4417472   9.123   9.806   2.709  0.4405 -0.1870  0.0160
    9HTM     S517473   9.008   9.667   2.712  0.1385  0.0695  0.7677
   10TAL    C4517474   9.158  10.031   2.588 -0.7966  0.9241  0.1250
   10TAL    C4617475   9.183  10.082   2.441 -0.1134  0.2597 -0.2995
   10TAL    C4717476   9.292  10.187   2.416  0.3701 -0.1945  0.6081
   10TAL    C4817477   9.276  10.259   2.276  0.0557 -0.6803  0.2238
   10TAL    C4917478   9.378  10.367   2.253  0.1791 -0.0373 -0.1983
   10TAL    C5017479   9.349  10.497   2.344 -1.1900  0.1134 -0.1038
   11HTM    C5117480   9.222   9.824   2.809  0.7854  0.0445 -0.3378
   11HTM    C5217481   9.262   9.932   2.882  0.6440 -0.0839 -0.0665
   11HTM    C5317482   9.372   9.906   2.970  0.4771 -0.2383  0.0982
   11HTM    C5417483   9.417   9.777   2.965  0.4909 -0.2276 -0.0475
   11HTM     S617484   9.323   9.679   2.847  0.7177 -0.0202 -0.4068
   12TAL    C5517485   9.411  10.005   3.071  0.4256 -0.9710  0.1685
   12TAL    C5617486   9.502  10.119   3.020 -0.4883 -0.6274  0.9582
   12TAL    C5717487   9.532  10.215   3.129  0.0572 -0.4091  0.4392
   12TAL    C5817488   9.573  10.157   3.253 -0.1163  0.2601  0.7369
   12TAL    C5917489   9.608  10.244   3.374 -0.1652  0.5578 -0.4294
   12TAL    C6017490   9.481  10.293   3.454 -0.2415 -0.3858 -0.6647
   13HTM    C6117491   9.519   9.712   3.036 -0.2951 -0.0421  0.3206
   13HTM    C6217492   9.499   9.586   3.085 -0.0675 -0.0591  0.3704
   13HTM    C6317493   9.601   9.544   3.178  0.2072  0.0215  0.1121
   13HTM    C6417494   9.698   9.637   3.200  0.1885  0.1008 -0.1348
   13HTM     S717495   9.668   9.787   3.104 -0.1800  0.0787 -0.0595
   14TAL    C6517496   9.607   9.410   3.239  0.8864 -0.2614  0.6910
   14TAL    C6617497   9.494   9.348   3.328 -0.6833  0.3981 -0.0707
   14TAL    C6717498   9.517   9.400   3.466  0.4863  0.3799  0.2824
   14TAL    C6817499   9.382   9.393   3.535 -1.0366  0.1588 -1.0382
   14TAL    C6917500   9.403   9.417   3.681 -0.5000  0.4275 -0.0513
   14TAL    C7017501   9.279   9.459   3.753  0.4957 -0.3222 -0.1863
   15HTM    C7117502   9.805   9.643   3.302 -0.3071 -0.2813 -0.1377
   15HTM    C7217503   9.923   9.711   3.292 -0.1946 -0.5083 -0.4019
   15HTM    C7317504  10.004   9.704   3.411 -0.1125 -0.3557 -0.4483
   15HTM    C7417505   9.948   9.630   3.511 -0.1625 -0.0118 -0.2196
   15HTM     S817506   9.788   9.563   3.463 -0.3183  0.1463  0.0744
   16TAL    C7517507  10.137   9.770   3.421 -0.0668  0.6055 -0.8255
   16TAL    C7617508  10.163   9.922   3.412  0.7752 -0.0321  0.7853
   16TAL    C7717509  10.087  10.011   3.510 -0.3101  0.8004  0.1420
   16TAL    C7817510  10.144  10.147   3.519 -0.3993  0.7455  0.5977
   16TAL    C7917511  10.099  10.199   3.646 -0.7260 -0.8338  0.2940
   16TAL    C8017512  10.000  10.310   3.607 -0.2497 -0.9470 -1.2198
   17HTM    C8117513  10.028   9.567   3.616 -0.0211 -0.2726 -0.2018
   17HTM    C8217514  10.051   9.615   3.741  0.4391 -0.3271 -0.2624
   17HTM    C8317515  10.100   9.516   3.834  0.4415 -0.4473 -0.3912
   17HTM    C8417516  10.113   9.392   3.779 -0.0170 -0.4847 -0.4289
   17HTM     S917517  10.066   9.390   3.605 -0.4909 -0.3696 -0.3035
   18TAL    C8517518  10.121   9.569   3.979 -0.3706 -0.3752 -0.0887
   18TAL    C8617519  10.221   9.684   3.977 -0.1211 -0.1653  0.5421
   18TAL    C8717520  10.283   9.737   4.104 -0.3477  0.2696 -0.5281
   18TAL    C8817521  10.397   9.836   4.086 -0.0252 -0.7890 -0.6199
   18TAL    C8917522  10.435   9.886   4.227  1.6448 -0.9857 -0.1828
   18TAL    C9017523  10.546   9.981   4.226 -0.4494  0.0349  1.4411
   19HTM    C9117524  10.178   9.276   3.842 -0.2023  0.1720 -0.5797
   19HTM    C9217525  10.314   9.264   3.847 -0.1751  0.3638 -0.8135
   19HTM    C9317526  10.359   9.143   3.910  0.1081  0.5646 -0.6257
   19HTM    C9417527  10.257   9.063   3.954  0.2969  0.5259 -0.2486
   19HTM    S1017528  10.096   9.135   3.918  0.1303  0.2304 -0.1004
   20TAL    C9517529  10.517   9.123   3.932 -0.4118 -0.5778 -0.6396
   20TAL    C9617530  10.610   9.252   3.935  0.7471 -0.1781 -0.5660
   20TAL    C9717531  10.753   9.211   3.914 -0.1490 -1.2743 -0.3669
   20TAL    C9817532  10.857   9.321   3.885 -0.2884 -0.5742 -0.1627
   20TAL    C9917533  11.000   9.293   3.926  0.4175  0.8447 -0.1603
   20TAL   C10017534  11.095   9.403   3.890  0.0144  0.4063 -0.6765
   21HTM   C10117535  10.249   8.933   4.023  0.2153 -0.1864 -0.5050
   21HTM   C10217536  10.139   8.890   4.092  0.1013 -0.1030 -0.6330
   21HTM   C10317537  10.144   8.750   4.127  0.1076 -0.0286 -0.3353
   21HTM   C10417538  10.258   8.687   4.086  0.2264 -0.0551  0.0195
   21HTM    S1117539  10.368   8.800   3.997  0.3404 -0.1769  0.0053
   22TAL   C10517540  10.045   8.674   4.213 -0.3426 -0.4153 -0.0247
   22TAL   C10617541  10.035   8.713   4.352  0.2937  0.6284 -0.5476
   22TAL   C10717542   9.979   8.851   4.388  0.5334  0.3436 -0.1903
   22TAL   C10817543   9.853   8.901   4.326  1.2955  0.1197 -0.2000
   22TAL   C10917544   9.737   8.890   4.429 -0.0768  0.2610  0.7792
   22TAL   C11017545   9.603   8.927   4.353 -0.1327  0.8147 -0.0130
   23HTM   C11117546  10.311   8.552   4.093  0.2961 -0.0491 -0.1361
   23HTM   C11217547  10.433   8.504   4.059  0.0743 -0.3519 -0.5205
   23HTM   C11317548  10.446   8.361   4.076 -0.3420 -0.4399 -0.9274
   23HTM   C11417549  10.333   8.301   4.122 -0.4376 -0.2042 -0.8533
   23HTM    S1217550  10.200   8.421   4.149 -0.0060  0.1500 -0.2591
   24TAL   C11517551  10.569   8.292   4.030  0.0843  0.0267  0.2725
   24TAL   C11617552  10.671   8.371   3.959 -0.4335  0.7468 -0.8795
   24TAL   C11717553  10.808   8.305   3.984  0.0758  0.1668  1.1424
   24TAL   C11817554  10.856   8.180   3.902  0.0020 -0.4119 -0.1717
   24TAL   C11917555  10.910   8.204   3.759  0.4771  0.3414  0.5589
   24TAL   C12017556  10.971   8.069   3.697  0.4834 -1.0342 -0.5978
   25HTM   C12117557  10.304   8.163   4.123 -0.1089  0.0166 -0.6696
   25HTM   C12217558  10.370   8.070   4.197  0.1321  0.2408 -0.5988
   25HTM   C12317559  10.307   7.940   4.197  0.2679  0.1724 -0.2061
   25HTM   C12417560  10.192   7.935   4.124  0.1306 -0.1040  0.0224
   25HTM    S1317561  10.155   8.094   4.048 -0.1834 -0.3009 -0.2424
   26TAL   C12517562  10.360   7.816   4.283 -0.3364 -0.2998 -0.9534
   26TAL   C12617563  10.438   7.691   4.214 -0.2734 -0.3356  0.0616
   26TAL   C12717564  10.548   7.736   4.119 -0.9846 -0.4390  0.0443
   26TAL   C12817565  10.605   7.635   4.034 -0.6613  1.1332  0.1586
   26TAL   C12917566  10.671   7.708   3.908  0.0539  0.4449  0.2738
   26TAL   C13017567  10.752   7.599   3.836 -0.3681  1.5954  0.8681
   27HTM   C13117568  10.080   7.846   4.089 -0.3791  0.2506  0.6654
   27HTM   C13217569   9.958   7.817   4.140 -0.4509  0.3061  0.5265
   27HTM   C13317570   9.892   7.707   4.074 -0.6006  0.5943  0.1884
   27HTM   C13417571   9.964   7.652   3.973 -0.6430  0.7583  0.0691
   27HTM    S1417572  10.123   7.736   3.952 -0.4959  0.5603  0.3772
   28TAL   C13517573   9.750   7.654   4.130 -0.0988 -0.2737  0.3877
   28TAL   C13617574   9.739   7.575   4.263 -0.9125 -0.0289  0.5290
   28TAL   C13717575   9.594   7.556   4.298 -0.1024  0.4468  0.9513
   28TAL   C13817576   9.506   7.678   4.319 -1.4090 -1.1231  0.7828
   28TAL   C13917577   9.357   7.662   4.333 -0.7901  0.2425 -0.3691
   28TAL   C14017578   9.272   7.790   4.344 -0.0669  0.6220 -0.4898
   29HTM   C14117579   9.937   7.539   3.876 -0.3205 -0.0294  0.3242
   29HTM   C14217580  10.014   7.514   3.766  0.2789  0.0432  0.7193
   29HTM   C14317581   9.984   7.388   3.702  0.7969 -0.0298  0.6159
   29HTM   C14417582   9.885   7.318   3.763  0.5926 -0.1579  0.1420
   29HTM    S1517583   9.820   7.405   3.907 -0.2767 -0.1965 -0.2133
   30TAL   C14517584  10.050   7.350   3.575 -0.8080  0.1376  0.0890
   30TAL   C14617585   9.979   7.288   3.457  0.3530  0.1123 -0.0280
   30TAL   C14717586   9.886   7.384   3.378  0.7889  0.7191 -0.7330
   30TAL   C14817587   9.730   7.373   3.413 -0.6739  0.6483 -0.3772
   30TAL   C14917588   9.664   7.499   3.370  0.1957 -0.5991  0.1051
   30TAL   C15017589   9.524   7.501   3.410  1.1013  0.0618  0.0725
   31HTM   C15117590   9.834   7.182   3.734 -0.0683 -0.2793  0.1479
   31HTM   C15217591   9.703   7.151   3.712 -0.0141 -0.0790 -0.5156
   31HTM   C15317592   9.679   7.010   3.692 -0.1023 -0.0172 -0.8518
   31HTM   C15417593   9.792   6.934   3.698 -0.2238 -0.1702 -0.4448
   31HTM    S1617594   9.939   7.035   3.730 -0.2362 -0.4061  0.4015
   32TAL   C15517595   9.547   6.947   3.650  0.0930  0.7433  0.0968
   32TAL   C15617596   9.408   6.984   3.732 -1.2793  0.4648  0.3027
   32TAL   C15717597   9.405   6.966   3.887 -0.0936 -0.4355  0.2097
   32TAL   C15817598   9.442   7.101   3.961  0.3089  0.2056  0.5674
   32TAL   C15917599   9.439   7.080   4.114 -0.2391 -0.7682  0.0485
   32TAL   C16017600   9.511   7.206   4.175 -0.1365  1.2092  0.5882
   33HTM   C16117601   9.809   6.794   3.680 -1.1329 -0.2716  0.0124
   33HTM   C16217602   9.815   6.692   3.770 -1.2365 -0.4723 -0.2072
   33HTM   C16317603   9.858   6.567   3.712 -0.5136 -0.1874 -0.3099
   33HTM   C16417604   9.884   6.574   3.579  0.1413  0.2307 -0.1687
   33HTM    S1717605   9.857   6.741   3.515 -0.1062  0.2975  0.1070
   34TAL   C16517606   9.873   6.441   3.802  0.1924 -1.0969  0.2972
   34TAL   C16617607   9.866   6.448   3.958  0.7273 -0.5724  0.6210
   34TAL   C16717608   9.873   6.298   4.006  0.2629  0.2530  0.7254
   34TAL   C16817609   9.746   6.205   4.003 -0.4475  0.0324  0.5045
   34TAL   C16917610   9.756   6.092   4.106  0.4885 -0.1053  0.6841
   34TAL   C17017611   9.689   5.968   4.070  1.1951 -0.3565  0.2434
   35HTM   C17117612   9.939   6.478   3.489  0.1477 -0.2609  0.1345
   35HTM   C17217613   9.981   6.513   3.364 -0.2190 -0.1905  0.0286
   35HTM   C17317614  10.037   6.403   3.290 -0.3624 -0.1308 -0.1690
   35HTM   C17417615  10.039   6.285   3.358 -0.1051 -0.1555 -0.2137
   35HTM    S1817616   9.968   6.303   3.523  0.3418 -0.2570 -0.0082
   36TAL   C17517617  10.073   6.421   3.137 -1.1304  0.4018  0.1009
   36TAL   C17617618  10.002   6.527   3.055  0.3698 -0.6796 -0.4710
   36TAL   C17717619   9.980   6.493   2.912  0.2594 -0.9132  0.2605
   36TAL   C17817620   9.857   6.414   2.864 -0.5616 -0.4677 -1.3949
   36TAL   C17917621   9.900   6.373   2.732 -0.2177 -0.5342  0.1930
   36TAL   C18017622   9.804   6.276   2.667 -0.0470 -0.7951  0.5382
   37HTM   C18117623  10.104   6.164   3.329  0.3025  0.7403 -0.3441
   37HTM   C18217624  10.027   6.052   3.330 -0.0178  0.9583 -0.0781
   37HTM   C18317625  10.080   5.944   3.250 -0.1232  0.4801  0.4838
   37HTM   C18417626  10.198   5.974   3.189  0.1166 -0.1025  0.6462
   37HTM    S1917627  10.252   6.142   3.228  0.4973 -0.0920  0.0979
   38TAL   C18517628  10.004   5.808   3.229  1.8556  0.2473 -0.6482
   38TAL   C18617629   9.860   5.821   3.158 -0.6802  0.1639 -0.1931
   38TAL   C18717630   9.850   5.906   3.034 -0.1057  0.4929  0.2086
   38TAL   C18817631   9.705   5.900   2.980 -0.5113  0.5425  0.5777
   38TAL   C18917632   9.682   5.927   2.832 -0.6457 -0.4488  0.1114
   38TAL   C19017633   9.545   5.981   2.812 -0.7880 -0.1496 -0.2311
   39HTM   C19117634  10.286   5.911   3.094 -0.1743  1.1041  0.1600
   39HTM   C19217635  10.353   5.793   3.110 -0.0625  1.2696  1.0396
   39HTM   C19317636  10.454   5.770   3.010 -0.1938  0.5243  1.0692
   39HTM   C19417637  10.465   5.870   2.918 -0.4058 -0.2096  0.2123
   39HTM    S2017638  10.347   6.003   2.951 -0.4563 -0.0148 -0.7057
   40TAL   C19517639  10.544   5.638   3.039  0.9773 -0.3131 -0.3399
   40TAL   C19617640  10.605   5.546   2.939 -0.6401  0.3876  0.1831
   40TAL   C19717641  10.510   5.432   2.900  0.4086  0.1423  0.3304
   40TAL   C19817642  10.464   5.437   2.757 -0.3917 -0.5037  0.6141
   40TAL   C19917643  10.390   5.562   2.702  0.2120  1.6302 -0.4040
   40TAL   C20017644  10.315   5.549   2.566 -0.7995 -0.6567  0.1870
   41HTM   C20117645  10.556   5.901   2.810  0.0498 -0.6177 -0.1644
   41HTM   C20217646  10.527   5.967   2.694 -0.3784 -0.7489 -0.1339
   41HTM   C20317647  10.640   5.987   2.608 -0.5905 -0.3681 -0.3309
   41HTM   C20417648  10.757   5.937   2.658 -0.3239  0.0536 -0.5118
   41HTM    S2117649  10.731   5.859   2.819  0.2198  0.0018 -0.4468
   42TAL   C20517650  10.645   6.065   2.479 -0.0284 -0.0684  0.4446
   42TAL   C20617651  10.586   6.207   2.462  0.6174  0.1491 -1.6207
   42TAL   C20717652  10.540   6.256   2.328 -0.1208 -0.7693  0.4846
   42TAL   C20817653  10.396   6.236   2.330 -0.0727 -0.1556 -0.0229
   42TAL   C20917654  10.315   6.269   2.205 -0.4125  0.2765 -0.1770
   42TAL   C21017655  10.181   6.188   2.217 -0.5955  0.8516  0.5841
   43HTM   C21117656  10.897   5.944   2.620 -0.1502 -0.0366  0.0605
   43HTM   C21217657  10.993   6.007   2.694 -0.0525 -0.3519  0.2035
   43HTM   C21317658  11.122   6.011   2.630 -0.0417 -0.4214  0.2204
   43HTM   C21417659  11.124   5.951   2.507 -0.1313 -0.1589  0.0903
   43HTM    S2217660  10.962   5.885   2.463 -0.2370  0.1990 -0.0651
   44TAL   C21517661  11.241   6.096   2.684  0.7833 -0.4315  1.0808
   44TAL   C21617662  11.216   6.256   2.694  0.1074  0.0710 -0.2261
   44TAL   C21717663  11.241   6.288   2.844  0.0331  0.5237  0.3078
   44TAL   C21817664  11.245   6.432   2.870  0.4752 -1.2394 -0.2682
   44TAL   C21917665  11.317   6.472   2.998  0.4686 -0.6467 -0.2752
   44TAL   C22017666  11.224   6.542   3.091 -0.0067  0.7500  0.3945
   45HTM   C22117667  11.232   5.924   2.408  0.3227 -0.3496  0.7143
   45HTM   C22217668  11.237   5.814   2.327  0.4704 -0.5673  1.0138
   45HTM   C22317669  11.359   5.804   2.251  0.2991 -0.3628  0.7057
   45HTM   C22417670  11.447   5.906   2.275  0.0207  0.0110  0.1711
   45HTM    S2317671  11.382   6.023   2.395 -0.0472  0.1347  0.0144
   46TAL   C22517672  11.367   5.698   2.144 -0.1186  0.2065 -0.1081
   46TAL   C22617673  11.251   5.685   2.049  0.8779  0.6044 -0.3086
   46TAL   C22717674  11.206   5.544   2.018 -0.1996 -0.5403  0.1157
   46TAL   C22817675  11.078   5.485   2.059  0.3020  1.0946 -0.9737
   46TAL   C22917676  11.013   5.391   1.964 -0.7092  0.6530  0.0911
   46TAL   C23017677  11.036   5.236   1.987 -0.0934  0.8204  0.6108
   47HTM   C23117678  11.584   5.922   2.230 -0.1116 -0.0162  0.3677
   47HTM   C23217679  11.664   6.013   2.293 -0.1414  0.0998  0.2369
   47HTM   C23317680  11.800   6.014   2.245 -0.1727  0.1625  0.1486
   47HTM   C23417681  11.824   5.924   2.146 -0.1668  0.0945  0.2123
   47HTM    S2417682  11.675   5.829   2.105 -0.1210 -0.0554  0.3900
   48TAL   C23517683  11.912   6.108   2.294 -0.2606 -0.2728  0.6961
   48TAL   C23617684  11.895   6.259   2.281  0.1923 -1.0315  0.1792
   48TAL   C23717685  11.864   6.296   2.132 -0.2107 -0.3610 -0.1641
   48TAL   C23817686  11.818   6.442   2.120  0.3580  0.9744 -0.4491
   48TAL   C23917687  11.789   6.478   1.980 -0.0705  1.3315  0.5582
   48TAL   C24017688  11.739   6.628   1.963 -0.5919  1.0625  0.2304
    1HTM     C117689   1.038   4.230   6.256 -0.1740 -0.4332 -0.2764
    1HTM     C217690   0.994   4.259   6.130  0.0754 -1.3511 -0.5921
    1HTM     C317691   1.096   4.313   6.044  0.1585 -1.6410 -0.6807
    1HTM     C417692   1.217   4.326   6.105 -0.0275 -0.9438 -0.4326
    1HTM     S117693   1.213   4.269   6.276 -0.3243  0.1409 -0.0647
    2TAL     C517694   1.060   4.363   5.905  0.0313 -0.5345 -0.5988
    2TAL     C617695   1.084   4.264   5.792  0.7952 -0.2041  0.8255
    2TAL     C717696   1.225   4.212   5.772 -0.0828  0.0521 -0.4023
    2TAL     C817697   1.269   4.106   5.679  0.5426 -0.2133  0.1137
    2TAL     C917698   1.179   3.987   5.644  0.0825  0.7145 -0.3064
    2TAL    C1017699   1.144   3.891   5.754 -0.6691  0.5278 -0.0960
    3HTM    C1117700   1.337   4.383   6.061 -0.6414  0.3265  0.6377
    3HTM    C1217701   1.362   4.481   5.970 -0.5927  0.2717  0.5924
    3HTM    C1317702   1.499   4.528   5.971 -0.3752 -0.3238  0.0561
    3HTM    C1417703   1.577   4.465   6.063 -0.2582 -0.7230 -0.3072
    3HTM     S217704   1.485   4.342   6.157 -0.4147 -0.3752  0.0019
    4TAL    C1517705   1.541   4.633   5.873  0.0194  0.3098 -0.2347
    4TAL    C1617706   1.450   4.717   5.784 -0.4572 -1.0371 -0.3872
    4TAL    C1717707   1.450   4.685   5.636 -0.9047 -0.2083  0.1479
    4TAL    C1817708   1.404   4.552   5.572  0.5215 -0.1278  0.7286
    4TAL    C1917709   1.474   4.418   5.622  0.8620  0.4416 -0.2279
    4TAL    C2017710   1.593   4.365   5.543 -0.3390  0.1633  0.0412
    5HTM    C2117711   1.717   4.481   6.099  0.2268 -0.3921 -0.4972
    5HTM    C2217712   1.770   4.464   6.223  0.3525 -0.8487 -0.6063
    5HTM    C2317713   1.909   4.499   6.233  0.3243 -0.7421 -0.5856
    5HTM    C2417714   1.963   4.543   6.115  0.1772 -0.2040 -0.4606
    5HTM     S317715   1.841   4.542   5.982  0.0619  0.2129 -0.3587
    6TAL    C2517716   1.987   4.492   6.367  0.3646  0.8107  0.2615
    6TAL    C2617717   1.947   4.393   6.469 -0.4639 -1.4829 -0.4137
    6TAL    C2717718   1.997   4.448   6.602 -0.1404 -0.2690 -0.4726
    6TAL    C2817719   2.007   4.330   6.701 -1.0810 -0.2226 -0.1900
    6TAL    C2917720   2.103   4.339   6.821 -0.5914  1.0029 -0.1838
    6TAL    C3017721   2.248   4.390   6.791  0.5854 -0.6437  0.2753
    7HTM    C3117722   2.094   4.597   6.087  0.1631 -0.6553  0.1707
    7HTM    C3217723   2.123   4.717   6.028 -0.2656 -0.7482 -0.2447
    7HTM    C3317724   2.264   4.741   6.012 -0.3543 -0.3632 -0.4606
    7HTM    C3417725   2.343   4.640   6.057  0.0068  0.0232 -0.2099
    7HTM     S417726   2.244   4.505   6.125  0.4905 -0.0697  0.3226
    8TAL    C3517727   2.322   4.867   5.953 -0.6125 -0.5878 -0.4405
    8TAL    C3617728   2.247   4.972   5.873 -0.2179  0.1800 -0.0226
    8TAL    C3717729   2.273   4.949   5.723  0.2481 -1.1814  0.1852
    8TAL    C3817730   2.411   4.935   5.666  0.8133 -0.2624  0.5135
    8TAL    C3917731   2.393   4.954   5.519  0.3562 -0.7295  1.0137
    8TAL    C4017732   2.526   5.018   5.489 -0.0597 -0.3542 -0.2898
    9HTM    C4117733   2.494   4.620   6.052 -0.0126  0.2385  0.1021
    9HTM    C4217734   2.598   4.706   6.034 -0.0949  0.1117 -1.1284
    9HTM    C4317735   2.728   4.644   6.044 -0.0305  0.1005 -1.8781
    9HTM    C4417736   2.723   4.510   6.071  0.1009  0.2187 -1.2194
    9HTM     S517737   2.553   4.452   6.084  0.1538  0.3543  0.4117
   10TAL    C4517738   2.858   4.726   6.046  0.8464 -0.4043 -0.4842
   10TAL    C4617739   2.942   4.720   5.919 -0.9252  0.4748  1.4057
   10TAL    C4717740   2.995   4.836   5.830  0.4430  0.9533 -0.7979
   10TAL    C4817741   2.891   4.923   5.777  0.2221  0.2278 -0.0458
   10TAL    C4917742   2.967   5.021   5.681 -0.4129  0.7405 -0.3377
   10TAL    C5017743   2.893   5.122   5.598 -0.3183  0.1062  0.5965
   11HTM    C5117744   2.828   4.412   6.092 -0.2188 -0.0759  0.4069
   11HTM    C5217745   2.815   4.277   6.077  0.0072 -0.0627  0.0613
   11HTM    C5317746   2.931   4.203   6.120  0.0978  0.0173 -0.0468
   11HTM    C5417747   3.032   4.282   6.166 -0.0590  0.0650  0.2164
   11HTM     S617748   2.988   4.457   6.160 -0.3355  0.0126  0.6244
   12TAL    C5517749   2.925   4.057   6.120  0.0638  0.0461 -0.0215
   12TAL    C5617750   2.822   3.988   6.213 -0.0016 -0.0439 -0.0419
   12TAL    C5717751   2.693   3.925   6.149 -0.2540 -0.7538 -0.3005
   12TAL    C5817752   2.617   3.843   6.248  0.2808  0.6373  0.6004
   12TAL    C5917753   2.696   3.719   6.328  0.2915 -1.0144  0.4220
   12TAL    C6017754   2.608   3.665   6.445  0.0210  0.7476  0.7068
   13HTM    C6117755   3.177   4.257   6.182  0.5909 -0.5549 -0.3529
   13HTM    C6217756   3.254   4.164   6.118  1.0126 -0.5393  0.1117
   13HTM    C6317757   3.395   4.176   6.145  0.8940 -0.2174  0.6154
   13HTM    C6417758   3.426   4.278   6.230  0.3820  0.0124  0.5348
   13HTM     S717759   3.278   4.367   6.283  0.0069 -0.1612 -0.1890
   14TAL    C6517760   3.481   4.075   6.075 -0.2830 -0.5245  0.1816
   14TAL    C6617761   3.508   4.107   5.929 -0.0737 -0.8050  0.2590
   14TAL    C6717762   3.644   4.072   5.868  0.2971  0.4603  0.7993
   14TAL    C6817763   3.763   4.163   5.883  1.3923 -0.6504 -0.1473
   14TAL    C6917764   3.839   4.178   5.753 -0.2847 -0.4140  1.0286
   14TAL    C7017765   3.924   4.297   5.755  0.5012  0.2972 -0.3522
   15HTM    C7117766   3.548   4.310   6.301  0.4340 -0.0941  0.1123
   15HTM    C7217767   3.556   4.418   6.384  0.4297 -0.3700  0.4783
   15HTM    C7317768   3.690   4.444   6.431  0.4619 -0.4065  0.4083
   15HTM    C7417769   3.783   4.356   6.385  0.4906 -0.1584 -0.0110
   15HTM     S817770   3.709   4.232   6.277  0.4792  0.1428 -0.3526
   16TAL    C7517771   3.733   4.538   6.540  0.1595 -0.7163  0.2482
   16TAL    C7617772   3.724   4.496   6.683  0.3642  0.1195 -0.0721
   16TAL    C7717773   3.683   4.358   6.745 -0.7852  0.3277 -0.1410
   16TAL    C7817774   3.809   4.296   6.810  0.3786 -0.3679  1.0018
   16TAL    C7917775   3.772   4.189   6.914  0.3664 -0.0799 -0.1560
   16TAL    C8017776   3.887   4.122   6.980 -0.7570 -0.6646 -0.7008
   17HTM    C8117777   3.930   4.356   6.410  0.8345  0.2585 -0.4764
   17HTM    C8217778   4.012   4.276   6.336  0.9861  0.3775 -0.4388
   17HTM    C8317779   4.147   4.269   6.386  0.8136  0.0668 -0.0001
   17HTM    C8417780   4.168   4.344   6.498  0.5306 -0.2893  0.2970
   17HTM     S917781   4.017   4.429   6.550  0.4597 -0.2594  0.0434
   18TAL    C8517782   4.241   4.183   6.306 -0.1362  1.0839 -0.5144
   18TAL    C8617783   4.273   4.218   6.159 -0.0409  0.7026 -0.0834
   18TAL    C8717784   4.334   4.111   6.088 -0.3355  1.0923  0.6414
   18TAL    C8817785   4.340   4.131   5.937  1.2564  1.5684  0.9138
   18TAL    C8917786   4.404   4.009   5.879  0.6781  0.8901 -0.0371
   18TAL    C9017787   4.444   4.008   5.726  0.1158 -0.8585 -0.1918
   19HTM    C9117788   4.285   4.371   6.575 -0.1483  0.3522  0.0369
   19HTM    C9217789   4.413   4.396   6.536 -0.1664  0.4680  0.0517
   19HTM    C9317790   4.493   4.462   6.636 -0.2543  0.5916  0.0409
   19HTM    C9417791   4.426   4.487   6.752 -0.3031  0.5702  0.0176
   19HTM    S1017792   4.255   4.428   6.744 -0.2413  0.3906  0.0075
   20TAL    C9517793   4.638   4.502   6.609  0.8171 -0.5875  0.8645
   20TAL    C9617794   4.665   4.626   6.512 -0.3950  1.0582  0.0284
   20TAL    C9717795   4.623   4.766   6.554  0.6693 -0.0256 -0.0022
   20TAL    C9817796   4.648   4.885   6.463 -0.0161  0.9502  0.1679
   20TAL    C9917797   4.578   4.895   6.324 -0.2133  0.2720  0.5001
   20TAL   C10017798   4.682   4.918   6.219 -0.4258 -0.6534 -0.5404
   21HTM   C10117799   4.475   4.542   6.875 -0.0757  0.0485 -0.2101
   21HTM   C10217800   4.600   4.581   6.911 -0.0978  0.1436 -0.2350
   21HTM   C10317801   4.606   4.645   7.040 -0.0753 -0.1347 -0.0962
   21HTM   C10417802   4.485   4.655   7.102 -0.0362 -0.4421  0.0346
   21HTM    S1117803   4.353   4.584   7.001 -0.0246 -0.4039 -0.0077
   22TAL   C10517804   4.743   4.687   7.108  1.5305 -0.6201  0.0142
   22TAL   C10617805   4.884   4.698   7.037 -0.5451 -0.1230  0.1242
   22TAL   C10717806   4.976   4.803   7.099  0.0853 -0.6656 -0.2768
   22TAL   C10817807   5.127   4.812   7.067  0.1971  0.1676 -0.0582
   22TAL   C10917808   5.168   4.864   6.927 -0.2568 -0.3248 -1.2492
   22TAL   C11017809   5.304   4.851   6.894 -1.1022  0.2327 -0.3989
   23HTM   C11117810   4.441   4.699   7.232  0.6605 -0.6492 -0.1863
   23HTM   C11217811   4.313   4.688   7.278  0.6003 -1.2885 -0.4838
   23HTM   C11317812   4.297   4.731   7.414  0.0459 -1.2507 -0.5572
   23HTM   C11417813   4.412   4.775   7.472 -0.3166 -0.5823 -0.3159
   23HTM    S1217814   4.552   4.765   7.358  0.0165  0.0559  0.0254
   24TAL   C11517815   4.171   4.738   7.492  0.1171 -0.0896 -0.2300
   24TAL   C11617816   4.056   4.687   7.412  0.6677 -0.3440 -0.5101
   24TAL   C11717817   3.936   4.620   7.489 -0.3113 -0.7878  0.0579
   24TAL   C11817818   3.839   4.565   7.398 -0.1193  0.4674  0.5086
   24TAL   C11917819   3.737   4.661   7.357  0.1454  0.1528  0.2094
   24TAL   C12017820   3.635   4.597   7.274  0.0579 -0.3590  0.9106
   25HTM   C12117821   4.453   4.817   7.613  0.0750 -0.2788 -0.3155
   25HTM   C12217822   4.453   4.938   7.674  0.1119 -0.0013 -0.8521
   25HTM   C12317823   4.520   4.939   7.801  0.0582  0.5261 -0.8223
   25HTM   C12417824   4.572   4.818   7.837 -0.0199  0.6508 -0.2629
   25HTM    S1317825   4.539   4.693   7.711 -0.0316  0.1077  0.2736
   26TAL   C12517826   4.532   5.067   7.887  0.5482 -0.1411  0.3941
   26TAL   C12617827   4.398   5.107   7.962 -0.4219 -0.4343 -0.1307
   26TAL   C12717828   4.398   5.252   8.025  0.8142 -0.0345  0.8444
   26TAL   C12817829   4.444   5.230   8.168  0.7947  0.7113  0.5828
   26TAL   C12917830   4.432   5.338   8.271 -0.7054 -0.0877  0.0430
   26TAL   C13017831   4.303   5.417   8.285  0.3942  0.1698  1.5451
   27HTM   C13117832   4.651   4.767   7.953  0.5335  0.3338 -0.1141
   27HTM   C13217833   4.692   4.834   8.065  0.7048  0.0865 -0.0255
   27HTM   C13317834   4.776   4.756   8.152 -0.0008 -0.4581  0.1895
   27HTM   C13417835   4.800   4.630   8.107 -0.7098 -0.6260  0.2651
   27HTM    S1417836   4.717   4.599   7.950 -0.5404 -0.1055  0.0690
   28TAL   C13517837   4.836   4.830   8.272  0.3326 -0.3908 -0.0426
   28TAL   C13617838   4.962   4.788   8.345 -0.1438  0.1426  0.6036
   28TAL   C13717839   5.043   4.896   8.393  0.9876 -0.7596  0.3391
   28TAL   C13817840   5.154   4.866   8.498  1.0780  0.1266  0.4592
   28TAL   C13917841   5.231   4.983   8.551 -0.4383  0.0767  0.2088
   28TAL   C14017842   5.308   4.943   8.676  0.6292  0.4628  0.2525
   29HTM   C14117843   4.860   4.520   8.181  1.2958 -0.0438  0.1695
   29HTM   C14217844   4.993   4.497   8.200  1.2190 -0.5524  0.1051
   29HTM   C14317845   5.021   4.381   8.281  0.8165 -0.6350  0.1283
   29HTM   C14417846   4.909   4.317   8.324  0.5863 -0.1895  0.2108
   29HTM    S1517847   4.758   4.397   8.265  0.8621  0.3735  0.2654
   30TAL   C14517848   5.164   4.337   8.323 -0.7718  0.5672  0.6099
   30TAL   C14617849   5.276   4.435   8.328  0.2770  0.0721 -0.3850
   30TAL   C14717850   5.393   4.352   8.381  0.5879  0.3195 -1.1003
   30TAL   C14817851   5.530   4.382   8.327 -0.2178 -0.5878  0.1391
   30TAL   C14917852   5.539   4.438   8.182 -0.0900  0.3125 -1.0304
   30TAL   C15017853   5.676   4.422   8.125  0.2377 -0.2347  0.2003
   31HTM   C15117854   4.892   4.207   8.416  0.5633  0.5670  0.1216
   31HTM   C15217855   4.961   4.089   8.424  0.8181  0.7105  0.0734
   31HTM   C15317856   4.940   4.018   8.547  0.7092  0.4567 -0.0896
   31HTM   C15417857   4.856   4.081   8.634  0.3713  0.1196 -0.1662
   31HTM    S1617858   4.796   4.237   8.566  0.1626  0.0961 -0.0368
   32TAL   C15517859   4.986   3.878   8.573  0.7850  0.0074 -0.3558
   32TAL   C15617860   5.100   3.832   8.479 -1.0039 -0.2649 -0.6505
   32TAL   C15717861   5.239   3.897   8.512  0.2276  0.2974 -1.2859
   32TAL   C15817862   5.353   3.837   8.428 -0.3448 -0.4808  0.3766
   32TAL   C15917863   5.491   3.891   8.441  1.2444 -0.3850  0.5035
   32TAL   C16017864   5.536   3.880   8.584 -0.2700  0.6320  1.0689
   33HTM   C16117865   4.801   4.059   8.773  0.2791  0.9888  0.1090
   33HTM   C16217866   4.855   3.975   8.866  0.4095  1.0226  0.0632
   33HTM   C16317867   4.775   3.959   8.984  0.2611  0.5563 -0.0958
   33HTM   C16417868   4.659   4.031   8.982  0.0173  0.1670 -0.1711
   33HTM    S1717869   4.643   4.125   8.829 -0.0441  0.3606 -0.0462
   34TAL   C16517870   4.814   3.866   9.096  0.5938  1.1926  0.0711
   34TAL   C16617871   4.938   3.894   9.177  0.4319  0.4458 -0.8289
   34TAL   C16717872   4.927   4.015   9.267  0.0543  1.2671 -0.0426
   34TAL   C16817873   5.059   4.086   9.308 -0.6819  0.4389 -0.0723
   34TAL   C16917874   5.141   4.014   9.415 -0.6957 -0.2960  1.4440
   34TAL   C17017875   5.079   3.985   9.553  1.1666 -0.5928  0.2601
   35HTM   C17117876   4.547   4.031   9.069 -0.3057  0.0107  0.2833
   35HTM   C17217877   4.471   3.928   9.117 -0.8715  0.2377 -0.0973
   35HTM   C17317878   4.360   3.970   9.198 -1.1346  0.5732 -0.6149
   35HTM   C17417879   4.351   4.105   9.213 -0.7693  0.6017 -0.6294
   35HTM    S1817880   4.483   4.191   9.124 -0.0592  0.2042  0.0148
   36TAL   C17517881   4.266   3.868   9.260  0.5130 -0.0885  0.0026
   36TAL   C17617882   4.326   3.733   9.263 -0.4644  1.4372  0.4205
   36TAL   C17717883   4.221   3.628   9.306 -0.0856 -1.2311 -0.3665
   36TAL   C17817884   4.312   3.508   9.341 -0.1977  0.6406  0.1819
   36TAL   C17917885   4.362   3.524   9.488 -0.1063  0.0270  0.7697
   36TAL   C18017886   4.450   3.431   9.562  0.9711  0.0184 -0.3787
   37HTM   C18117887   4.255   4.179   9.293 -0.0103 -0.1794 -0.3918
   37HTM   C18217888   4.250   4.205   9.427  0.0159 -0.4958 -0.3283
   37HTM   C18317889   4.135   4.281   9.468  0.0451 -0.5550 -0.1338
   37HTM   C18417890   4.051   4.312   9.365  0.0415 -0.2839 -0.0486
   37HTM    S1917891   4.112   4.249   9.208  0.0005  0.0703 -0.2088
   38TAL   C18517892   4.107   4.325   9.611 -0.1912  0.1064 -0.0971
   38TAL   C18617893   4.092   4.197   9.699  0.4432  0.2445  0.5543
   38TAL   C18717894   4.057   4.220   9.838 -0.1393 -0.0413  0.6061
   38TAL   C18817895   4.041   4.082   9.913  1.0309  0.7432  0.4104
   38TAL   C18917896   4.104   4.062  10.043  0.0605  0.0138 -0.1536
   38TAL   C19017897   4.110   3.917  10.074  0.3093  0.3350  0.3969
   39HTM   C19117898   3.921   4.380   9.363  0.1584  0.4900  0.6602
   39HTM   C19217899   3.890   4.494   9.294 -0.0160  0.2680  0.3667
   39HTM   C19317900   3.755   4.539   9.314 -0.1786 -0.0510  0.0124
   39HTM   C19417901   3.682   4.460   9.398 -0.1283 -0.0721  0.0362
   39HTM    S2017902   3.780   4.321   9.459  0.1304  0.3120  0.5109
   40TAL   C19517903   3.693   4.653   9.236  1.3617 -0.7486 -0.2851
   40TAL   C19617904   3.783   4.774   9.183 -0.7961  0.5835 -0.7251
   40TAL   C19717905   3.831   4.752   9.040 -0.5211  0.5493  0.6821
   40TAL   C19817906   3.722   4.718   8.940  0.2574  0.0070 -0.3534
   40TAL   C19917907   3.785   4.710   8.797 -0.4869  0.0578 -1.2211
   40TAL   C20017908   3.683   4.653   8.695 -1.1357  0.1275 -0.1192
   41HTM   C20117909   3.550   4.482   9.454  0.2564 -0.6702  0.5381
   41HTM   C20217910   3.428   4.483   9.393  0.3242 -1.5786  0.3638
   41HTM   C20317911   3.318   4.505   9.483  0.0905 -1.7279  0.1166
   41HTM   C20417912   3.355   4.521   9.613 -0.1554 -0.9337  0.1028
   41HTM    S2117913   3.534   4.509   9.632 -0.1107  0.0725  0.4029
   42TAL   C20517914   3.177   4.505   9.437  0.6608 -0.2114 -0.0674
   42TAL   C20617915   3.109   4.368   9.399  0.0138 -0.8583  0.1538
   42TAL   C20717916   2.958   4.360   9.353  0.6913 -0.4304  0.9371
   42TAL   C20817917   2.923   4.460   9.242  0.7725  0.3952 -1.0649
   42TAL   C20917918   2.986   4.443   9.108  0.4308 -0.8008 -0.1830
   42TAL   C21017919   2.943   4.328   9.017  0.4366 -0.7086  0.2388
   43HTM   C21117920   3.275   4.545   9.725 -0.3925 -0.5364  0.0968
   43HTM   C21217921   3.256   4.447   9.818 -0.8395 -0.4683  0.0796
   43HTM   C21317922   3.185   4.492   9.935 -0.6583 -0.1706  0.0777
   43HTM   C21417923   3.151   4.624   9.932 -0.0731 -0.0115  0.0935
   43HTM    S2217924   3.205   4.703   9.779  0.2974 -0.2272  0.1122
   44TAL   C21517925   3.182   4.401  10.057 -0.2419 -1.0403 -0.2261
   44TAL   C21617926   3.296   4.432  10.144 -0.0476 -0.6070 -0.0356
   44TAL   C21717927   3.315   4.367  10.277  0.7888  0.3492 -0.3470
   44TAL   C21817928   3.203   4.349  10.395 -0.0482  0.1098  0.8910
   44TAL   C21917929   3.085   4.244  10.378 -0.3241 -1.9589  0.1074
   44TAL   C22017930   3.123   4.100  10.330 -0.4131 -0.5374 -0.0880
   45HTM   C22117931   3.100   4.716  10.027 -0.4404 -0.2922 -0.1590
   45HTM   C22217932   3.137   4.847  10.043 -0.0910 -0.3886 -0.1710
   45HTM   C22317933   3.064   4.916  10.146  0.3049 -0.2648  0.0345
   45HTM   C22417934   2.970   4.838  10.208  0.2574 -0.0740  0.2030
   45HTM    S2317935   2.968   4.671  10.141 -0.2954 -0.0353  0.1147
   46TAL   C22517936   3.076   5.071  10.164 -0.4177  0.2440  0.2252
   46TAL   C22617937   3.174   5.151  10.069  0.2927  0.4980  0.5732
   46TAL   C22717938   3.148   5.306  10.094 -0.0206 -0.9362  0.5015
   46TAL   C22817939   3.194   5.400   9.981 -0.4887  0.4722 -0.3950
   46TAL   C22917940   3.190   5.372   9.833  0.2617 -0.8504  0.6811
   46TAL   C23017941   3.250   5.451   9.713  0.7438  0.6752  0.7120
   47HTM   C23117942   2.861   4.876  10.298  0.6630 -0.1963  0.2928
   47HTM   C23217943   2.890   4.953  10.407  0.5125  0.1097  0.1176
   47HTM   C23317944   2.795   4.941  10.514  0.2266  0.6030 -0.0720
   47HTM   C23417945   2.693   4.854  10.488  0.1590  0.6729 -0.0414
   47HTM    S2417946   2.709   4.781  10.324  0.4535  0.1171  0.2315
   48TAL   C23517947   2.814   5.014  10.645 -0.8654  0.6371  1.5601
   48TAL   C23617948   2.889   4.931  10.752  0.4643 -0.0555 -0.3042
   48TAL   C23717949   2.837   4.967  10.894  0.2677  0.1577  0.2860
   48TAL   C23817950   2.927   4.904  11.007  0.1332  0.4694  1.1717
   48TAL   C23917951   3.063   4.947  11.064  0.6221 -0.6018 -0.1066
   48TAL   C24017952   3.176   4.941  10.959 -0.2630 -1.0408 -0.2654
    1HTM     C117953   7.414   9.636   9.718 -0.0991  0.2198  0.0031
    1HTM     C217954   7.527   9.586   9.775 -0.4090 -0.5243 -0.0083
    1HTM     C317955   7.639   9.579   9.685 -0.3766 -0.9539  0.0639
    1HTM     C417956   7.611   9.623   9.559 -0.0419 -0.5372  0.1304
    1HTM     S117957   7.440   9.678   9.544  0.2605  0.4373  0.1075
    2TAL     C517958   7.774   9.518   9.713  0.7602  0.5967  0.5498
    2TAL     C617959   7.790   9.416   9.826  0.3199  0.1384 -0.9829
    2TAL     C717960   7.764   9.271   9.790 -0.2298  0.4756 -0.1129
    2TAL     C817961   7.787   9.180   9.913  0.3548 -0.6004  0.5174
    2TAL     C917962   7.851   9.047   9.872  0.8676  0.6345 -0.0702
    2TAL    C1017963   7.986   9.028   9.814  0.0806  0.5095 -0.5092
    3HTM    C1117964   7.692   9.616   9.434 -0.0635  0.3243 -0.0395
    3HTM    C1217965   7.825   9.633   9.408 -0.0759  0.3262 -0.1020
    3HTM    C1317966   7.859   9.619   9.269 -0.0895 -0.0174 -0.0730
    3HTM    C1417967   7.752   9.592   9.188 -0.0876 -0.2819  0.0118
    3HTM     S217968   7.599   9.582   9.283 -0.0683 -0.1154  0.0617
    4TAL    C1517969   8.006   9.632   9.226  0.1220 -1.7210  0.4561
    4TAL    C1617970   8.107   9.525   9.203 -0.5728  0.4037 -0.0043
    4TAL    C1717971   8.075   9.432   9.089 -0.2445  0.3622  0.4699
    4TAL    C1817972   8.207   9.414   9.007  0.7411  0.7778  0.0122
    4TAL    C1917973   8.193   9.330   8.879 -0.6503  1.7514  0.2606
    4TAL    C2017974   8.299   9.371   8.767 -0.3184 -0.1119 -0.1422
    5HTM    C2117975   7.728   9.589   9.044  0.1497  0.0665 -0.1788
    5HTM    C2217976   7.807   9.539   8.945  0.4321  0.8266 -0.3562
    5HTM    C2317977   7.746   9.541   8.815  0.5505  1.2352 -0.4063
    5HTM    C2417978   7.620   9.594   8.814  0.3583  0.7866 -0.2672
    5HTM     S317979   7.569   9.645   8.979  0.0100 -0.1942 -0.0607
    6TAL    C2517980   7.826   9.523   8.689 -0.6297  0.0918  0.1266
    6TAL    C2617981   7.841   9.375   8.672 -0.5147 -0.1291 -0.5501
    6TAL    C2717982   7.729   9.319   8.596  0.7335  0.5422 -0.5986
    6TAL    C2817983   7.729   9.169   8.588 -0.6172  0.0797  0.2114
    6TAL    C2917984   7.653   9.113   8.466 -0.1526  0.2160 -0.8145
    6TAL    C3017985   7.631   8.958   8.490  0.2901 -0.6446  0.3580
    7HTM    C3117986   7.527   9.640   8.715  0.5630  0.0127  0.0850
    7HTM    C3217987   7.482   9.569   8.607  0.2154  0.0651  0.1926
    7HTM    C3317988   7.371   9.630   8.539 -0.1892 -0.0381  0.7448
    7HTM    C3417989   7.332   9.748   8.594 -0.1503 -0.1691  1.0572
    7HTM     S417990   7.432   9.792   8.738  0.4048 -0.1722  0.6761
    8TAL    C3517991   7.308   9.567   8.416  0.6133  0.9813  0.0575
    8TAL    C3617992   7.387   9.449   8.350  0.6000 -0.4378 -0.1449
    8TAL    C3717993   7.313   9.368   8.242  0.4658  0.1269 -0.1493
    8TAL    C3817994   7.405   9.280   8.156 -0.2933 -0.0989  0.7002
    8TAL    C3917995   7.372   9.128   8.175  0.2494 -0.2886  0.1563
    8TAL    C4017996   7.485   9.055   8.110  0.3206 -0.2691 -0.0684
    9HTM    C4117997   7.214   9.824   8.560 -0.4250 -0.1722  0.1204
    9HTM    C4217998   7.085   9.782   8.571 -0.5345  0.0796 -0.1783
    9HTM    C4317999   6.988   9.886   8.547 -0.2785  0.2520 -0.4728
    9HTM    C4418000   7.044  10.007   8.517  0.0265  0.1317 -0.3992
    9HTM     S518001   7.224   9.999   8.517  0.0137 -0.2114  0.0515
   10TAL    C4518002   6.843   9.871   8.543 -0.1958  0.2142 -0.5980
   10TAL    C4618003   6.749   9.770   8.610 -0.4955  0.9689  0.7725
   10TAL    C4718004   6.601   9.781   8.589 -0.2167 -0.1736 -0.0355
   10TAL    C4818005   6.522   9.910   8.587 -0.2217 -0.2121  0.1698
   10TAL    C4918006   6.384   9.884   8.649  0.2872 -0.5684  0.5935
   10TAL    C5018007   6.306  10.012   8.637 -0.6786  0.2302 -0.3642
   11HTM    C5118008   6.981  10.128   8.489 -0.3828 -0.5989  0.3015
   11HTM    C5218009   6.962  10.169   8.360  0.1889 -0.6519  0.1974
   11HTM    C5318010   6.909  10.302   8.348  0.7071 -0.4687 -0.1087
   11HTM    C5418011   6.888  10.363   8.468  0.5302 -0.2760 -0.2378
   11HTM     S618012   6.933  10.256   8.606 -0.3110 -0.3113  0.0189
   12TAL    C5518013   6.893  10.375   8.221 -0.5869  0.5979  0.2874
   12TAL    C5618014   6.846  10.306   8.088 -0.4641  0.6547 -0.0309
   12TAL    C5718015   6.712  10.226   8.090 -0.0672  0.2202 -0.2551
   12TAL    C5818016   6.595  10.308   8.146  0.0310  0.0297  0.0012
   12TAL    C5918017   6.518  10.233   8.251  1.0195 -0.5950 -0.8169
   12TAL    C6018018   6.454  10.322   8.351  0.3313  0.6186  0.4768
   13HTM    C6118019   6.821  10.495   8.487 -0.2117 -0.0352  0.1918
   13HTM    C6218020   6.852  10.580   8.590 -0.3422 -0.2084  0.3726
   13HTM    C6318021   6.795  10.711   8.575 -0.1379 -0.1163  0.4125
   13HTM    C6418022   6.723  10.728   8.461  0.1485  0.1272  0.2619
   13HTM     S718023   6.719  10.577   8.363  0.1825  0.2601  0.0564
   14TAL    C6518024   6.826  10.814   8.683  0.3819 -0.0838  0.9711
   14TAL    C6618025   6.962  10.882   8.675  0.2743 -0.0507 -0.0657
   14TAL    C6718026   6.998  11.004   8.759  0.9814 -0.3861 -0.4739
   14TAL    C6818027   6.923  11.130   8.717 -0.4517  0.0265  0.6075
   14TAL    C6918028   6.967  11.238   8.821  1.2081  1.0790 -0.0481
   14TAL    C7018029   7.071  11.332   8.765  0.0793  0.1915  0.0497
   15HTM    C7118030   6.624  10.834   8.424 -0.4458  0.2965  0.4021
   15HTM    C7218031   6.625  10.969   8.446 -1.0347  0.1798  1.2164
   15HTM    C7318032   6.508  11.036   8.396 -1.2001  0.0130  1.3733
   15HTM    C7418033   6.418  10.954   8.336 -0.7374  0.0026  0.6789
   15HTM     S818034   6.475  10.782   8.337 -0.0513  0.2041 -0.2344
   16TAL    C7518035   6.492  11.182   8.415 -0.1625 -0.1885 -1.0412
   16TAL    C7618036   6.605  11.281   8.443  0.5072 -0.6046 -0.8189
   16TAL    C7718037   6.531  11.412   8.468  0.4463  0.6555  0.8318
   16TAL    C7818038   6.622  11.514   8.526  0.2071 -0.3594 -0.2408
   16TAL    C7918039   6.556  11.640   8.569  0.7026  0.6620  0.0411
   16TAL    C8018040   6.662  11.710   8.653 -0.0261  0.8557 -0.0574
   17HTM    C8118041   6.280  10.980   8.299 -0.0947  0.0428 -0.2273
   17HTM    C8218042   6.175  10.893   8.310 -0.1142  0.0464 -0.3741
   17HTM    C8318043   6.049  10.948   8.269 -0.1452  0.2293 -0.0441
   17HTM    C8418044   6.057  11.077   8.226 -0.1494  0.3651  0.3545
   17HTM     S918045   6.226  11.140   8.235 -0.1141  0.2719  0.3437
   18TAL    C8518046   5.916  10.870   8.288  0.2696 -0.5063  0.5927
   18TAL    C8618047   5.918  10.750   8.391  0.5704  0.0941 -0.2303
   18TAL    C8718048   5.786  10.660   8.399 -0.6682  1.2224 -0.0140
   18TAL    C8818049   5.772  10.542   8.295 -0.4383  0.8083 -0.1946
   18TAL    C8918050   5.801  10.586   8.149  0.2063 -0.8529 -0.8600
   18TAL    C9018051   5.704  10.521   8.063  0.9863  0.1048 -0.8558
   19HTM    C9118052   5.942  11.172   8.193  0.0919  0.3660  0.5725
   19HTM    C9218053   5.900  11.206   8.068  0.4625  0.0601  0.3622
   19HTM    C9318054   5.771  11.270   8.065  0.1951 -0.4797 -0.2322
   19HTM    C9418055   5.715  11.286   8.189 -0.3792 -0.5854 -0.4746
   19HTM    S1018056   5.821  11.220   8.319 -0.6292 -0.0069  0.0324
   20TAL    C9518057   5.699  11.306   7.930 -0.5656  0.6456  0.6820
   20TAL    C9618058   5.779  11.352   7.802 -0.0750  0.5115  0.0307
   20TAL    C9718059   5.838  11.493   7.781 -0.1494  0.0273  0.1704
   20TAL    C9818060   5.756  11.618   7.821 -0.1204  0.1866 -0.4046
   20TAL    C9918061   5.679  11.684   7.706 -0.2108  0.3098  0.4373
   20TAL   C10018062   5.635  11.823   7.745  1.2578 -0.2550 -0.1263
   21HTM   C10118063   5.590  11.353   8.226  0.3798  0.2210 -0.4430
   21HTM   C10218064   5.564  11.459   8.307  0.4214  0.4694 -0.7493
   21HTM   C10318065   5.424  11.484   8.327  0.4305  0.3389 -0.5128
   21HTM   C10418066   5.342  11.398   8.261  0.3958 -0.0091 -0.0265
   21HTM    S1118067   5.437  11.276   8.167  0.3485 -0.2004  0.1722
   22TAL   C10518068   5.378  11.597   8.426  0.4402  0.4578  0.3419
   22TAL   C10618069   5.441  11.610   8.558 -0.1508  0.1782  0.3300
   22TAL   C10718070   5.391  11.730   8.624 -0.1706  0.0252 -0.2951
   22TAL   C10818071   5.363  11.694   8.776  0.9646 -0.0504  0.4306
   22TAL   C10918072   5.391  11.802   8.881  0.9462 -0.3380  0.6938
   22TAL   C11018073   5.388  11.741   9.026  0.5398  0.7574  0.2710
   23HTM   C11118074   5.197  11.366   8.272 -0.3140 -0.2785  0.6430
   23HTM   C11218075   5.109  11.465   8.239 -0.4444 -0.3152  0.8774
   23HTM   C11318076   4.977  11.418   8.208 -0.2574 -0.4718  0.2842
   23HTM   C11418077   4.964  11.282   8.218  0.0155 -0.5546 -0.4023
   23HTM    S1218078   5.119  11.204   8.266  0.0580 -0.4402 -0.3523
   24TAL   C11518079   4.860  11.515   8.183 -0.9777 -0.5466  0.2667
   24TAL   C11618080   4.892  11.655   8.121  0.7684  0.9060 -0.4452
   24TAL   C11718081   4.896  11.625   7.967 -0.7022  0.6054 -0.2806
   24TAL   C11818082   4.827  11.710   7.853  0.2084  1.0015 -0.8008
   24TAL   C11918083   4.910  11.839   7.813  1.2407  0.9576  0.8196
   24TAL   C12018084   4.814  11.939   7.734  0.3240  1.0648  0.1232
   25HTM   C12118085   4.852  11.192   8.215 -0.0359  0.0561 -0.0794
   25HTM   C12218086   4.818  11.100   8.121 -0.2011  0.0148  0.0200
   25HTM   C12318087   4.691  11.035   8.145 -0.3117  0.2600  0.0954
   25HTM   C12418088   4.629  11.079   8.259 -0.2309  0.4883  0.0536
   25HTM    S1318089   4.726  11.205   8.343 -0.0069  0.4107 -0.0850
   26TAL   C12518090   4.629  10.937   8.043  0.6454  0.0119 -0.3841
   26TAL   C12618091   4.690  10.802   8.029 -0.1886  0.1991 -0.1940
   26TAL   C12718092   4.596  10.710   7.964  0.8224 -0.1240 -0.5462
   26TAL   C12818093   4.564  10.578   8.040  0.0402 -0.8765 -0.1687
   26TAL   C12918094   4.435  10.597   8.133  0.0072 -0.5362 -0.5198
   26TAL   C13018095   4.386  10.504   8.243  0.3734  0.1756 -0.3867
   27HTM   C13118096   4.504  11.038   8.321  0.7627 -0.3253 -0.0843
   27HTM   C13218097   4.435  11.108   8.416  1.0767 -0.4916  0.2761
   27HTM   C13318098   4.305  11.053   8.444  1.0197 -0.3234  0.3393
   27HTM   C13418099   4.275  10.942   8.371  0.6622 -0.0289  0.0270
   27HTM    S1418100   4.410  10.897   8.260  0.3675  0.0596 -0.3740
   28TAL   C13518101   4.218  11.107   8.559 -0.0802  0.0477  0.7132
   28TAL   C13618102   4.147  11.234   8.559  0.1686 -0.4044  0.3759
   28TAL   C13718103   4.104  11.241   8.702 -0.3715 -0.1516 -0.2550
   28TAL   C13818104   4.015  11.357   8.754 -0.3894  0.3792  0.0614
   28TAL   C13918105   4.072  11.497   8.736 -0.1431  0.0151  0.7722
   28TAL   C14018106   3.979  11.585   8.806  0.7542  0.8904  0.0263
   29HTM   C14118107   4.151  10.880   8.357  0.1612  0.3602  0.3423
   29HTM   C14218108   4.099  10.771   8.419 -0.0181  0.5082  0.4520
   29HTM   C14318109   3.967  10.735   8.374  0.0406  0.5059  0.2820
   29HTM   C14418110   3.918  10.817   8.276  0.2648  0.3562  0.0424
   29HTM    S1518111   4.036  10.947   8.234  0.4204  0.2053  0.0125
   30TAL   C14518112   3.908  10.609   8.429  0.3191  0.3004 -0.3198
   30TAL   C14618113   3.990  10.481   8.449 -0.2439  0.9865  0.0394
   30TAL   C14718114   4.056  10.474   8.588 -0.9786 -0.7002 -0.3854
   30TAL   C14818115   4.161  10.368   8.613 -0.0200 -0.8767 -0.4134
   30TAL   C14918116   4.093  10.236   8.658 -0.8859 -0.2070  0.1543
   30TAL   C15018117   4.189  10.131   8.669  0.0955  0.0790 -0.7824
   31HTM   C15118118   3.809  10.802   8.177  0.1389 -0.5467 -0.9384
   31HTM   C15218119   3.786  10.882   8.070  0.4835 -1.2365 -1.5473
   31HTM   C15318120   3.666  10.849   7.998  0.2642 -1.1817 -1.2110
   31HTM   C15418121   3.598  10.743   8.051 -0.2475 -0.4501 -0.3457
   31HTM    S1618122   3.681  10.677   8.196 -0.4941  0.2317  0.1156
   32TAL   C15518123   3.630  10.925   7.876  0.6870  0.4935  0.0026
   32TAL   C15618124   3.716  11.024   7.796  0.0313 -0.6557 -0.1365
   32TAL   C15718125   3.738  11.161   7.863 -0.2330 -1.0102  0.6264
   32TAL   C15818126   3.786  11.278   7.776 -0.3942  0.2694 -0.3943
   32TAL   C15918127   3.833  11.405   7.849 -0.7435  0.9908  1.2029
   32TAL   C16018128   3.746  11.463   7.960  1.1858  1.1129 -0.0641
   33HTM   C16118129   3.471  10.691   8.027 -0.0192 -0.4146  0.2156
   33HTM   C16218130   3.406  10.610   8.116 -0.7479  0.0612  0.1309
   33HTM   C16318131   3.287  10.548   8.062 -0.9118  0.6148 -0.1593
   33HTM   C16418132   3.262  10.582   7.932 -0.3079  0.5612 -0.2959
   33HTM    S1718133   3.387  10.695   7.868  0.5209 -0.1986 -0.0672
   34TAL   C16518134   3.221  10.440   8.139  0.0495 -0.7070 -0.4292
   34TAL   C16618135   3.185  10.463   8.281  0.5238 -0.8404 -0.9480
   34TAL   C16718136   3.076  10.551   8.318  1.9112 -0.1761 -0.5285
   34TAL   C16818137   3.092  10.598   8.464 -0.0478 -0.4932 -0.3638
   34TAL   C16918138   2.973  10.674   8.509  0.2522 -0.1623  0.0633
   34TAL   C17018139   2.975  10.641   8.665  0.0790  0.0815 -0.9694
   35HTM   C17118140   3.139  10.556   7.859 -0.1565 -0.3384  0.3689
   35HTM   C17218141   3.120  10.630   7.747  0.4216 -0.5570  0.1179
   35HTM   C17318142   2.987  10.620   7.693  0.6192 -0.4531 -0.3973
   35HTM   C17418143   2.905  10.538   7.764  0.1918 -0.1554 -0.5388
   35HTM    S1818144   2.990  10.466   7.906 -0.4989  0.0183 -0.0286
   36TAL   C17518145   2.943  10.704   7.565 -0.3237  0.9204 -0.0934
   36TAL   C17618146   2.968  10.625   7.432  0.6035 -1.2566  0.1523
   36TAL   C17718147   2.975  10.712   7.308  0.4251  1.1004  0.6846
   36TAL   C17818148   2.990  10.617   7.186 -0.0025 -0.3958  0.0073
   36TAL   C17918149   3.054  10.671   7.066 -0.5685 -0.3312 -0.2334
   36TAL   C18018150   3.047  10.576   6.962  0.3391 -0.0728  0.0744
   37HTM   C18118151   2.762  10.499   7.739  0.0142 -0.0051 -0.4475
   37HTM   C18218152   2.671  10.544   7.647 -0.3800  0.0407 -0.0449
   37HTM   C18318153   2.539  10.491   7.666 -0.3225  0.0919  0.5399
   37HTM   C18418154   2.528  10.407   7.772  0.1156  0.0852  0.5828
   37HTM    S1918155   2.686  10.387   7.857  0.4924  0.0131 -0.1170
   38TAL   C18518156   2.435  10.541   7.563  0.4303  0.1790 -0.0778
   38TAL   C18618157   2.434  10.464   7.427 -0.0033  0.4811 -0.3074
   38TAL   C18718158   2.319  10.509   7.351  0.6370  0.0497  0.1277
   38TAL   C18818159   2.176  10.443   7.365 -0.3158 -0.7947  0.5683
   38TAL   C18918160   2.056  10.514   7.435  0.2824 -0.0364 -0.1532
   38TAL   C19018161   2.067  10.552   7.581 -0.7076 -0.1298  0.9791
   39HTM   C19118162   2.412  10.337   7.821 -0.0603 -0.0263  0.2985
   39HTM   C19218163   2.391  10.293   7.948 -0.0274 -0.1786  0.2507
   39HTM   C19318164   2.260  10.236   7.969 -0.0914 -0.0245  0.2677
   39HTM   C19418165   2.181  10.238   7.857 -0.1733  0.2452  0.3284
   39HTM    S2018166   2.267  10.312   7.717 -0.1758  0.3262  0.3692
   40TAL   C19518167   2.217  10.186   8.100 -0.4294 -0.5530 -0.3049
   40TAL   C19618168   2.220  10.287   8.221 -0.6924  1.0082  1.0671
   40TAL   C19718169   2.280  10.228   8.347  0.6181  0.3536 -0.6658
   40TAL   C19818170   2.176  10.147   8.432  0.0043  1.1621 -0.8629
   40TAL   C19918171   2.235  10.093   8.565  0.4462 -0.5901 -0.5262
   40TAL   C20018172   2.348  10.000   8.583  0.3483  0.9226  1.4358
   41HTM   C20118173   2.048  10.188   7.823  0.3396 -0.0655 -0.3945
   41HTM   C20218174   1.943  10.252   7.765  0.3339  0.0535 -0.2527
   41HTM   C20318175   1.827  10.168   7.747  0.1908  0.2007 -0.0364
   41HTM   C20418176   1.845  10.040   7.790  0.0876  0.1939 -0.0132
   41HTM    S2118177   2.010  10.016   7.858  0.1636 -0.0005 -0.2649
   42TAL   C20518178   1.698  10.218   7.684  0.9332 -0.7654 -0.1468
   42TAL   C20618179   1.650  10.348   7.755 -0.3369 -0.2756 -0.0653
   42TAL   C20718180   1.581  10.353   7.891 -0.0316 -0.0112  0.4503
   42TAL   C20818181   1.537  10.490   7.930  1.0222 -0.0949  1.2463
   42TAL   C20918182   1.420  10.536   7.848  0.6305 -0.3376 -0.5631
   42TAL   C21018183   1.393  10.690   7.860 -0.2469  0.4105 -1.0656
   43HTM   C21118184   1.759   9.926   7.812  0.4298  0.5903 -0.7484
   43HTM   C21218185   1.792   9.808   7.872  0.9612  0.5043 -1.2017
   43HTM   C21318186   1.686   9.711   7.874  1.0179  0.4447 -0.5481
   43HTM   C21418187   1.571   9.755   7.815  0.5297  0.4852  0.4038
   43HTM    S2218188   1.588   9.923   7.753 -0.0441  0.6027  0.5496
   44TAL   C21518189   1.706   9.573   7.944  0.8678  0.0766  0.2361
   44TAL   C21618190   1.823   9.531   8.018 -1.2945 -0.2407 -0.6515
   44TAL   C21718191   1.808   9.573   8.168 -1.0583  0.7894  0.4707
   44TAL   C21818192   1.927   9.641   8.223 -0.4175  0.1521 -0.6968
   44TAL   C21918193   1.896   9.752   8.324  1.5602  0.6705 -0.2693
   44TAL   C22018194   2.018   9.764   8.412  0.1011  0.0344  0.6307
   45HTM   C22118195   1.442   9.691   7.806 -0.0969  0.4187  0.9039
   45HTM   C22218196   1.375   9.688   7.687 -0.2746  1.1876  0.9685
   45HTM   C22318197   1.244   9.629   7.695 -0.2997  1.2174  0.8016
   45HTM   C22418198   1.210   9.588   7.821 -0.1411  0.4717  0.6099
   45HTM    S2318199   1.343   9.621   7.939  0.0537 -0.3326  0.6252
   46TAL   C22518200   1.170   9.591   7.561  0.6153 -0.2477 -0.2104
   46TAL   C22618201   1.203   9.467   7.484  0.1270 -0.1815  0.0885
   46TAL   C22718202   1.352   9.438   7.476  0.0971 -0.6548 -0.0147
   46TAL   C22818203   1.389   9.319   7.392  0.3672 -0.1404  0.2822
   46TAL   C22918204   1.541   9.276   7.395 -0.8656  0.3077  0.6473
   46TAL   C23018205   1.630   9.337   7.285  0.7218 -0.1117  0.6489
   47HTM   C23118206   1.082   9.557   7.871  0.2957 -0.4570 -0.1403
   47HTM   C23218207   1.005   9.656   7.925  1.1730  0.0861  0.1475
   47HTM   C23318208   0.867   9.620   7.942  0.9382  1.0924  0.5269
   47HTM   C23418209   0.838   9.493   7.900 -0.1181  1.3164  0.5284
   47HTM    S2418210   0.984   9.409   7.837 -0.9042  0.2655  0.0468
   48TAL   C23518211   0.747   9.716   7.969 -0.0851  0.0769 -0.5868
   48TAL   C23618212   0.589   9.697   7.967 -0.0565  1.0115 -1.1700
   48TAL   C23718213   0.503   9.820   8.004 -0.2427  0.6614 -0.5665
   48TAL   C23818214   0.480   9.928   7.894 -0.3781 -0.7039  0.5761
   48TAL   C23918215   0.391  10.038   7.942  0.3727  0.3048 -0.2592
   48TAL   C24018216   0.397  10.167   7.858  0.6329  0.2189 -0.2890
    1HTM     C118217   3.664   0.788   6.598 -0.1565  0.0084 -0.2302
    1HTM     C218218   3.534   0.767   6.564 -0.1636  0.5802 -0.5988
    1HTM     C318219   3.443   0.864   6.618  0.0424  0.6279 -0.3349
    1HTM     C418220   3.504   0.960   6.693  0.2065  0.0924  0.2350
    1HTM     S118221   3.682   0.935   6.702  0.1128 -0.5184  0.4843
    2TAL     C518222   3.291   0.850   6.609 -0.0109  0.2794 -0.2387
    2TAL     C618223   3.215   0.799   6.493  0.4510 -0.4090  0.4239
    2TAL     C718224   3.221   0.881   6.354  0.0357  0.2046 -1.1078
    2TAL     C818225   3.161   1.026   6.374 -0.6434  0.1286  0.1843
    2TAL     C918226   3.160   1.118   6.246 -0.2909  0.5748 -0.6712
    2TAL    C1018227   3.300   1.132   6.182 -0.6088 -0.8141 -0.2641
    3HTM    C1118228   3.465   1.094   6.746  0.1389 -0.0717 -0.3041
    3HTM    C1218229   3.468   1.114   6.880 -0.5896 -0.4399 -0.2236
    3HTM    C1318230   3.467   1.253   6.918 -1.1748 -0.5418  0.1713
    3HTM    C1418231   3.464   1.339   6.811 -0.8925 -0.2513  0.3921
    3HTM     S218232   3.461   1.249   6.655  0.1424  0.1768  0.1161
    4TAL    C1518233   3.470   1.301   7.059 -0.2470  0.4618 -0.1614
    4TAL    C1618234   3.443   1.200   7.185 -0.3136 -0.3035  0.1078
    4TAL    C1718235   3.383   1.267   7.310 -0.4409 -0.3685  0.4902
    4TAL    C1818236   3.420   1.194   7.432 -1.3598  0.6183  0.0691
    4TAL    C1918237   3.333   1.194   7.565 -0.1028 -0.4280  0.0923
    4TAL    C2018238   3.318   1.326   7.620  0.6473  0.6693 -1.0367
    5HTM    C2118239   3.477   1.486   6.804 -0.0749  0.1572  0.3120
    5HTM    C2218240   3.399   1.577   6.867 -0.0808  0.2055  0.2348
    5HTM    C2318241   3.427   1.713   6.829 -0.2042  0.1650 -0.0061
    5HTM    C2418242   3.527   1.725   6.737 -0.2924  0.0859 -0.1126
    5HTM     S318243   3.594   1.564   6.691 -0.2260  0.0561  0.0846
    6TAL    C2518244   3.334   1.819   6.870 -0.2409 -0.7761  0.2747
    6TAL    C2618245   3.393   1.918   6.971  0.8416  0.0902  0.5164
    6TAL    C2718246   3.436   1.872   7.105 -0.2218 -0.2377  0.8056
    6TAL    C2818247   3.489   1.974   7.195  0.3241  0.0993 -0.1061
    6TAL    C2918248   3.489   1.944   7.345 -0.0978 -0.4463 -0.0260
    6TAL    C3018249   3.574   1.829   7.380  0.5054  0.1325 -0.5467
    7HTM    C3118250   3.581   1.840   6.660 -0.0409 -0.0735 -0.0776
    7HTM    C3218251   3.673   1.833   6.560 -0.2186  0.2705 -0.2677
    7HTM    C3318252   3.695   1.959   6.493 -0.4100  0.4813  0.0594
    7HTM    C3418253   3.620   2.061   6.542 -0.3783  0.2980  0.4990
    7HTM     S418254   3.514   2.007   6.678 -0.1021 -0.1586  0.5341
    8TAL    C3518255   3.804   1.968   6.387  0.2678 -1.1633 -0.3515
    8TAL    C3618256   3.919   2.075   6.411 -0.0977 -0.0397  0.5714
    8TAL    C3718257   4.001   2.080   6.277  0.1044 -0.2420 -0.1721
    8TAL    C3818258   4.094   2.199   6.270  0.2629  0.5821 -0.1673
    8TAL    C3918259   4.186   2.191   6.152 -0.3585 -0.1233 -0.3774
    8TAL    C4018260   4.270   2.310   6.166  0.4290  0.1718 -1.3500
    9HTM    C4118261   3.607   2.198   6.508 -0.4046  0.2730  0.1591
    9HTM    C4218262   3.680   2.297   6.566 -0.1223 -0.1550  0.5513
    9HTM    C4318263   3.667   2.425   6.500  0.4206  0.0920  0.9050
    9HTM    C4418264   3.583   2.423   6.393  0.5523  0.7083  0.7826
    9HTM     S518265   3.514   2.258   6.366 -0.0036  1.0269  0.2065
   10TAL    C4518266   3.726   2.553   6.548  1.4256  1.4260 -0.3896
   10TAL    C4618267   3.873   2.582   6.544 -0.2602  0.0724  0.3179
   10TAL    C4718268   3.909   2.705   6.623  0.0644  0.2214 -0.3698
   10TAL    C4818269   3.852   2.759   6.753 -0.1390 -0.5139 -0.1078
   10TAL    C4918270   3.820   2.655   6.860 -0.6433 -0.0638  0.1658
   10TAL    C5018271   3.696   2.692   6.935  0.5383  0.3442 -0.5608
   11HTM    C5118272   3.547   2.514   6.285  0.3230 -0.3169 -0.3605
   11HTM    C5218273   3.502   2.642   6.293  1.2351  0.0136 -0.3159
   11HTM    C5318274   3.476   2.703   6.165  1.4765  0.1831 -0.2878
   11HTM    C5418275   3.500   2.620   6.060  0.7485 -0.0182 -0.3108
   11HTM     S618276   3.559   2.459   6.114 -0.3067 -0.4407 -0.3702
   12TAL    C5518277   3.457   2.851   6.155 -0.7581 -0.7622  0.1371
   12TAL    C5618278   3.449   2.931   6.283 -0.6790  0.1375  0.2571
   12TAL    C5718279   3.438   3.074   6.281 -0.4596 -0.4060  0.5245
   12TAL    C5818280   3.415   3.156   6.397  0.2049  1.4237  0.7111
   12TAL    C5918281   3.420   3.302   6.354  0.5875  0.1880  1.0778
   12TAL    C6018282   3.418   3.391   6.470  0.0615 -0.0238  0.4148
   13HTM    C6118283   3.463   2.634   5.915 -0.1762  0.2130  0.4817
   13HTM    C6218284   3.535   2.695   5.817  0.0113  0.1473  0.5764
   13HTM    C6318285   3.467   2.698   5.689  0.1492  0.2805  0.5056
   13HTM    C6418286   3.344   2.640   5.691  0.0668  0.4477  0.3568
   13HTM     S718287   3.303   2.576   5.855 -0.1933  0.4498  0.2942
   14TAL    C6518288   3.530   2.748   5.565 -0.1277  0.3487  1.4562
   14TAL    C6618289   3.523   2.895   5.551 -0.1048 -0.9033  0.8106
   14TAL    C6718290   3.583   2.938   5.409  0.7820 -0.7637 -0.4982
   14TAL    C6818291   3.511   3.061   5.351  0.2900 -0.3664  0.6472
   14TAL    C6918292   3.507   3.197   5.418  0.1791  0.1028 -0.7419
   14TAL    C7018293   3.629   3.267   5.468 -0.6023 -0.8997  1.1988
   15HTM    C7118294   3.235   2.611   5.600  0.8282 -0.2257 -0.0727
   15HTM    C7218295   3.110   2.654   5.633  0.9249 -0.5670  0.7739
   15HTM    C7318296   3.014   2.641   5.526  0.2638 -0.6887  1.3659
   15HTM    C7418297   3.066   2.589   5.411 -0.3369 -0.4403  0.9706
   15HTM     S818298   3.242   2.552   5.429 -0.1126 -0.0301 -0.1891
   16TAL    C7518299   2.869   2.690   5.541 -0.1785  0.6285  0.1534
   16TAL    C7618300   2.847   2.820   5.617  0.6503 -0.0386 -0.5317
   16TAL    C7718301   2.732   2.819   5.713 -0.3671  0.7683  0.4230
   16TAL    C7818302   2.601   2.813   5.630  0.5295 -0.3414  0.7185
   16TAL    C7918303   2.471   2.827   5.711 -0.0935 -0.4824  0.7715
   16TAL    C8018304   2.352   2.867   5.631  0.7490 -0.3038  0.0490
   17HTM    C8118305   3.001   2.565   5.276 -0.7886  0.1431  0.1348
   17HTM    C8218306   2.912   2.647   5.213 -0.8405 -0.2226 -0.2785
   17HTM    C8318307   2.882   2.607   5.078 -0.1494 -0.4218 -0.3809
   17HTM    C8418308   2.948   2.495   5.038  0.4293 -0.2081 -0.0458
   17HTM     S918309   3.054   2.431   5.168  0.1442  0.2651  0.4289
   18TAL    C8518310   2.762   2.674   5.011 -1.0937  0.0458 -0.3532
   18TAL    C8618311   2.813   2.790   4.929 -0.4243  0.4827 -0.2172
   18TAL    C8718312   2.703   2.837   4.828  0.1229  0.2995 -0.1187
   18TAL    C8818313   2.645   2.736   4.722  0.0449 -0.7319 -0.5890
   18TAL    C8918314   2.532   2.760   4.635  1.2947 -0.0068 -0.4809
   18TAL    C9018315   2.415   2.807   4.712 -1.0167 -0.4170 -0.4509
   19HTM    C9118316   2.937   2.420   4.916  0.1752  0.2298  0.4870
   19HTM    C9218317   3.042   2.356   4.858  0.0653 -0.6534  1.2131
   19HTM    C9318318   3.007   2.283   4.738  0.1390 -1.0563  1.4329
   19HTM    C9418319   2.875   2.292   4.706  0.3051 -0.4803  0.8744
   19HTM    S1018320   2.784   2.393   4.824  0.3818  0.6243  0.0210
   20TAL    C9518321   3.114   2.218   4.657  0.6474 -0.3551 -0.0327
   20TAL    C9618322   3.207   2.118   4.719  0.4150 -0.2732  0.5393
   20TAL    C9718323   3.305   2.041   4.622  0.5525 -0.2234 -0.3811
   20TAL    C9818324   3.394   1.934   4.691 -0.8677 -0.6759  0.5722
   20TAL    C9918325   3.519   1.876   4.615  0.0392  0.1400 -0.7887
   20TAL   C10018326   3.473   1.752   4.539 -0.3648  0.2651 -0.8547
   21HTM   C10118327   2.796   2.214   4.618 -0.1350  0.4405  0.1539
   21HTM   C10218328   2.786   2.199   4.482  0.4470  0.4547  0.1063
   21HTM   C10318329   2.710   2.083   4.442  0.6617  0.4290 -0.2377
   21HTM   C10418330   2.661   2.011   4.547  0.2435  0.3950 -0.4524
   21HTM    S1118331   2.708   2.083   4.705 -0.4596  0.3930 -0.2347
   22TAL   C10518332   2.703   2.033   4.297 -0.0169 -0.8454  1.4430
   22TAL   C10618333   2.766   2.116   4.187 -0.3301 -1.2632 -0.3263
   22TAL   C10718334   2.645   2.186   4.107  0.1528  0.5834 -0.5161
   22TAL   C10818335   2.650   2.170   3.957 -0.0530 -0.3678  0.6836
   22TAL   C10918336   2.678   2.032   3.906 -0.1246  0.1458  0.7380
   22TAL   C11018337   2.561   1.937   3.908  0.3462  0.3496  0.2599
   23HTM   C11118338   2.600   1.874   4.554 -0.1279 -0.0010  0.2399
   23HTM   C11218339   2.607   1.790   4.660 -0.1362  0.0367  0.2705
   23HTM   C11318340   2.516   1.678   4.652  0.0583 -0.1159  0.1712
   23HTM   C11418341   2.440   1.678   4.538  0.2151 -0.2699  0.0649
   23HTM    S1218342   2.478   1.820   4.433  0.1284 -0.2339  0.0821
   24TAL   C11518343   2.509   1.594   4.768  0.8054  0.1660 -0.0829
   24TAL   C11618344   2.634   1.525   4.824 -0.2013 -0.0049 -0.1829
   24TAL   C11718345   2.642   1.462   4.963  0.7533  1.2468 -0.2526
   24TAL   C11818346   2.542   1.342   4.990  0.6472 -0.7704 -0.5232
   24TAL   C11918347   2.567   1.297   5.135  0.1727  0.9021 -0.3816
   24TAL   C12018348   2.488   1.171   5.171  0.3271  0.3004  0.2954
   25HTM   C12118349   2.308   1.610   4.529 -0.3913 -0.0193  0.8032
   25HTM   C12218350   2.185   1.664   4.505 -0.4738 -0.0812  1.0778
   25HTM   C12318351   2.088   1.567   4.462 -0.3881 -0.0519  0.8134
   25HTM   C12418352   2.136   1.440   4.454 -0.2405  0.0324  0.3370
   25HTM    S1318353   2.310   1.432   4.500 -0.1976  0.0816  0.1844
   26TAL   C12518354   1.947   1.613   4.434 -0.5026 -0.0689 -1.1052
   26TAL   C12618355   1.879   1.724   4.507  0.0150 -0.8246 -1.0509
   26TAL   C12718356   1.745   1.776   4.453  2.1425  0.1613  0.2131
   26TAL   C12818357   1.650   1.884   4.511  0.1011 -1.2513  0.1832
   26TAL   C12918358   1.576   1.817   4.628  0.6452  0.9390 -0.3510
   26TAL   C13018359   1.453   1.883   4.698 -0.5362 -0.3782  0.2772
   27HTM   C13118360   2.072   1.316   4.415  0.1819  0.2424 -0.3791
   27HTM   C13218361   2.114   1.195   4.461  0.6033  0.3528 -0.4636
   27HTM   C13318362   2.051   1.083   4.395  0.9950  0.1774 -0.5459
   27HTM   C13418363   1.961   1.119   4.299  0.8724 -0.0668 -0.5243
   27HTM    S1418364   1.949   1.298   4.284  0.2477 -0.0944 -0.3972
   28TAL   C13518365   2.098   0.936   4.431  1.3035 -0.1774  0.3206
   28TAL   C13618366   2.243   0.918   4.447  0.0796 -0.2858  0.1211
   28TAL   C13718367   2.310   0.784   4.471  1.8453  0.2837  0.3017
   28TAL   C13818368   2.445   0.772   4.535 -0.7113  0.1191 -0.5152
   28TAL   C13918369   2.570   0.820   4.448  0.6374  0.3366 -0.3935
   28TAL   C14018370   2.694   0.774   4.517 -1.0700 -0.0545  0.5134
   29HTM   C14118371   1.867   1.046   4.221 -0.0014 -0.5513 -0.2871
   29HTM   C14218372   1.877   1.018   4.088 -0.1748 -0.6228 -0.2840
   29HTM   C14318373   1.762   0.948   4.036 -0.5342 -0.0778 -0.2418
   29HTM   C14418374   1.666   0.923   4.129 -0.6348  0.4093 -0.2126
   29HTM    S1518375   1.712   0.987   4.291 -0.2806  0.2159 -0.2364
   30TAL   C14518376   1.752   0.942   3.879  0.6670  1.0360 -0.4430
   30TAL   C14618377   1.743   1.069   3.797  0.3065 -0.4229 -0.2119
   30TAL   C14718378   1.613   1.138   3.824  0.1656 -0.0888 -0.5224
   30TAL   C14818379   1.612   1.257   3.734 -0.3018  0.4295  0.1233
   30TAL   C14918380   1.687   1.301   3.607 -0.4868 -0.0460 -0.3367
   30TAL   C15018381   1.682   1.454   3.597 -0.3106  0.4703 -1.0256
   31HTM   C15118382   1.532   0.867   4.109 -0.3656 -0.2725  0.2494
   31HTM   C15218383   1.489   0.747   4.061 -0.6017 -0.2947  0.5118
   31HTM   C15318384   1.346   0.736   4.050 -0.6068  0.1113  0.1495
   31HTM   C15418385   1.279   0.849   4.089 -0.3747  0.4431 -0.3891
   31HTM    S1618386   1.393   0.977   4.143 -0.1297  0.2671 -0.4812
   32TAL   C15518387   1.301   0.615   3.968  0.1487 -0.4914  0.4629
   32TAL   C15618388   1.316   0.615   3.816  0.0052 -0.0204  0.8183
   32TAL   C15718389   1.258   0.722   3.720 -1.0729  0.6041 -0.1093
   32TAL   C15818390   1.107   0.739   3.711  0.5953  0.9244 -0.9094
   32TAL   C15918391   1.001   0.633   3.701  0.2771  0.4791  0.2963
   32TAL   C16018392   1.028   0.562   3.576  0.4925  0.7132  0.3421
   33HTM   C16118393   1.138   0.868   4.106 -0.4225  0.1118 -0.4905
   33HTM   C16218394   1.073   0.982   4.068 -0.4011 -0.1099 -1.2370
   33HTM   C16318395   0.931   0.965   4.051 -0.4137 -0.1825 -1.0653
   33HTM   C16418396   0.888   0.839   4.076 -0.4448 -0.0161 -0.1878
   33HTM    S1718397   1.023   0.730   4.122 -0.4607  0.2473  0.4950
   34TAL   C16518398   0.861   1.078   3.983 -0.3058 -1.3155 -0.3092
   34TAL   C16618399   0.793   1.172   4.081 -0.1168  0.3906 -0.6249
   34TAL   C16718400   0.759   1.294   3.995  0.9830 -0.1479 -1.4842
   34TAL   C16818401   0.662   1.404   4.049  0.4465  0.8854 -1.0623
   34TAL   C16918402   0.532   1.346   4.114 -0.0088  0.5492  0.8812
   34TAL   C17018403   0.439   1.433   4.189  0.1950  0.0654 -0.8776
   35HTM   C17118404   0.747   0.789   4.071  0.3493  0.0364  0.7192
   35HTM   C17218405   0.644   0.838   3.997  0.1038  0.8230  1.5414
   35HTM   C17318406   0.527   0.752   3.996 -0.0540  1.0370  1.3774
   35HTM   C17418407   0.542   0.639   4.070  0.0711  0.4135  0.4298
   35HTM    S1818408   0.706   0.631   4.147  0.4006 -0.4993 -0.3345
   36TAL   C17518409   0.406   0.788   3.915 -0.7907 -1.2875  0.4908
   36TAL   C17618410   0.286   0.838   3.999  0.0881  0.0933  1.1196
   36TAL   C17718411   0.291   0.976   4.059 -0.8668  0.1545 -0.8097
   36TAL   C17818412   0.184   1.016   4.170  0.6607  0.4239  1.2200
   36TAL   C17918413   0.170   1.153   4.228 -0.4510  0.1942  0.4385
   36TAL   C18018414   0.210   1.178   4.369 -0.3717  0.0584  0.3198
   37HTM   C18118415   0.447   0.548   4.111 -0.1930 -0.3636 -0.5177
   37HTM   C18218416   0.335   0.506   4.046 -0.2205 -0.7507 -0.2240
   37HTM   C18318417   0.270   0.394   4.109 -0.0305 -0.5681  0.3035
   37HTM   C18418418   0.333   0.351   4.222  0.1420 -0.0418  0.4122
   37HTM    S1918419   0.479   0.450   4.258  0.0773  0.2664 -0.1479
   38TAL   C18518420   0.142   0.341   4.049  0.3512 -0.1669  0.1304
   38TAL   C18618421   0.146   0.251   3.928  0.3499  0.1911  0.8555
   38TAL   C18718422   0.024   0.254   3.846  0.3933 -0.3768 -0.1576
   38TAL   C18818423  -0.002   0.110   3.784 -0.4792 -1.1735 -0.5633
   38TAL   C18918424  -0.117   0.078   3.685 -0.2825 -0.1633  1.1575
   38TAL   C19018425  -0.142   0.174   3.565 -0.7224  0.1453 -0.0999
   39HTM   C19118426   0.277   0.263   4.330 -0.4615  0.3665 -0.4286
   39HTM   C19218427   0.328   0.255   4.456  0.0374  0.4098 -0.6217
   39HTM   C19318428   0.259   0.160   4.540  0.7346  0.0147 -0.4866
   39HTM   C19418429   0.157   0.096   4.478  0.7673 -0.3299 -0.1911
   39HTM    S2018430   0.138   0.150   4.307 -0.0866 -0.1810 -0.0588
   40TAL   C19518431   0.301   0.145   4.689  0.3493 -0.1443  0.7231
   40TAL   C19618432   0.417   0.058   4.730 -0.9492 -1.0494 -0.2581
   40TAL   C19718433   0.563   0.093   4.685  0.2685  0.1002  1.2050
   40TAL   C19818434   0.633  -0.050   4.674  0.2474 -0.0564  0.9460
   40TAL   C19918435   0.762  -0.046   4.588  0.2035  0.0290 -0.2519
   40TAL   C20018436   0.857   0.072   4.625 -0.1518  0.6913 -0.2101
   41HTM   C20118437   0.044   0.026   4.533  0.8789  0.0993  0.2135
   41HTM   C20218438  -0.079   0.024   4.474  1.2345 -0.2265 -0.5394
   41HTM   C20318439  -0.177  -0.052   4.546  0.9687 -0.4208 -1.0940
   41HTM   C20418440  -0.129  -0.109   4.661  0.4103 -0.2435 -0.7641
   41HTM    S2118441   0.045  -0.069   4.686  0.1754  0.1866  0.2808
   42TAL   C20518442  -0.327  -0.055   4.514  0.5045  0.3840  1.2717
   42TAL   C20618443  -0.345  -0.056   4.360 -0.7617  0.3437  0.4106
   42TAL   C20718444  -0.390   0.074   4.302  1.1834 -0.2032  0.5636
   42TAL   C20818445  -0.371   0.103   4.153  1.2918  1.0761  0.7339
   42TAL   C20918446  -0.405   0.242   4.118  0.6710 -0.0641 -0.2550
   42TAL   C21018447  -0.409   0.287   3.970  0.6469  1.2155 -0.3010
   43HTM   C21118448  -0.193  -0.191   4.765 -0.1342  0.1494 -0.0661
   43HTM   C21218449  -0.311  -0.260   4.768  0.0367 -0.1307  0.3566
   43HTM   C21318450  -0.331  -0.334   4.890  0.5794 -0.0598  0.4957
   43HTM   C21418451  -0.229  -0.321   4.980  0.8216  0.2742  0.1789
   43HTM    S2218452  -0.098  -0.214   4.917  0.3800  0.5273 -0.3235
   44TAL   C21518453  -0.465  -0.402   4.903 -0.2234 -0.0087  0.0613
   44TAL   C21618454  -0.529  -0.430   5.041  0.5933  0.9556  0.0936
   44TAL   C21718455  -0.668  -0.506   5.031  0.9871 -0.4653  1.0040
   44TAL   C21818456  -0.678  -0.636   5.097  1.4170  2.2384  0.8457
   44TAL   C21918457  -0.664  -0.646   5.244  0.4699 -0.7066 -0.8369
   44TAL   C22018458  -0.619  -0.782   5.301 -0.3350 -0.6143  0.2070
   45HTM   C22118459  -0.192  -0.365   5.112 -0.0566 -0.1859  0.0515
   45HTM   C22218460  -0.178  -0.494   5.155 -0.6108 -0.1035  0.4957
   45HTM   C22318461  -0.132  -0.505   5.291 -0.8221  0.1647  0.5904
   45HTM   C22418462  -0.110  -0.384   5.351 -0.4290  0.2870  0.2187
   45HTM    S2318463  -0.147  -0.247   5.241  0.2439  0.0714 -0.2840
   46TAL   C22518464  -0.066  -0.630   5.346  0.2191 -0.1378  0.1457
   46TAL   C22618465  -0.033  -0.731   5.228  0.2019 -0.5068 -0.3799
   46TAL   C22718466   0.016  -0.866   5.286  1.0693  0.1174  0.5795
   46TAL   C22818467  -0.021  -0.990   5.196  0.0097 -0.8271 -0.9085
   46TAL   C22918468   0.025  -1.121   5.270 -0.3071  0.3300 -0.8199
   46TAL   C23018469  -0.004  -1.248   5.179  0.1747 -1.0225 -0.5222
   47HTM   C23118470  -0.085  -0.369   5.493 -0.1240 -0.1720  0.2179
   47HTM   C23218471  -0.158  -0.418   5.597  0.0072 -0.1228  0.3352
   47HTM   C23318472  -0.108  -0.381   5.727  0.1161  0.0207  0.2525
   47HTM   C23418473   0.004  -0.303   5.722  0.0678  0.0806  0.0720
   47HTM    S2418474   0.055  -0.271   5.552 -0.1201 -0.0405 -0.0080
   48TAL   C23518475  -0.184  -0.421   5.851 -0.9043 -0.0251 -1.0096
   48TAL   C23618476  -0.324  -0.483   5.843 -0.0246  0.3295 -0.2724
   48TAL   C23718477  -0.378  -0.487   5.989  0.5719 -0.3841  0.1505
   48TAL   C23818478  -0.525  -0.518   5.999  0.3969 -0.2624  0.2335
   48TAL   C23918479  -0.620  -0.407   5.953  0.4971 -0.2287 -0.5332
   48TAL   C24018480  -0.651  -0.299   6.046  1.0058 -0.7088 -0.2400
    1HTM     C118481   3.640   0.110   1.171 -0.4271 -0.1442 -0.4606
    1HTM     C218482   3.611   0.117   1.038 -0.7615 -0.1250 -0.3875
    1HTM     C318483   3.503   0.030   0.998 -1.0697  0.1109 -0.0744
    1HTM     C418484   3.450  -0.042   1.101 -0.9702  0.2715  0.0912
    1HTM     S118485   3.533  -0.006   1.257 -0.4757  0.1365 -0.1372
    2TAL     C518486   3.447   0.032   0.858 -0.0920  0.4217  0.3240
    2TAL     C618487   3.383   0.161   0.804 -1.0081 -0.7278 -0.8699
    2TAL     C718488   3.260   0.215   0.876 -0.4691  0.5329 -0.1390
    2TAL     C818489   3.125   0.142   0.910 -0.4492 -0.0224  0.7073
    2TAL     C918490   3.036   0.205   1.022 -0.4445 -0.0666  0.0198
    2TAL    C1018491   2.916   0.102   1.043 -0.1340 -0.4258  0.6007
    3HTM    C1118492   3.332  -0.128   1.101  0.9392 -0.3554 -0.0787
    3HTM    C1218493   3.236  -0.151   1.195  1.1666 -0.3705  0.1524
    3HTM    C1318494   3.137  -0.247   1.154  0.7405  0.0622  0.1432
    3HTM    C1418495   3.158  -0.298   1.029  0.1882  0.4072 -0.0949
    3HTM     S218496   3.305  -0.227   0.952  0.1632  0.2107 -0.3278
    4TAL    C1518497   3.004  -0.261   1.230 -0.2897 -0.0139 -0.0117
    4TAL    C1618498   2.997  -0.301   1.379  0.2446 -0.4925  0.8062
    4TAL    C1718499   3.056  -0.203   1.474 -0.5038  0.3065 -0.0173
    4TAL    C1818500   3.042  -0.242   1.620  0.3542  0.7829 -0.3860
    4TAL    C1918501   3.088  -0.149   1.730 -0.6740  0.3502 -0.3692
    4TAL    C2018502   3.063  -0.195   1.880 -0.1102 -0.6351 -0.2368
    5HTM    C2118503   3.099  -0.406   0.964 -0.3127 -0.3595  0.0258
    5HTM    C2218504   2.966  -0.427   0.944 -0.2848 -0.4702 -0.0445
    5HTM    C2318505   2.937  -0.508   0.828 -0.1675 -0.2737 -0.2123
    5HTM    C2418506   3.048  -0.549   0.760 -0.1062 -0.0136 -0.2700
    5HTM     S318507   3.199  -0.488   0.838 -0.1924  0.0041 -0.1157
    6TAL    C2518508   2.799  -0.553   0.793  0.0619  0.1516 -0.9214
    6TAL    C2618509   2.723  -0.638   0.891  1.1966  0.8203  0.2593
    6TAL    C2718510   2.587  -0.696   0.863  0.0555  0.1215 -0.4453
    6TAL    C2818511   2.546  -0.750   0.722 -0.5983  0.0257 -0.0978
    6TAL    C2918512   2.407  -0.818   0.720 -0.0761 -0.5208 -0.0196
    6TAL    C3018513   2.362  -0.866   0.583 -0.0817  0.1880  0.1288
    7HTM    C3118514   3.055  -0.642   0.658 -0.0260  0.0167  0.1247
    7HTM    C3218515   3.046  -0.777   0.667 -0.3956  0.0348  0.0477
    7HTM    C3318516   3.004  -0.841   0.544 -0.6126  0.2213  0.0248
    7HTM    C3418517   2.981  -0.753   0.442 -0.4083  0.3456  0.0844
    7HTM     S418518   3.011  -0.583   0.494  0.0777  0.2359  0.1747
    8TAL    C3518519   2.991  -0.991   0.550 -0.6172  0.3088  0.1895
    8TAL    C3618520   2.849  -1.049   0.598 -0.8635 -0.8341 -0.0747
    8TAL    C3718521   2.830  -1.205   0.602  0.3506 -0.0696  0.6926
    8TAL    C3818522   2.773  -1.301   0.483  0.1544  0.5897 -1.0457
    8TAL    C3918523   2.778  -1.282   0.340  0.4096 -0.4652  0.2766
    8TAL    C4018524   2.893  -1.231   0.268  0.1557 -0.6552  0.4578
    9HTM    C4118525   2.931  -0.772   0.311  0.2614 -0.5595 -0.5038
    9HTM    C4218526   2.984  -0.757   0.187  0.2540 -1.0693 -0.5731
    9HTM    C4318527   2.893  -0.787   0.080  0.0155 -0.7970 -0.4482
    9HTM    C4418528   2.769  -0.826   0.123 -0.1590 -0.0797 -0.2836
    9HTM     S518529   2.759  -0.826   0.303 -0.0346  0.3107 -0.2737
   10TAL    C4518530   2.932  -0.795  -0.068 -0.4401 -0.0790 -0.7663
   10TAL    C4618531   3.040  -0.715  -0.152 -0.2080 -1.5509 -0.3824
   10TAL    C4718532   3.014  -0.567  -0.188  0.0229 -0.4990  0.4540
   10TAL    C4818533   3.100  -0.524  -0.305  0.2093  0.4190  1.2942
   10TAL    C4918534   3.248  -0.538  -0.262 -0.6034 -0.4282 -0.3227
   10TAL    C5018535   3.367  -0.454  -0.320 -0.8225  0.5780 -0.0478
   11HTM    C5118536   2.660  -0.863   0.037 -0.1163 -0.3359  0.0961
   11HTM    C5218537   2.654  -0.976  -0.040 -0.3501 -0.1380 -0.1833
   11HTM    C5318538   2.544  -0.977  -0.133 -0.3750  0.3037 -0.1650
   11HTM    C5418539   2.466  -0.866  -0.128 -0.1602  0.4425  0.1275
   11HTM     S618540   2.525  -0.749  -0.003  0.0922  0.0230  0.4056
   12TAL    C5518541   2.536  -1.085  -0.234  0.8048  0.3154  1.2729
   12TAL    C5618542   2.553  -1.222  -0.197 -0.3713  0.8092 -0.9615
   12TAL    C5718543   2.458  -1.279  -0.090  1.1337  0.2847 -0.5079
   12TAL    C5818544   2.522  -1.353   0.031 -0.4467 -0.1426 -0.6657
   12TAL    C5918545   2.442  -1.393   0.157  0.3443  0.5042  1.2737
   12TAL    C6018546   2.359  -1.279   0.225  0.1091  0.4843 -0.0294
   13HTM    C6118547   2.362  -0.829  -0.220 -0.2472 -0.0438  0.7485
   13HTM    C6218548   2.337  -0.700  -0.256 -0.1441  0.1595  1.3697
   13HTM    C6318549   2.223  -0.685  -0.343  0.1979  0.5944  0.9825
   13HTM    C6418550   2.161  -0.802  -0.372  0.3555  0.7224  0.0663
   13HTM     S718551   2.242  -0.942  -0.292  0.0821  0.3003 -0.3822
   14TAL    C6518552   2.185  -0.549  -0.405 -0.3275 -0.4091 -0.4843
   14TAL    C6618553   2.109  -0.444  -0.318 -0.3665 -0.4670 -0.1005
   14TAL    C6718554   2.097  -0.309  -0.392 -0.6454 -0.5301  0.3420
   14TAL    C6818555   2.009  -0.199  -0.350  1.0182 -1.1175 -0.4710
   14TAL    C6918556   2.022  -0.124  -0.214 -0.3828  0.4912  0.0833
   14TAL    C7018557   1.906  -0.046  -0.148  1.0193  0.4147  0.8914
   15HTM    C7118558   2.036  -0.829  -0.443  0.2094  0.7790  0.0968
   15HTM    C7218559   1.959  -0.942  -0.430  0.8473  0.3724  0.4435
   15HTM    C7318560   1.847  -0.946  -0.520  0.7536 -0.4599  0.5856
   15HTM    C7418561   1.838  -0.837  -0.602  0.0443 -0.6873  0.3470
   15HTM     S818562   1.971  -0.720  -0.571 -0.5651  0.1378 -0.0784
   16TAL    C7518563   1.728  -1.044  -0.496  0.6913  0.1730  0.2720
   16TAL    C7618564   1.756  -1.190  -0.519 -0.7125  0.7685 -0.3565
   16TAL    C7718565   1.666  -1.263  -0.613  0.4610  0.3220 -0.0898
   16TAL    C7818566   1.693  -1.415  -0.621  0.8173  0.0807  0.3831
   16TAL    C7918567   1.690  -1.515  -0.505  0.0878  0.8874 -0.2586
   16TAL    C8018568   1.725  -1.652  -0.556  0.5488  0.8219  0.1755
   17HTM    C8118569   1.743  -0.785  -0.699 -0.1578  0.2566  0.1355
   17HTM    C8218570   1.722  -0.660  -0.749 -0.0276  0.3669  0.3514
   17HTM    C8318571   1.627  -0.657  -0.857  0.2378  0.6015  0.1223
   17HTM    C8418572   1.575  -0.779  -0.889  0.3101  0.6699 -0.2681
   17HTM     S918573   1.643  -0.909  -0.784  0.0465  0.4419 -0.3777
   18TAL    C8518574   1.610  -0.526  -0.926 -0.3098 -0.2562  0.0648
   18TAL    C8618575   1.722  -0.408  -0.931 -0.0920 -0.0213 -0.0636
   18TAL    C8718576   1.695  -0.292  -1.024 -0.8288 -1.9755  0.3407
   18TAL    C8818577   1.560  -0.214  -1.007 -0.1023 -0.7757 -0.0995
   18TAL    C8918578   1.519  -0.102  -1.110  1.0776  0.9312 -0.9113
   18TAL    C9018579   1.427   0.013  -1.057 -0.0538  0.6492  0.5586
   19HTM    C9118580   1.469  -0.826  -0.975  0.0347 -0.0022 -0.1697
   19HTM    C9218581   1.430  -0.792  -1.101 -0.3226 -0.0236 -0.0663
   19HTM    C9318582   1.323  -0.873  -1.152 -0.4236 -0.0765  0.2234
   19HTM    C9418583   1.281  -0.970  -1.066 -0.1433 -0.0957  0.3408
   19HTM    S1018584   1.374  -0.965  -0.911  0.2732 -0.0476  0.0927
   20TAL    C9518585   1.271  -0.847  -1.293 -0.4319 -0.8807  0.1849
   20TAL    C9618586   1.355  -0.904  -1.409 -0.0042  0.2042  1.0861
   20TAL    C9718587   1.275  -0.918  -1.542 -0.9849 -0.8274  0.0496
   20TAL    C9818588   1.264  -0.799  -1.634 -0.5937  0.0443  0.9493
   20TAL    C9918589   1.149  -0.819  -1.740 -1.1719 -0.5850  0.8668
   20TAL   C10018590   1.132  -0.699  -1.847 -0.0445 -0.3102 -0.4247
   21HTM   C10118591   1.182  -1.076  -1.072  0.2983  0.1770  0.0898
   21HTM   C10218592   1.149  -1.158  -1.176 -0.2132  0.8256 -0.2840
   21HTM   C10318593   1.053  -1.259  -1.142 -0.6289  1.0884 -0.6621
   21HTM   C10418594   1.011  -1.253  -1.012 -0.4343  0.6400 -0.5765
   21HTM    S1118595   1.091  -1.119  -0.922  0.2946 -0.1546 -0.0075
   22TAL   C10518596   1.045  -1.380  -1.234  0.2888  0.1354 -0.4243
   22TAL   C10618597   0.981  -1.337  -1.370  0.5923 -0.3370 -0.3349
   22TAL   C10718598   1.050  -1.364  -1.492  1.0606 -0.1245  0.8838
   22TAL   C10818599   1.005  -1.324  -1.636  0.8941 -0.3528 -0.1681
   22TAL   C10918600   1.101  -1.337  -1.747  0.2780 -0.2448  0.4793
   22TAL   C11018601   1.072  -1.332  -1.898 -0.0136 -0.6813 -0.6097
   23HTM   C11118602   0.923  -1.339  -0.928  0.5022  0.1551  0.3966
   23HTM   C11218603   0.883  -1.316  -0.799  1.0402 -0.5875  0.7086
   23HTM   C11318604   0.807  -1.424  -0.743  1.2336 -0.8969  0.3901
   23HTM   C11418605   0.788  -1.529  -0.828  0.8431 -0.3903 -0.1649
   23HTM    S1218606   0.867  -1.499  -0.988  0.1957  0.5238 -0.3294
   24TAL   C11518607   0.755  -1.411  -0.601 -0.1875 -0.3553  0.2612
   24TAL   C11618608   0.850  -1.435  -0.487 -0.1759 -0.7128 -0.3622
   24TAL   C11718609   0.773  -1.419  -0.351  1.1076  0.1394  0.5296
   24TAL   C11818610   0.730  -1.554  -0.288  0.6977  0.3083 -0.4608
   24TAL   C11918611   0.835  -1.647  -0.218 -0.3098  0.2901  0.2630
   24TAL   C12018612   0.932  -1.588  -0.111  0.1925  0.7765 -0.6275
   25HTM   C12118613   0.737  -1.662  -0.806 -0.1081  0.4380 -0.0991
   25HTM   C12218614   0.815  -1.771  -0.831  0.0310  0.5589 -0.1891
   25HTM   C12318615   0.762  -1.894  -0.780  0.1670  0.4411 -0.3295
   25HTM   C12418616   0.642  -1.880  -0.715  0.1316  0.2303 -0.3464
   25HTM    S1318617   0.588  -1.708  -0.714 -0.0777  0.1639 -0.1855
   26TAL   C12518618   0.839  -2.023  -0.801  0.7598  0.2694 -0.1433
   26TAL   C12618619   0.943  -2.061  -0.701  0.3747  0.1265 -0.7872
   26TAL   C12718620   0.916  -2.051  -0.559 -0.5649  0.5984 -0.8607
   26TAL   C12818621   0.998  -2.153  -0.479 -1.0724  0.4393 -0.0779
   26TAL   C12918622   0.980  -2.145  -0.320 -0.0267 -0.4497  0.6424
   26TAL   C13018623   1.057  -2.049  -0.250 -0.1244 -1.1675 -0.1130
   27HTM   C13118624   0.533  -1.969  -0.696  0.1894 -0.2569 -0.4560
   27HTM   C13218625   0.535  -2.094  -0.641  0.2574 -0.3320 -0.6275
   27HTM   C13318626   0.404  -2.151  -0.624  0.2772 -0.3452 -0.5200
   27HTM   C13418627   0.302  -2.070  -0.666  0.2243 -0.2802 -0.2660
   27HTM    S1418628   0.365  -1.914  -0.730  0.1447 -0.1966 -0.1426
   28TAL   C13518629   0.380  -2.287  -0.551  0.0531 -0.2288 -0.6433
   28TAL   C13618630   0.402  -2.320  -0.401  0.4090 -0.5119 -0.5611
   28TAL   C13718631   0.373  -2.466  -0.372  0.7210 -0.1363 -0.1601
   28TAL   C13818632   0.467  -2.506  -0.251  0.1653  0.2892 -0.1942
   28TAL   C13918633   0.509  -2.650  -0.247 -0.2125  1.0109 -0.1842
   28TAL   C14018634   0.634  -2.670  -0.343 -0.8405  0.1315  0.1544
   29HTM   C14118635   0.157  -2.082  -0.665  0.0183  0.3205  0.5314
   29HTM   C14218636   0.075  -2.145  -0.577 -0.0804  0.2525  0.3922
   29HTM   C14318637  -0.065  -2.124  -0.603 -0.0584 -0.0434  0.0246
   29HTM   C14418638  -0.090  -2.046  -0.712  0.0569 -0.2008 -0.1164
   29HTM    S1518639   0.064  -1.991  -0.790  0.1475  0.0138  0.2068
   30TAL   C14518640  -0.165  -2.189  -0.516 -0.4971  0.3881  0.7433
   30TAL   C14618641  -0.133  -2.173  -0.367  0.1480  0.3922  0.0745
   30TAL   C14718642  -0.175  -2.037  -0.302 -0.2949 -0.8404 -0.9489
   30TAL   C14818643  -0.294  -1.953  -0.359  0.4971  0.6632 -1.6532
   30TAL   C14918644  -0.433  -2.002  -0.301  0.5661 -0.8264  0.1338
   30TAL   C15018645  -0.549  -1.908  -0.280  1.0438 -0.0439  1.0882
   31HTM   C15118646  -0.214  -1.997  -0.774 -0.2697  0.1812  0.1578
   31HTM   C15218647  -0.218  -1.896  -0.866  0.0663 -0.1111 -0.1864
   31HTM   C15318648  -0.352  -1.857  -0.902  0.1962 -0.0186 -0.5782
   31HTM   C15418649  -0.449  -1.928  -0.838 -0.0408  0.3444 -0.5330
   31HTM    S1618650  -0.379  -2.050  -0.726 -0.4497  0.5994  0.0122
   32TAL   C15518651  -0.370  -1.748  -1.001 -0.0569 -0.1415 -0.3845
   32TAL   C15618652  -0.430  -1.616  -0.960  0.4204 -1.0690 -0.1735
   32TAL   C15718653  -0.445  -1.529  -1.091  0.3066  0.9269  0.4453
   32TAL   C15818654  -0.503  -1.389  -1.069  0.8405  0.4561  0.1917
   32TAL   C15918655  -0.651  -1.362  -1.040  0.3619  0.0690  0.0562
   32TAL   C16018656  -0.692  -1.217  -1.054 -0.3274 -1.3699 -0.2418
   33HTM   C16118657  -0.594  -1.925  -0.855 -0.3830 -0.6072  0.2138
   33HTM   C16218658  -0.658  -2.012  -0.938 -0.5808 -0.6102  0.3700
   33HTM   C16318659  -0.800  -1.988  -0.949 -0.5500 -0.3949  0.4368
   33HTM   C16418660  -0.844  -1.883  -0.874 -0.3286 -0.2274  0.3316
   33HTM    S1718661  -0.708  -1.805  -0.784 -0.1400 -0.3296  0.1380
   34TAL   C16518662  -0.892  -2.059  -1.049  1.1712 -0.0837  0.1037
   34TAL   C16618663  -0.922  -2.213  -1.026 -0.7925  0.7296  0.3761
   34TAL   C16718664  -1.038  -2.283  -1.093  0.5213 -1.1817 -0.0511
   34TAL   C16818665  -1.187  -2.246  -1.062 -0.5212 -0.3868 -0.7771
   34TAL   C16918666  -1.228  -2.208  -0.916 -0.3863  0.1449  0.5578
   34TAL   C17018667  -1.235  -2.320  -0.809 -0.3836  0.0525 -0.0977
   35HTM   C17118668  -0.973  -1.834  -0.865  0.1969 -0.0089  0.3949
   35HTM   C17218669  -1.021  -1.725  -0.932  0.7002  0.2134  0.3848
   35HTM   C17318670  -1.144  -1.673  -0.878  0.7296  0.5465  0.1383
   35HTM   C17418671  -1.190  -1.742  -0.770  0.2480  0.5778 -0.0397
   35HTM    S1818672  -1.081  -1.879  -0.727 -0.2831  0.1864  0.0912
   36TAL   C17518673  -1.217  -1.560  -0.932  0.1713 -0.1151 -0.0182
   36TAL   C17618674  -1.150  -1.423  -0.945  0.5931  0.4042 -0.0830
   36TAL   C17718675  -1.241  -1.303  -0.967 -0.0205  0.1639 -0.3204
   36TAL   C17818676  -1.169  -1.175  -1.008  0.0500 -0.0072  0.4321
   36TAL   C17918677  -1.233  -1.049  -1.066  1.4947  0.9579  0.0074
   36TAL   C18018678  -1.359  -1.071  -1.149 -0.4248  0.0129  0.2003
   37HTM   C18118679  -1.306  -1.724  -0.680  0.1652 -0.3059 -0.4912
   37HTM   C18218680  -1.316  -1.741  -0.545  0.7477 -0.4380 -0.4587
   37HTM   C18318681  -1.443  -1.700  -0.491  0.9923 -0.4508  0.1383
   37HTM   C18418682  -1.530  -1.651  -0.585  0.5961 -0.3281  0.5606
   37HTM    S1918683  -1.457  -1.654  -0.750 -0.1220 -0.1859  0.2352
   38TAL   C18518684  -1.483  -1.704  -0.350  0.1812 -0.2941 -0.1530
   38TAL   C18618685  -1.364  -1.713  -0.246 -0.3009 -1.0291 -0.1404
   38TAL   C18718686  -1.375  -1.828  -0.147 -0.6441 -0.1451 -0.1252
   38TAL   C18818687  -1.236  -1.864  -0.085  0.5636  0.7995  0.3944
   38TAL   C18918688  -1.114  -1.892  -0.173  0.7389  0.1864 -0.6914
   38TAL   C19018689  -0.995  -1.898  -0.076 -1.8087 -0.0123  0.5184
   39HTM   C19118690  -1.661  -1.605  -0.563  0.2604 -0.2984  0.3528
   39HTM   C19218691  -1.702  -1.496  -0.494  0.2434 -0.4110  0.5219
   39HTM   C19318692  -1.841  -1.499  -0.458  0.2382 -0.4771  0.4959
   39HTM   C19418693  -1.906  -1.611  -0.500  0.2512 -0.4149  0.3070
   39HTM    S2018694  -1.795  -1.723  -0.588  0.2713 -0.2673  0.1454
   40TAL   C19518695  -1.903  -1.387  -0.371 -1.5389 -1.0044 -0.3244
   40TAL   C19618696  -1.937  -1.253  -0.447  0.1895  0.1093  1.0653
   40TAL   C19718697  -1.829  -1.145  -0.470  0.2949  0.1450  0.1326
   40TAL   C19818698  -1.873  -0.998  -0.483 -0.2394 -0.3987  0.1194
   40TAL   C19918699  -1.959  -0.952  -0.365  0.1404 -0.2335  0.5374
   40TAL   C20018700  -1.988  -0.805  -0.381 -0.1067 -0.8250 -0.2262
   41HTM   C20118701  -2.050  -1.645  -0.494 -0.1831 -0.4344 -0.6267
   41HTM   C20218702  -2.096  -1.768  -0.458 -0.2187 -0.4380 -0.6855
   41HTM   C20318703  -2.239  -1.778  -0.455 -0.2222 -0.3495 -0.5317
   41HTM   C20418704  -2.303  -1.662  -0.490 -0.1893 -0.2779 -0.3559
   41HTM    S2118705  -2.185  -1.531  -0.529 -0.1508 -0.3175 -0.3710
   42TAL   C20518706  -2.306  -1.909  -0.437 -0.1683 -0.2275  0.4957
   42TAL   C20618707  -2.330  -1.955  -0.296 -0.0269  0.0587  0.0432
   42TAL   C20718708  -2.307  -2.100  -0.257 -0.2292 -0.1712  0.0257
   42TAL   C20818709  -2.367  -2.153  -0.122  0.6880 -0.4458 -0.1296
   42TAL   C20918710  -2.513  -2.165  -0.108 -0.0187  0.5618 -0.3662
   42TAL   C21018711  -2.597  -2.226  -0.222 -0.4779  0.4618 -0.2110
   43HTM   C21118712  -2.447  -1.621  -0.474  0.2542 -0.2941  0.3930
   43HTM   C21218713  -2.499  -1.495  -0.470  0.6336 -0.1466  0.7010
   43HTM   C21318714  -2.642  -1.491  -0.455  0.6391  0.2470  0.6757
   43HTM   C21418715  -2.699  -1.615  -0.448  0.2640  0.3997  0.3480
   43HTM    S2218716  -2.577  -1.746  -0.460 -0.1283  0.0556  0.0444
   44TAL   C21518717  -2.716  -1.354  -0.441  0.6579  0.1297  0.1119
   44TAL   C21618718  -2.774  -1.305  -0.573  0.0424  0.4391  0.1213
   44TAL   C21718719  -2.696  -1.328  -0.712  0.3763 -0.6976 -0.9155
   44TAL   C21818720  -2.748  -1.262  -0.835 -0.1695  0.1798  0.7924
   44TAL   C21918721  -2.736  -1.338  -0.962 -0.4269  0.2209 -0.6435
   44TAL   C22018722  -2.785  -1.239  -1.080 -0.1565 -0.3383  0.4746
   45HTM   C22118723  -2.835  -1.659  -0.423 -0.1695 -0.2686 -0.0607
   45HTM   C22218724  -2.869  -1.755  -0.333 -0.3788  0.0569  0.2117
   45HTM   C22318725  -3.011  -1.782  -0.328 -0.4482  0.4419  0.3562
   45HTM   C22418726  -3.084  -1.705  -0.414 -0.2916  0.4102  0.1941
   45HTM    S2318727  -2.979  -1.594  -0.509 -0.0426 -0.1125 -0.1566
   46TAL   C22518728  -3.062  -1.890  -0.231  0.1230 -0.1620  0.7408
   46TAL   C22618729  -2.972  -1.929  -0.113 -0.3584  0.0644 -1.9386
   46TAL   C22718730  -3.018  -2.051  -0.027 -0.3646 -0.4379  0.7815
   46TAL   C22818731  -2.912  -2.118   0.065 -1.5706 -0.3272  0.2821
   46TAL   C22918732  -2.955  -2.230   0.145 -0.0534 -0.3423 -0.0579
   46TAL   C23018733  -2.836  -2.272   0.228 -1.2811 -0.2039  0.1410
   47HTM   C23118734  -3.226  -1.682  -0.424  0.7864  0.2003  0.2562
   47HTM   C23218735  -3.329  -1.765  -0.455  1.1704 -0.3887  0.5112
   47HTM   C23318736  -3.450  -1.696  -0.490  0.8204 -1.0641  0.3517
   47HTM   C23418737  -3.439  -1.560  -0.486  0.1695 -0.9902 -0.0251
   47HTM    S2418738  -3.273  -1.509  -0.437 -0.0538 -0.0544 -0.2091
   48TAL   C23518739  -3.591  -1.754  -0.509 -0.1271  0.7125 -0.4161
   48TAL   C23618740  -3.644  -1.829  -0.389 -0.7648 -0.4152 -0.3480
   48TAL   C23718741  -3.793  -1.827  -0.388  0.3426  0.0412 -0.4846
   48TAL   C23818742  -3.871  -1.918  -0.492  0.0932  0.7595  0.1467
   48TAL   C23918743  -3.838  -2.071  -0.515  0.2150 -0.0563 -0.2177
   48TAL   C24018744  -3.827  -2.161  -0.395  0.1069 -0.8333 -0.2809
    1HTM     C118745   7.097   7.661   1.123 -0.0642  0.2135  0.2383
    1HTM     C218746   7.156   7.551   1.176 -0.1549  0.1332  0.1736
    1HTM     C318747   7.230   7.473   1.080 -0.4885 -0.0501  0.0620
    1HTM     C418748   7.227   7.524   0.954 -0.6525 -0.1096  0.0414
    1HTM     S118749   7.130   7.675   0.946 -0.3959  0.0627  0.1626
    2TAL     C518750   7.318   7.352   1.129  0.6758 -0.2660 -0.1305
    2TAL     C618751   7.430   7.381   1.234 -0.5978  0.8377 -0.2294
    2TAL     C718752   7.531   7.274   1.279  0.7811 -0.5402 -1.7275
    2TAL     C818753   7.561   7.173   1.165  0.4828 -0.1800  0.2479
    2TAL     C918754   7.496   7.029   1.169 -0.1009 -0.3410  0.3332
    2TAL    C1018755   7.526   6.951   1.291 -0.7277  0.6942  0.7675
    3HTM    C1118756   7.306   7.483   0.837 -0.2301 -0.2525  0.1829
    3HTM    C1218757   7.374   7.556   0.744 -0.3686 -0.2096  0.1144
    3HTM    C1318758   7.418   7.480   0.631 -0.2671 -0.2226  0.1622
    3HTM    C1418759   7.384   7.348   0.637 -0.0510 -0.2754  0.2672
    3HTM     S218760   7.292   7.310   0.787  0.0415 -0.3131  0.3142
    4TAL    C1518761   7.519   7.536   0.515  1.0000  0.2886 -0.2917
    4TAL    C1618762   7.653   7.521   0.561 -0.8031  0.3246 -0.3988
    4TAL    C1718763   7.724   7.512   0.426 -0.2470  0.1920 -0.5392
    4TAL    C1818764   7.859   7.425   0.436  0.1652  0.0511  0.3961
    4TAL    C1918765   7.916   7.394   0.300  0.0990  0.2333  0.0561
    4TAL    C2018766   8.041   7.300   0.308 -0.1048 -1.3623 -0.0780
    5HTM    C2118767   7.395   7.244   0.539 -0.4270 -0.0525  0.3599
    5HTM    C2218768   7.467   7.128   0.548 -0.2000  0.0980  0.4885
    5HTM    C2318769   7.443   7.037   0.439  0.2011  0.0545  0.4342
    5HTM    C2418770   7.353   7.082   0.348  0.2799 -0.1288  0.2640
    5HTM     S318771   7.291   7.245   0.392 -0.1498 -0.2619  0.1585
    6TAL    C2518772   7.512   6.903   0.415 -0.0326  0.4257 -0.3186
    6TAL    C2618773   7.665   6.910   0.408  0.1030 -0.6882 -0.0156
    6TAL    C2718774   7.763   6.960   0.525 -1.0509 -0.5121  0.1463
    6TAL    C2818775   7.731   6.895   0.659  0.8572 -1.4900  0.5574
    6TAL    C2918776   7.777   6.982   0.776  0.2592  0.0057 -0.3226
    6TAL    C3018777   7.743   6.896   0.897  0.7350 -0.3429  0.1827
    7HTM    C3118778   7.292   7.023   0.232 -0.3291 -0.4371  0.2723
    7HTM    C3218779   7.171   7.062   0.184 -0.4061 -0.7375  0.2144
    7HTM    C3318780   7.134   7.001   0.059 -0.1112 -0.6914  0.1044
    7HTM    C3418781   7.228   6.914   0.011  0.1907 -0.3559  0.0781
    7HTM     S418782   7.371   6.903   0.122  0.1255 -0.0699  0.1919
    8TAL    C3518783   7.008   7.022  -0.026 -0.3487 -0.5619 -0.5472
    8TAL    C3618784   6.896   7.100   0.051 -0.2853 -0.0270  0.1612
    8TAL    C3718785   6.776   7.058  -0.024 -0.5955 -0.2468  0.5336
    8TAL    C3818786   6.643   7.141  -0.038  0.0589  0.0745  0.3950
    8TAL    C3918787   6.509   7.068  -0.010  0.3901 -0.2125  0.4634
    8TAL    C4018788   6.503   7.014   0.126  0.4300  0.0200 -0.0703
    9HTM    C4118789   7.236   6.853  -0.126  0.1676  0.0103 -0.0091
    9HTM    C4218790   7.162   6.761  -0.194  0.2880  0.0669 -0.2182
    9HTM    C4318791   7.208   6.737  -0.328  0.2278  0.5500 -0.3302
    9HTM    C4418792   7.318   6.810  -0.362  0.0613  0.8621 -0.2063
    9HTM     S518793   7.372   6.916  -0.227 -0.0330  0.5674  0.0630
   10TAL    C4518794   7.142   6.636  -0.411  0.3356  0.6275 -0.4069
   10TAL    C4618795   7.180   6.490  -0.374 -0.0713  0.4998  0.3442
   10TAL    C4718796   7.094   6.381  -0.454 -0.3172  0.8130  0.5552
   10TAL    C4818797   7.110   6.233  -0.425 -0.6233  0.9781  0.0547
   10TAL    C4918798   7.108   6.193  -0.278 -0.3743 -0.2981  0.3128
   10TAL    C5018799   7.054   6.056  -0.244  0.1154  0.3234 -0.3647
   11HTM    C5118800   7.402   6.824  -0.486 -0.1672 -0.5956 -0.4849
   11HTM    C5218801   7.360   6.809  -0.614  0.1162 -0.7389 -0.5634
   11HTM    C5318802   7.460   6.842  -0.712  0.1373 -0.2457 -0.3808
   11HTM    C5418803   7.579   6.882  -0.659 -0.1300  0.2737 -0.1629
   11HTM     S618804   7.573   6.881  -0.478 -0.4315  0.1794 -0.1717
   12TAL    C5518805   7.433   6.845  -0.860  0.0943  0.5096  0.8540
   12TAL    C5618806   7.345   6.956  -0.915  0.2958  0.0547 -0.0668
   12TAL    C5718807   7.256   6.906  -1.023  0.5436  0.2264 -0.2116
   12TAL    C5818808   7.159   6.997  -1.085 -0.4424 -0.1207 -0.7457
   12TAL    C5918809   7.062   6.953  -1.196 -0.1947 -0.1522  0.2451
   12TAL    C6018810   6.977   6.827  -1.189 -0.0939  0.4056 -0.3071
   13HTM    C6118811   7.714   6.920  -0.707 -0.1741 -0.1859 -0.0587
   13HTM    C6218812   7.834   6.878  -0.657 -0.2612 -0.8373 -0.3870
   13HTM    C6318813   7.947   6.920  -0.735 -0.2289 -1.2807 -0.5841
   13HTM    C6418814   7.914   6.994  -0.845 -0.1169 -0.9674 -0.4065
   13HTM     S718815   7.736   7.018  -0.858 -0.0433 -0.0815  0.0274
   14TAL    C6518816   8.094   6.891  -0.696  0.0902 -0.1319  0.1018
   14TAL    C6618817   8.131   6.784  -0.590 -0.4254 -0.6207  0.7356
   14TAL    C6718818   8.072   6.643  -0.597  0.4945  0.2605 -0.2479
   14TAL    C6818819   8.138   6.553  -0.504  0.1634  0.2608 -0.0690
   14TAL    C6918820   8.040   6.478  -0.406  0.0394  0.6829 -0.2165
   14TAL    C7018821   7.911   6.408  -0.448  0.0416  0.3932 -0.3110
   15HTM    C7118822   8.004   7.027  -0.951 -0.3899 -0.2218 -0.6271
   15HTM    C7218823   8.037   6.962  -1.066 -0.3126  0.4035 -0.9718
   15HTM    C7318824   8.121   7.038  -1.154 -0.4077  0.9636 -0.5882
   15HTM    C7418825   8.153   7.162  -1.107 -0.5572  0.7650  0.0483
   15HTM     S818826   8.078   7.192  -0.945 -0.5900 -0.1515  0.2145
   16TAL    C7518827   8.170   6.963  -1.282 -0.5689 -1.4204 -1.2523
   16TAL    C7618828   8.283   6.859  -1.289  0.7773  0.8701  0.0518
   16TAL    C7718829   8.309   6.820  -1.435 -0.2404  0.7120  0.2739
   16TAL    C7818830   8.463   6.833  -1.464  0.6203 -1.0815 -0.0228
   16TAL    C7918831   8.491   6.969  -1.530 -0.7956  0.6088 -0.4145
   16TAL    C8018832   8.644   6.995  -1.496  0.4688  0.3496 -0.7245
   17HTM    C8118833   8.236   7.268  -1.163 -0.2971  0.0171  0.2975
   17HTM    C8218834   8.187   7.395  -1.176 -0.3645 -0.0434 -0.0823
   17HTM    C8318835   8.254   7.473  -1.277 -0.2804 -0.2493 -0.1874
   17HTM    C8418836   8.353   7.406  -1.341 -0.1487 -0.3457  0.1125
   17HTM     S918837   8.371   7.237  -1.279 -0.1206 -0.1827  0.5539
   18TAL    C8518838   8.216   7.620  -1.296  0.7427  0.6220 -0.4657
   18TAL    C8618839   8.321   7.725  -1.251 -0.9541  0.2628 -0.3347
   18TAL    C8718840   8.294   7.871  -1.289  0.1491 -0.0295 -1.0663
   18TAL    C8818841   8.267   7.891  -1.437 -0.0823 -0.2079  0.6284
   18TAL    C8918842   8.362   7.850  -1.554  0.3248 -1.5414  0.1810
   18TAL    C9018843   8.496   7.923  -1.560 -0.4051 -1.1336 -0.7239
   19HTM    C9118844   8.435   7.451  -1.458  0.0821  0.4946 -0.4608
   19HTM    C9218845   8.407   7.537  -1.559  0.5202  0.5500 -0.5383
   19HTM    C9318846   8.503   7.533  -1.667  0.6351  0.1415 -0.4244
   19HTM    C9418847   8.604   7.444  -1.647  0.2844 -0.2255 -0.2595
   19HTM    S1018848   8.586   7.357  -1.490 -0.2218 -0.0823 -0.2357
   20TAL    C9518849   8.476   7.605  -1.798  0.8317  0.1752 -0.1074
   20TAL    C9618850   8.405   7.534  -1.910  1.4619 -0.1387  0.4584
   20TAL    C9718851   8.487   7.524  -2.039 -1.2027  0.8896 -0.7871
   20TAL    C9818852   8.411   7.482  -2.162  0.3550  0.3555  0.2144
   20TAL    C9918853   8.507   7.400  -2.252 -1.5949 -0.5444  0.0363
   20TAL   C10018854   8.579   7.471  -2.367  0.7161 -0.2493 -0.0276
   21HTM   C10118855   8.708   7.418  -1.738 -0.4079 -0.0508 -0.1419
   21HTM   C10218856   8.833   7.473  -1.728 -0.4008 -0.0669 -0.1390
   21HTM   C10318857   8.927   7.421  -1.823 -0.5069  0.2035 -0.3921
   21HTM   C10418858   8.875   7.327  -1.907 -0.5946  0.4258 -0.5884
   21HTM    S1118859   8.701   7.296  -1.871 -0.5498  0.3098 -0.4677
   22TAL   C10518860   9.078   7.461  -1.818  0.4205 -0.5028 -0.4769
   22TAL   C10618861   9.107   7.610  -1.827 -0.5869 -0.6729  0.5190
   22TAL   C10718862   9.041   7.679  -1.955  0.4230  0.7763  0.0087
   22TAL   C10818863   9.097   7.625  -2.092 -0.5921 -0.7284  0.1591
   22TAL   C10918864   9.051   7.689  -2.224 -0.4028 -0.6841  0.8531
   22TAL   C11018865   8.913   7.674  -2.269  0.0963 -1.0152  0.1657
   23HTM   C11118866   8.929   7.276  -2.036  0.2397  1.2859 -0.7404
   23HTM   C11218867   8.874   7.287  -2.160  0.4723  1.0320 -0.8663
   23HTM   C11318868   8.965   7.251  -2.266  0.3529 -0.1839 -0.5802
   23HTM   C11418869   9.088   7.212  -2.222  0.0298 -0.8570 -0.2361
   23HTM    S1218870   9.099   7.218  -2.043 -0.1507 -0.0009 -0.2469
   24TAL   C11518871   8.919   7.264  -2.406 -0.1773  1.4411  0.6526
   24TAL   C11618872   8.890   7.117  -2.454  0.8822 -0.4961  0.3358
   24TAL   C11718873   8.886   7.109  -2.603 -0.6270 -0.0121 -0.7406
   24TAL   C11818874   8.879   6.974  -2.650 -0.1935  0.8110  0.6025
   24TAL   C11918875   8.876   6.974  -2.801 -0.1408  1.2812  1.6935
   24TAL   C12018876   8.953   6.871  -2.891 -0.0064  0.1880 -0.5224
   25HTM   C12118877   9.205   7.155  -2.283  0.1167 -0.0739  0.3404
   25HTM   C12218878   9.216   7.053  -2.374 -0.0818  0.8188 -0.7282
   25HTM   C12318879   9.350   7.033  -2.423 -0.2558  1.5517 -1.5546
   25HTM   C12418880   9.441   7.120  -2.369 -0.1893  1.2182 -1.1160
   25HTM    S1318881   9.365   7.233  -2.253  0.1002 -0.0577  0.3864
   26TAL   C12518882   9.399   6.905  -2.511 -0.0259 -0.1212  0.3513
   26TAL   C12618883   9.277   6.845  -2.582 -0.6730  0.0793 -0.0011
   26TAL   C12718884   9.305   6.750  -2.697  0.9850  0.1445 -0.3992
   26TAL   C12818885   9.172   6.692  -2.731  0.1745  0.4414 -0.2005
   26TAL   C12918886   9.203   6.554  -2.805 -0.0916 -0.4767  0.0563
   26TAL   C13018887   9.084   6.482  -2.863  1.0218 -0.2130 -0.8200
   27HTM   C13118888   9.585   7.135  -2.396  0.3003 -0.0332  0.1426
   27HTM   C13218889   9.638   7.172  -2.516  0.3278  0.1992  0.2245
   27HTM   C13318890   9.775   7.216  -2.508  0.1664  0.6678  0.4158
   27HTM   C13418891   9.826   7.214  -2.382  0.0160  0.7929  0.4798
   27HTM    S1418892   9.704   7.155  -2.262  0.0667  0.3246  0.3020
   28TAL   C13518893   9.861   7.248  -2.629 -0.2165  0.0000 -0.3228
   28TAL   C13618894   9.800   7.359  -2.713 -0.0512  0.4154 -0.9068
   28TAL   C13718895   9.845   7.393  -2.850 -0.7950  0.0262  0.1753
   28TAL   C13818896   9.752   7.499  -2.897 -0.5459 -1.2239  1.1059
   28TAL   C13918897   9.777   7.587  -3.027 -0.1064 -0.2109  0.0042
   28TAL   C14018898   9.878   7.698  -3.005 -0.1997  0.3956 -1.1513
   29HTM   C14118899   9.952   7.249  -2.324  0.0584 -0.1080 -0.5736
   29HTM   C14218900  10.037   7.179  -2.243 -0.2322 -0.2668 -0.4026
   29HTM   C14318901  10.150   7.256  -2.197 -0.2239 -0.4513 -0.1061
   29HTM   C14418902  10.151   7.384  -2.243  0.0731 -0.4332 -0.0511
   29HTM    S1518903  10.009   7.418  -2.349  0.3676 -0.1796 -0.3719
   30TAL   C14518904  10.262   7.177  -2.113  1.1225  0.2245  0.7490
   30TAL   C14618905  10.227   7.196  -1.970 -0.3505 -0.4596 -0.2780
   30TAL   C14718906  10.330   7.154  -1.865  0.5545  0.2066  0.6883
   30TAL   C14818907  10.462   7.233  -1.847  0.3143  0.5499 -0.2235
   30TAL   C14918908  10.432   7.372  -1.805  0.1016 -1.2626  0.3650
   30TAL   C15018909  10.357   7.390  -1.673  0.0551 -0.6599 -0.2465
   31HTM   C15118910  10.240   7.499  -2.220 -0.0175  0.7247 -0.2761
   31HTM   C15218911  10.262   7.594  -2.316  0.1681  1.0297  0.0612
   31HTM   C15318912  10.353   7.697  -2.275  0.2923  0.7635  0.4749
   31HTM   C15418913  10.400   7.683  -2.148  0.2013  0.2557  0.4533
   31HTM    S1618914  10.332   7.535  -2.069 -0.0502  0.0726 -0.0958
   32TAL   C15518915  10.376   7.821  -2.354  1.0888 -0.1455  0.3297
   32TAL   C15618916  10.518   7.828  -2.429 -0.6793  0.6577  0.5446
   32TAL   C15718917  10.556   7.692  -2.501 -0.7835 -0.1619 -0.3485
   32TAL   C15818918  10.704   7.658  -2.538 -0.2436  0.0034  0.4609
   32TAL   C15918919  10.813   7.697  -2.443 -0.2780  0.2759  0.6908
   32TAL   C16018920  10.940   7.614  -2.454  0.6392  0.3333  0.0545
   33HTM   C16118921  10.492   7.759  -2.065  0.6151 -0.1652 -0.1097
   33HTM   C16218922  10.475   7.893  -2.047  0.6928 -0.1770  0.0527
   33HTM   C16318923  10.571   7.952  -1.957  0.4965 -0.4102  0.4237
   33HTM   C16418924  10.662   7.863  -1.908  0.2692 -0.5762  0.5441
   33HTM    S1718925  10.632   7.696  -1.970  0.2855 -0.4499  0.1956
   34TAL   C16518926  10.555   8.101  -1.919  0.3915 -0.3785 -0.0153
   34TAL   C16618927  10.441   8.191  -1.941 -0.5074 -0.4409 -0.1086
   34TAL   C16718928  10.402   8.249  -2.080  0.0417  0.9700 -0.1916
   34TAL   C16818929  10.290   8.351  -2.124  0.1190  0.7775 -0.3423
   34TAL   C16918930  10.316   8.490  -2.074  0.1178  0.9840  0.6005
   34TAL   C17018931  10.190   8.564  -2.122 -0.2970  0.1956  0.5908
   35HTM   C17118932  10.770   7.888  -1.817 -0.0011  0.2836 -0.2779
   35HTM   C17218933  10.809   7.789  -1.733  0.3521 -0.0879 -0.8638
   35HTM   C17318934  10.917   7.826  -1.645  0.7185 -0.4729 -1.1380
   35HTM   C17418935  10.960   7.954  -1.662  0.6446 -0.3951 -0.7619
   35HTM    S1818936  10.867   8.038  -1.792  0.1023  0.1749 -0.0257
   36TAL   C17518937  10.974   7.721  -1.544 -0.2845  0.0228  0.0002
   36TAL   C17618938  10.939   7.577  -1.570  0.4360  0.4985  0.1577
   36TAL   C17718939  10.789   7.548  -1.532 -0.1877 -0.0486  1.8516
   36TAL   C17818940  10.736   7.411  -1.582  0.6084  0.8640  0.6265
   36TAL   C17918941  10.819   7.282  -1.559 -0.0200 -0.0623 -0.0921
   36TAL   C18018942  10.780   7.153  -1.635 -0.3774  1.2217 -0.0157
   37HTM   C18118943  11.032   8.040  -1.575  0.0748  0.1328  0.1114
   37HTM   C18218944  11.029   8.039  -1.439 -0.3624  0.0360  0.1037
   37HTM   C18318945  11.110   8.142  -1.378 -0.6004  0.0315  0.4370
   37HTM   C18418946  11.175   8.221  -1.469 -0.3446  0.1251  0.6986
   37HTM    S1918947  11.138   8.171  -1.638  0.2210  0.2265  0.5431
   38TAL   C18518948  11.121   8.143  -1.232 -0.8674  0.2045 -0.5077
   38TAL   C18618949  11.037   8.064  -1.124  0.6527  0.4877  0.6994
   38TAL   C18718950  11.030   8.121  -0.997  0.7740 -0.6657 -0.3163
   38TAL   C18818951  10.936   8.049  -0.897  0.5281 -0.8764 -0.0300
   38TAL   C18918952  10.986   8.115  -0.769  0.0923 -0.5365 -0.3563
   38TAL   C19018953  10.940   8.049  -0.638  0.4484  0.1838  1.1250
   39HTM   C19118954  11.254   8.336  -1.469 -0.8154  0.0198 -0.4473
   39HTM   C19218955  11.340   8.376  -1.567 -0.9562  0.0308 -0.5684
   39HTM   C19318956  11.423   8.488  -1.528 -0.6132 -0.2332 -0.5257
   39HTM   C19418957  11.399   8.532  -1.402 -0.2108 -0.4457 -0.3729
   39HTM    S2018958  11.270   8.436  -1.320 -0.2340 -0.3278 -0.2691
   40TAL   C19518959  11.517   8.551  -1.622 -0.6510  1.0670  0.4751
   40TAL   C19618960  11.661   8.483  -1.611  0.3720 -0.2152 -0.2865
   40TAL   C19718961  11.759   8.530  -1.718  0.4670 -0.2599  0.9205
   40TAL   C19818962  11.696   8.490  -1.860 -0.3440  0.1573 -0.7480
   40TAL   C19918963  11.729   8.337  -1.884  0.1056  0.4922 -0.6733
   40TAL   C20018964  11.615   8.243  -1.943  0.5146  0.2508  0.3212
   41HTM   C20118965  11.477   8.635  -1.331 -0.1837  0.3069  0.4668
   41HTM   C20218966  11.454   8.770  -1.333  0.2465  0.3836  0.1709
   41HTM   C20318967  11.548   8.846  -1.256  0.6430  0.2797 -0.2060
   41HTM   C20418968  11.644   8.770  -1.195  0.5150  0.1238 -0.1971
   41HTM    S2118969  11.622   8.595  -1.231 -0.1210  0.0959  0.2914
   42TAL   C20518970  11.551   8.999  -1.272 -0.0266 -0.4430  0.0432
   42TAL   C20618971  11.476   9.065  -1.402 -0.9042 -0.4435 -0.5775
   42TAL   C20718972  11.499   9.009  -1.543  0.1978 -0.1730  1.0186
   42TAL   C20818973  11.638   9.044  -1.596 -0.5631  0.6167 -0.7020
   42TAL   C20918974  11.679   8.950  -1.715 -0.2164 -0.5169 -0.0319
   42TAL   C21018975  11.812   8.999  -1.771 -0.0480  0.0121 -0.0791
   43HTM   C21118976  11.744   8.807  -1.100  0.2851  0.2369 -0.0132
   43HTM   C21218977  11.782   8.725  -0.998 -0.0154  0.2546  0.1128
   43HTM   C21318978  11.866   8.789  -0.900 -0.3412  0.2844  0.3755
   43HTM   C21418979  11.892   8.920  -0.927 -0.2893  0.2894  0.4500
   43HTM    S2218980  11.812   8.973  -1.080  0.1790  0.2571  0.1920
   44TAL   C21518981  11.905   8.732  -0.766  0.5805 -0.7554  0.0467
   44TAL   C21618982  11.846   8.598  -0.729  1.2056  0.2640  0.5914
   44TAL   C21718983  11.880   8.550  -0.592 -0.8275 -0.5782  0.2137
   44TAL   C21818984  12.024   8.549  -0.536 -0.3315  0.5994 -0.3663
   44TAL   C21918985  12.097   8.432  -0.600 -0.0527 -0.0965 -0.9026
   44TAL   C22018986  12.246   8.463  -0.597 -0.8738 -0.0973  0.2374
   45HTM   C22118987  11.968   9.020  -0.859 -0.3922 -0.1618 -0.2037
   45HTM   C22218988  11.954   9.155  -0.859 -0.1167 -0.1333 -0.3889
   45HTM   C22318989  12.059   9.225  -0.790  0.0439 -0.2484 -0.5140
   45HTM   C22418990  12.153   9.142  -0.736 -0.1093 -0.3653 -0.4241
   45HTM    S2318991  12.116   8.969  -0.769 -0.4710 -0.3383 -0.1727
   46TAL   C22518992  12.062   9.378  -0.793 -0.1310 -0.3384 -0.6152
   46TAL   C22618993  11.962   9.473  -0.857  0.2423  0.3480  0.3049
   46TAL   C22718994  11.852   9.525  -0.766  0.7397  0.5954 -0.7691
   46TAL   C22818995  11.777   9.655  -0.802  0.6559 -0.0985  0.5492
   46TAL   C22918996  11.864   9.765  -0.870  0.5717 -0.1365  0.5567
   46TAL   C23018997  11.794   9.905  -0.885  0.1095  0.6313 -0.3166
   47HTM   C23118998  12.260   9.164  -0.642 -0.0956  0.5971  0.0908
   47HTM   C23218999  12.297   9.281  -0.582  0.2630  0.3383  0.3874
   47HTM   C23319000  12.402   9.266  -0.484  0.2456 -0.2234  0.3262
   47HTM   C23419001  12.445   9.138  -0.470 -0.1264 -0.3922 -0.0167
   47HTM    S2419002  12.356   9.025  -0.579 -0.4863  0.1485 -0.2916
   48TAL   C23519003  12.485   9.368  -0.409  0.2066 -0.7654  0.3687
   48TAL   C23619004  12.398   9.488  -0.373  0.1372 -0.0316  0.5072
   48TAL   C23719005  12.298   9.463  -0.262 -0.2155  0.7175 -0.2120
   48TAL   C23819006  12.224   9.604  -0.225 -0.1824  1.0948 -0.0940
   48TAL   C23919007  12.144   9.622  -0.105  0.6534  0.0914  0.2001
   48TAL   C24019008  12.241   9.677   0.002  0.5243  0.8566  1.3362
    1HTM     C119009   2.165   5.192   0.996  0.5467 -0.5105 -0.1734
    1HTM     C219010   2.157   5.328   0.989  1.6161 -0.4292 -0.1870
    1HTM     C319011   2.085   5.376   0.874  1.3725  0.0899  0.1757
    1HTM     C419012   2.038   5.278   0.793  0.1173  0.4041  0.4658
    1HTM     S119013   2.082   5.114   0.856 -0.8619  0.0664  0.3022
    2TAL     C519014   2.058   5.524   0.859  0.7549  0.8075  0.1469
    2TAL     C619015   2.175   5.609   0.804  0.1084  0.5551 -0.0808
    2TAL     C719016   2.213   5.562   0.665  0.8159  0.0585  0.1686
    2TAL     C819017   2.302   5.662   0.602  0.2862 -0.3956  0.1521
    2TAL     C919018   2.241   5.763   0.510 -0.0030  0.8429 -1.7953
    2TAL    C1019019   2.339   5.874   0.479 -0.1728  0.5039 -0.3737
    3HTM    C1119020   1.985   5.276   0.660 -0.1830  0.4481  0.5875
    3HTM    C1219021   2.023   5.213   0.544  0.3494  0.7033  0.6168
    3HTM    C1319022   1.941   5.247   0.431  0.5178  0.5187  0.4384
    3HTM    C1419023   1.841   5.335   0.459  0.1138  0.1225  0.2732
    3HTM     S219024   1.842   5.383   0.634 -0.5156 -0.0492  0.3304
    4TAL    C1519025   1.975   5.185   0.289  1.0933  0.3265  0.0464
    4TAL    C1619026   2.009   5.286   0.175  0.2937  1.0010  0.2651
    4TAL    C1719027   2.029   5.198   0.047  0.2503 -0.0219 -0.3279
    4TAL    C1819028   2.034   5.264  -0.091  0.8138  0.5988  0.2382
    4TAL    C1919029   2.057   5.162  -0.195  1.2502 -0.4292 -0.6616
    4TAL    C2019030   2.038   5.219  -0.336  0.2375  0.3053 -0.7343
    5HTM    C2119031   1.716   5.362   0.383  0.2488  0.2412  0.3218
    5HTM    C2219032   1.659   5.303   0.275  0.8310  0.6256 -0.2139
    5HTM    C2319033   1.542   5.371   0.226  1.0298  0.7383 -0.5394
    5HTM    C2419034   1.510   5.483   0.297  0.5992  0.4397 -0.2519
    5HTM     S319035   1.626   5.511   0.432 -0.0963 -0.0102  0.4578
    6TAL    C2519036   1.468   5.302   0.109 -0.7514 -0.2404  0.1182
    6TAL    C2619037   1.337   5.230   0.146  1.0203 -0.1559  0.1801
    6TAL    C2719038   1.337   5.117   0.258  0.2263 -0.4430  0.7526
    6TAL    C2819039   1.194   5.065   0.296 -0.7813  1.2682 -0.4955
    6TAL    C2919040   1.089   5.149   0.359 -0.0515 -0.5482  0.2985
    6TAL    C3019041   0.963   5.072   0.375  0.9839 -0.4049  0.0358
    7HTM    C3119042   1.415   5.584   0.273  0.0243 -0.0750  0.2200
    7HTM    C3219043   1.431   5.717   0.246  0.3256  0.0017  0.7421
    7HTM    C3319044   1.308   5.790   0.241  0.4895  0.3023  1.0073
    7HTM    C3419045   1.197   5.714   0.264  0.3132  0.4547  0.6874
    7HTM     S419046   1.242   5.541   0.294 -0.0765  0.2287  0.0213
    8TAL    C3519047   1.291   5.941   0.191 -0.2984 -1.1087 -0.6755
    8TAL    C3619048   1.424   6.016   0.168  0.9211 -0.1326  0.0938
    8TAL    C3719049   1.424   6.166   0.176  0.2416 -0.0294 -0.5476
    8TAL    C3819050   1.475   6.204   0.319 -1.8209  0.0809  0.0322
    8TAL    C3919051   1.439   6.351   0.359 -0.5142 -0.2190 -0.6009
    8TAL    C4019052   1.292   6.388   0.348  0.1688  0.9435 -0.3835
    9HTM    C4119053   1.059   5.751   0.244  0.6148 -0.0502 -0.4803
    9HTM    C4219054   0.968   5.708   0.336  1.0349 -0.3366 -0.1908
    9HTM    C4319055   0.831   5.716   0.291  0.8438 -0.4970  0.3418
    9HTM    C4419056   0.818   5.766   0.165  0.2780 -0.3330  0.4585
    9HTM     S519057   0.978   5.805   0.092 -0.0599  0.0398 -0.0997
   10TAL    C4519058   0.697   5.706   0.375  0.0543 -0.2904  0.8461
   10TAL    C4619059   0.688   5.601   0.496 -0.4179  0.2418 -0.0849
   10TAL    C4719060   0.691   5.455   0.461  1.1053  0.1931  0.5229
   10TAL    C4819061   0.620   5.370   0.559  0.2518 -0.3782 -1.4099
   10TAL    C4919062   0.555   5.250   0.479 -0.5788 -0.9254 -0.1695
   10TAL    C5019063   0.453   5.197   0.577  0.0931  0.1622  0.6841
   11HTM    C5119064   0.713   5.777   0.069 -0.5861  0.0353  0.2465
   11HTM    C5219065   0.621   5.876   0.064 -0.4914  0.1051 -0.1759
   11HTM    C5319066   0.543   5.877  -0.057 -0.0949  0.0248 -0.4342
   11HTM    C5419067   0.576   5.778  -0.144  0.1129 -0.1064 -0.2085
   11HTM     S619068   0.710   5.675  -0.080 -0.1785 -0.1387  0.3517
   12TAL    C5519069   0.425   5.970  -0.066  0.1594  0.5325 -0.0588
   12TAL    C5619070   0.311   5.943   0.038  0.1289 -1.3435 -1.2705
   12TAL    C5719071   0.217   6.068   0.030  0.1174 -0.0472  0.3511
   12TAL    C5819072   0.088   6.058   0.100  0.3554  1.0822 -0.2010
   12TAL    C5919073   0.077   5.993   0.232 -0.5941  0.0169 -0.2781
   12TAL    C6019074  -0.064   5.972   0.265 -0.2359  0.7202  0.2639
   13HTM    C6119075   0.510   5.742  -0.271 -0.0513  0.3548 -0.2143
   13HTM    C6219076   0.390   5.765  -0.332  0.1309  0.5864 -0.4885
   13HTM    C6319077   0.377   5.703  -0.461  0.1705  0.3157 -0.3617
   13HTM    C6419078   0.487   5.631  -0.498  0.0184 -0.1225  0.0092
   13HTM     S719079   0.616   5.638  -0.372 -0.1881 -0.2280  0.2287
   14TAL    C6519080   0.234   5.726  -0.532 -0.7219  0.1545  0.5238
   14TAL    C6619081   0.189   5.643  -0.650  0.3315 -0.1945 -0.8805
   14TAL    C6719082   0.162   5.492  -0.629  1.0995  0.5848  0.9422
   14TAL    C6819083   0.039   5.449  -0.717  0.2651 -0.5806 -0.6255
   14TAL    C6919084   0.059   5.306  -0.771  0.3013 -0.0859  0.0449
   14TAL    C7019085   0.096   5.185  -0.688 -0.6692 -0.0248  0.1713
   15HTM    C7119086   0.531   5.556  -0.614 -0.0999 -0.2806  0.5774
   15HTM    C7219087   0.582   5.608  -0.729 -0.4240 -0.0523  0.5329
   15HTM    C7319088   0.613   5.509  -0.829 -0.6993  0.1438  0.2472
   15HTM    C7419089   0.586   5.381  -0.790 -0.5852  0.0653  0.0743
   15HTM     S819090   0.518   5.377  -0.623 -0.1174 -0.2652  0.2596
   16TAL    C7519091   0.675   5.539  -0.971 -0.0653 -0.3145  0.0890
   16TAL    C7619092   0.694   5.685  -1.027 -0.3146 -1.0558 -1.3931
   16TAL    C7719093   0.757   5.706  -1.148 -0.7153 -0.7098 -0.4222
   16TAL    C7819094   0.898   5.632  -1.174  1.3226  0.1427 -0.2421
   16TAL    C7919095   1.005   5.667  -1.084 -0.6486 -0.1383 -0.6230
   16TAL    C8019096   1.135   5.706  -1.157  0.4162  0.3711  1.0941
   17HTM    C8119097   0.583   5.260  -0.877 -0.5886 -0.4118  0.2776
   17HTM    C8219098   0.471   5.231  -0.948 -0.6474 -0.7480  0.5035
   17HTM    C8319099   0.467   5.096  -0.997 -0.2798 -0.7231  0.4013
   17HTM    C8419100   0.576   5.022  -0.964  0.0593 -0.3679  0.0978
   17HTM     S919101   0.694   5.118  -0.866 -0.0602 -0.0346 -0.0842
   18TAL    C8519102   0.351   5.045  -1.086 -0.8060  1.0785  0.6667
   18TAL    C8619103   0.278   5.142  -1.175 -0.4835 -0.2614  0.6924
   18TAL    C8719104   0.157   5.078  -1.261  0.0473 -0.4596 -1.0092
   18TAL    C8819105   0.033   5.073  -1.178 -0.5595 -1.4021 -0.1605
   18TAL    C8919106  -0.093   5.090  -1.257  0.4471  0.5372 -0.3563
   18TAL    C9019107  -0.139   5.227  -1.324  0.5723  0.1299 -1.3531
   19HTM    C9119108   0.618   4.885  -1.009 -0.7578  0.0556 -0.1507
   19HTM    C9219109   0.737   4.850  -1.067 -0.7944  0.6440 -0.5968
   19HTM    C9319110   0.742   4.713  -1.111 -0.2690  0.6543 -0.5815
   19HTM    C9419111   0.627   4.643  -1.087  0.1684  0.0739 -0.1240
   19HTM    S1019112   0.503   4.746  -1.006 -0.0513 -0.5357  0.3264
   20TAL    C9519113   0.868   4.648  -1.174  0.3538  0.0423  0.6249
   20TAL    C9619114   0.963   4.574  -1.078  0.4745 -0.5921  1.2542
   20TAL    C9719115   1.023   4.664  -0.961  0.5047 -0.4040  0.6999
   20TAL    C9819116   1.134   4.591  -0.885 -1.2077 -0.5568  0.2742
   20TAL    C9919117   1.257   4.546  -0.967  1.4964  0.3505 -0.4329
   20TAL   C10019118   1.357   4.466  -0.884 -0.6601 -0.1547 -0.0247
   21HTM   C10119119   0.584   4.507  -1.107 -0.1697 -0.2158 -0.3543
   21HTM   C10219120   0.568   4.410  -1.012 -0.1199 -0.2710 -0.4022
   21HTM   C10319121   0.526   4.283  -1.066 -0.5037 -0.1404 -0.4141
   21HTM   C10419122   0.509   4.283  -1.201 -0.8463  0.0141 -0.3752
   21HTM    S1119123   0.547   4.445  -1.272 -0.7095  0.0069 -0.3202
   22TAL   C10519124   0.486   4.174  -0.960  0.4431  0.6931 -0.5010
   22TAL   C10619125   0.557   4.051  -0.949 -0.5573 -0.1105 -0.3418
   22TAL   C10719126   0.703   4.076  -0.909  0.4689 -0.4315 -0.0882
   22TAL   C10819127   0.796   3.998  -1.002 -0.7448 -0.0594 -0.3545
   22TAL   C10919128   0.951   3.998  -0.993 -0.3490 -0.0137 -1.3504
   22TAL   C11019129   1.009   4.150  -1.003  0.8949  0.8888  0.1681
   23HTM   C11119130   0.504   4.173  -1.280  0.4386  0.6276  0.0007
   23HTM   C11219131   0.397   4.089  -1.281 -0.3188  1.5506 -0.2701
   23HTM   C11319132   0.410   3.980  -1.374 -1.0329  1.4259 -0.2356
   23HTM   C11419133   0.527   3.981  -1.444 -0.8201  0.4079  0.0621
   23HTM    S1219134   0.630   4.121  -1.398  0.3076 -0.4792  0.3234
   24TAL   C11519135   0.318   3.851  -1.377 -0.7718  0.5029 -0.3476
   24TAL   C11619136   0.279   3.776  -1.250  0.1757 -0.5740 -0.2358
   24TAL   C11719137   0.388   3.740  -1.152 -0.0658 -0.8643 -0.7494
   24TAL   C11819138   0.475   3.612  -1.190  0.3056 -0.3974 -0.1565
   24TAL   C11919139   0.598   3.593  -1.099  0.7291  0.4555  0.2090
   24TAL   C12019140   0.736   3.598  -1.171  0.2018  0.9799  0.0472
   25HTM   C12119141   0.579   3.887  -1.546  0.1111 -0.1143 -0.1063
   25HTM   C12219142   0.703   3.897  -1.602  0.2158 -0.7228 -0.0017
   25HTM   C12319143   0.722   3.812  -1.717  0.0463 -1.1351  0.2701
   25HTM   C12419144   0.612   3.737  -1.748 -0.1876 -0.8409  0.3731
   25HTM    S1319145   0.476   3.768  -1.634 -0.2121 -0.0140  0.1324
   26TAL   C12519146   0.858   3.818  -1.791 -0.6588 -0.1257 -1.4492
   26TAL   C12619147   0.944   3.690  -1.798 -0.8938 -0.3860 -1.4811
   26TAL   C12719148   1.005   3.633  -1.665  0.4139 -0.6166  0.4982
   26TAL   C12819149   1.091   3.726  -1.587  0.8628  0.3639  0.3543
   26TAL   C12919150   1.029   3.796  -1.472 -0.1460 -0.0405  0.7255
   26TAL   C13019151   1.104   3.884  -1.380 -0.7243  0.1428 -0.6963
   27HTM   C13119152   0.604   3.645  -1.860 -0.0579 -0.0177  0.6761
   27HTM   C13219153   0.543   3.658  -1.981 -0.3520  0.4611  0.8672
   27HTM   C13319154   0.548   3.538  -2.061 -0.7716  0.6920  0.4870
   27HTM   C13419155   0.612   3.434  -2.001 -0.7974  0.3894  0.0057
   27HTM    S1419156   0.672   3.480  -1.837 -0.2898 -0.2154 -0.0044
   28TAL   C13519157   0.486   3.544  -2.201 -1.0385  0.5743 -0.1787
   28TAL   C13619158   0.336   3.508  -2.221 -0.0501 -1.0788 -0.2578
   28TAL   C13719159   0.242   3.599  -2.145 -0.7513  0.7561  0.2023
   28TAL   C13819160   0.107   3.521  -2.161 -1.2753 -0.7206  0.4178
   28TAL   C13919161   0.003   3.614  -2.134  1.2089 -0.9815 -0.2627
   28TAL   C14019162  -0.128   3.535  -2.124  0.1618 -0.6432 -1.2341
   29HTM   C14119163   0.637   3.294  -2.037  0.6007  0.3026  0.1295
   29HTM   C14219164   0.647   3.249  -2.165 -0.3254  0.5075 -0.0319
   29HTM   C14319165   0.674   3.107  -2.174 -1.1327  0.3723 -0.4793
   29HTM   C14419166   0.684   3.046  -2.053 -0.8221  0.0642 -0.6590
   29HTM    S1519167   0.661   3.162  -1.917  0.5246 -0.0801 -0.2743
   30TAL   C14519168   0.694   3.028  -2.303 -0.1908 -0.7583  0.2573
   30TAL   C14619169   0.692   3.092  -2.438 -0.2961 -0.2426  0.3302
   30TAL   C14719170   0.720   2.971  -2.526  0.6235  0.2644 -0.5263
   30TAL   C14819171   0.681   2.974  -2.670 -0.3626 -0.1830 -0.4534
   30TAL   C14919172   0.669   2.842  -2.743 -0.3682 -0.1096 -0.1588
   30TAL   C15019173   0.609   2.843  -2.883 -0.4224 -0.3167  0.2732
   31HTM   C15119174   0.731   2.914  -2.020 -0.1495  0.0728 -0.3505
   31HTM   C15219175   0.832   2.894  -1.930  0.2146  0.2586 -0.7080
   31HTM   C15319176   0.891   2.763  -1.937  0.3728  0.3365 -0.8560
   31HTM   C15419177   0.835   2.682  -2.032  0.1293  0.2102 -0.6112
   31HTM    S1619178   0.704   2.767  -2.121 -0.3222 -0.0187 -0.1715
   32TAL   C15519179   1.011   2.724  -1.851 -0.1993 -0.4053 -0.0671
   32TAL   C15619180   1.008   2.697  -1.700  0.4041 -0.7561 -0.0235
   32TAL   C15719181   1.132   2.749  -1.625  0.7497  0.0739 -0.9504
   32TAL   C15819182   1.139   2.766  -1.465 -0.5545  0.4394  1.5163
   32TAL   C15919183   1.247   2.864  -1.417 -0.0980  0.0049  0.1851
   32TAL   C16019184   1.394   2.816  -1.404  1.2065  0.4444 -1.6634
   33HTM   C16119185   0.850   2.539  -2.056  0.6494  0.4104 -0.0755
   33HTM   C16219186   0.772   2.467  -2.141  0.4882  0.8806 -0.3306
   33HTM   C16319187   0.808   2.328  -2.150 -0.1438  0.7149 -0.4199
   33HTM   C16419188   0.915   2.294  -2.072 -0.4644  0.1184 -0.2328
   33HTM    S1719189   0.977   2.436  -1.980  0.0106 -0.2834  0.0729
   34TAL   C16519190   0.738   2.229  -2.242  0.2309  0.0122  0.6503
   34TAL   C16619191   0.607   2.176  -2.193  0.4889  0.8030  0.4528
   34TAL   C16719192   0.511   2.072  -2.274 -0.0981 -1.0034 -0.7267
   34TAL   C16819193   0.501   2.092  -2.421  0.3523 -0.2198  0.8950
   34TAL   C16919194   0.442   1.964  -2.490 -0.6535 -0.8330 -0.1856
   34TAL   C17019195   0.299   1.931  -2.457 -0.2792  1.1113  1.3957
   35HTM   C17119196   0.978   2.176  -2.034 -1.1395  0.1449 -0.1739
   35HTM   C17219197   1.040   2.152  -1.916 -1.9869  0.1879  0.3000
   35HTM   C17319198   1.086   2.016  -1.902 -2.0081  0.2150  0.6430
   35HTM   C17419199   1.058   1.937  -2.009 -1.1768  0.1926  0.4307
   35HTM    S1819200   0.972   2.029  -2.138 -0.2961  0.1352 -0.2242
   36TAL   C17519201   1.131   1.980  -1.760  0.2357 -1.2377 -0.4463
   36TAL   C17619202   1.271   1.953  -1.713 -0.6688 -0.1233  0.8136
   36TAL   C17719203   1.320   1.808  -1.745  0.7633  0.1543 -0.0082
   36TAL   C17819204   1.249   1.694  -1.670  0.2808 -0.9760 -0.2041
   36TAL   C17919205   1.254   1.550  -1.724 -0.5569 -0.7565 -0.3460
   36TAL   C18019206   1.190   1.469  -1.618  0.5327  0.3115  1.1446
   37HTM   C18119207   1.099   1.802  -2.031 -0.1985  0.0349  0.1735
   37HTM   C18219208   1.212   1.750  -2.087 -0.3044  0.3718 -0.3762
   37HTM   C18319209   1.200   1.610  -2.120 -0.2150  0.4607 -0.7900
   37HTM   C18419210   1.078   1.556  -2.090 -0.0410  0.1915 -0.5560
   37HTM    S1919211   0.968   1.679  -2.017  0.0241 -0.1980  0.2112
   38TAL   C18519212   1.317   1.521  -2.172 -0.1274 -0.3713 -0.2242
   38TAL   C18619213   1.450   1.515  -2.088 -0.6904  0.5951 -0.6807
   38TAL   C18719214   1.553   1.399  -2.114  0.0682 -1.3563 -1.2644
   38TAL   C18819215   1.656   1.355  -2.017 -0.1995  0.4920  0.3328
   38TAL   C18919216   1.713   1.230  -2.082 -0.3660 -0.4977  0.3260
   38TAL   C19019217   1.804   1.154  -1.991  0.0254  1.0281 -0.5054
   39HTM   C19119218   1.018   1.422  -2.088  0.6194 -0.1030  0.4454
   39HTM   C19219219   0.993   1.349  -2.201  0.5378  0.2003  0.2648
   39HTM   C19319220   0.923   1.226  -2.176 -0.0255  0.4418 -0.0962
   39HTM   C19419221   0.894   1.205  -2.045 -0.3733  0.3227 -0.1908
   39HTM    S2019222   0.953   1.340  -1.941 -0.0136 -0.1072  0.1717
   40TAL   C19519223   0.899   1.131  -2.291 -0.6197 -0.6421  0.4246
   40TAL   C19619224   0.766   1.153  -2.360 -0.4739  1.0094  0.0389
   40TAL   C19719225   0.685   1.024  -2.349  0.0120  0.3911 -0.5369
   40TAL   C19819226   0.553   1.038  -2.425 -0.7504 -0.7667 -0.5610
   40TAL   C19919227   0.470   0.911  -2.398 -0.0249  0.4331  1.1135
   40TAL   C20019228   0.328   0.936  -2.422 -1.4543  0.2784 -0.7959
   41HTM   C20119229   0.830   1.106  -1.970  0.5912 -0.2370 -0.3873
   41HTM   C20219230   0.703   1.103  -1.921  0.5234 -0.1385 -0.5565
   41HTM   C20319231   0.675   0.987  -1.839  0.3094 -0.1437 -0.6356
   41HTM   C20419232   0.781   0.903  -1.826  0.2140 -0.2462 -0.5270
   41HTM    S2119233   0.925   0.962  -1.916  0.3885 -0.3448 -0.3143
   42TAL   C20519234   0.531   0.984  -1.794 -0.7838  1.0812 -0.8033
   42TAL   C20619235   0.429   0.934  -1.886  0.1078 -0.2660 -0.3802
   42TAL   C20719236   0.284   0.914  -1.845  0.1016 -0.2007 -0.2005
   42TAL   C20819237   0.167   0.917  -1.941 -0.5018  0.3314  0.3035
   42TAL   C20919238   0.184   0.822  -2.062 -0.6449  0.3694  0.3637
   42TAL   C21019239   0.066   0.834  -2.156  0.0602 -0.0122 -0.0181
   43HTM   C21119240   0.800   0.781  -1.754  0.5168 -0.2487  0.0936
   43HTM   C21219241   0.904   0.693  -1.757  0.4069 -0.4066  0.7384
   43HTM   C21319242   0.884   0.577  -1.674  0.0153 -0.0507  1.1501
   43HTM   C21419243   0.764   0.577  -1.608 -0.1734  0.3785  0.8192
   43HTM    S2219244   0.667   0.724  -1.646  0.1312  0.3665 -0.0448
   44TAL   C21519245   0.994   0.470  -1.679 -1.1826 -0.7677  0.0963
   44TAL   C21619246   1.148   0.481  -1.677 -0.3615 -0.5373  0.1341
   44TAL   C21719247   1.231   0.368  -1.753 -1.2800  0.4301 -0.2241
   44TAL   C21819248   1.181   0.218  -1.743  1.1755  0.0914 -0.3730
   44TAL   C21919249   1.207   0.150  -1.608 -0.1938 -0.3561 -0.3600
   44TAL   C22019250   1.351   0.146  -1.563  0.6231 -0.5866 -0.7713
   45HTM   C22119251   0.711   0.485  -1.515 -0.5889  0.3818 -0.2906
   45HTM   C22219252   0.746   0.354  -1.503 -0.9140  0.2584 -0.6323
   45HTM   C22319253   0.665   0.280  -1.410 -0.7762  0.3453 -0.4420
   45HTM   C22419254   0.567   0.354  -1.351 -0.3460  0.5349  0.0449
   45HTM    S2319255   0.571   0.525  -1.409 -0.0795  0.6191  0.3025
   46TAL   C22519256   0.687   0.134  -1.358  0.7512 -1.0393 -1.4629
   46TAL   C22619257   0.806   0.052  -1.398 -0.6061  0.1932 -0.1206
   46TAL   C22719258   0.809  -0.087  -1.350 -0.3019  0.6342 -0.5789
   46TAL   C22819259   0.843  -0.188  -1.457  0.6143 -0.0177  1.1353
   46TAL   C22919260   0.855  -0.341  -1.428  0.8581 -0.5934 -0.5354
   46TAL   C23019261   0.912  -0.440  -1.530  1.3784  0.3511 -0.0129
   47HTM   C23119262   0.453   0.316  -1.279  0.1022 -0.1837  0.0156
   47HTM   C23219263   0.410   0.349  -1.154  0.1681 -0.2305  0.0513
   47HTM   C23319264   0.284   0.288  -1.118  0.0782 -0.0702  0.0103
   47HTM   C23419265   0.232   0.209  -1.216 -0.0563  0.0989 -0.0565
   47HTM    S2419266   0.338   0.205  -1.362 -0.0800  0.0685 -0.0729
   48TAL   C23519267   0.229   0.296  -0.969 -0.4462  0.0347 -0.1191
   48TAL   C23619268   0.175   0.431  -0.909 -0.2233 -0.7654  0.5429
   48TAL   C23719269   0.088   0.420  -0.783 -0.4614  1.2685 -0.1078
   48TAL   C23819270  -0.052   0.364  -0.806 -0.3977  0.5511 -0.1593
   48TAL   C23919271  -0.145   0.383  -0.691  0.2421 -1.1200  0.1490
   48TAL   C24019272  -0.189   0.528  -0.678  0.2952  1.0433  0.5097
    1HTM     C119273   2.400   5.157   0.583  0.0657  0.0799 -0.3665
    1HTM     C219274   2.435   5.219   0.699  0.3958 -0.0309 -0.4044
    1HTM     C319275   2.532   5.324   0.683  0.5322 -0.1773 -0.5450
    1HTM     C419276   2.571   5.343   0.553  0.3060 -0.1781 -0.6142
    1HTM     S119277   2.488   5.228   0.442 -0.1000  0.0074 -0.5065
    2TAL     C519278   2.593   5.403   0.800 -0.5456 -0.5181  0.4196
    2TAL     C619279   2.588   5.347   0.941 -0.6105  0.3102  0.0330
    2TAL     C719280   2.635   5.431   1.055 -0.4242 -0.0387  0.6863
    2TAL     C819281   2.527   5.523   1.101 -0.1395  0.5952 -0.6857
    2TAL     C919282   2.576   5.624   1.210 -0.5204 -0.1579  0.4340
    2TAL    C1019283   2.482   5.731   1.198  0.2633  0.1832  0.0609
    3HTM    C1119284   2.653   5.455   0.503 -0.3667  0.0255  0.0236
    3HTM    C1219285   2.621   5.561   0.424 -0.5107  0.1436  0.2395
    3HTM    C1319286   2.730   5.652   0.400 -0.5302  0.1326  0.1046
    3HTM    C1419287   2.846   5.614   0.461 -0.4010  0.0061 -0.2141
    3HTM     S219288   2.826   5.461   0.554 -0.2435 -0.1098 -0.3699
    4TAL    C1519289   2.703   5.775   0.315  0.7137 -0.5502 -0.7686
    4TAL    C1619290   2.650   5.897   0.389 -0.0867  0.8856 -0.4762
    4TAL    C1719291   2.681   6.027   0.314 -1.1887 -0.3384 -0.5062
    4TAL    C1819292   2.625   6.147   0.397  0.7769  0.0169  0.4252
    4TAL    C1919293   2.621   6.291   0.331 -0.2474  0.5038  0.8297
    4TAL    C2019294   2.752   6.341   0.273 -0.1745  0.7318  0.2887
    5HTM    C2119295   2.978   5.666   0.459  0.3534 -0.2612  0.1868
    5HTM    C2219296   3.060   5.684   0.567  0.5460 -0.2418  0.0382
    5HTM    C2319297   3.178   5.762   0.538  0.5537 -0.3431 -0.2141
    5HTM    C2419298   3.185   5.804   0.409  0.3668 -0.4402 -0.2579
    5HTM     S319299   3.044   5.748   0.312  0.1652 -0.4108  0.0184
    6TAL    C2519300   3.264   5.822   0.654 -0.9398  0.5579 -0.3719
    6TAL    C2619301   3.230   5.970   0.689  0.5503  0.3414 -1.2184
    6TAL    C2719302   3.257   5.982   0.836 -0.0643 -0.0449 -0.1943
    6TAL    C2819303   3.312   6.122   0.858 -0.3300 -0.7731  0.2761
    6TAL    C2919304   3.376   6.132   1.002 -0.2626 -0.5906  0.2746
    6TAL    C3019305   3.451   6.255   1.043 -0.5561 -0.3011 -0.1534
    7HTM    C3119306   3.281   5.892   0.349 -0.6046  0.3980  0.0196
    7HTM    C3219307   3.390   5.852   0.277 -0.5031  0.1532  0.3006
    7HTM    C3319308   3.468   5.962   0.225 -0.2788 -0.0206  0.2683
    7HTM    C3419309   3.419   6.085   0.259 -0.2095  0.0918 -0.0375
    7HTM     S419310   3.269   6.072   0.358 -0.4235  0.4285 -0.3104
    8TAL    C3519311   3.598   5.943   0.139  0.5743  0.9981 -0.7660
    8TAL    C3619312   3.733   5.916   0.214 -0.5960  0.4821 -0.3472
    8TAL    C3719313   3.759   5.775   0.274  0.7952 -0.3704  0.4196
    8TAL    C3819314   3.732   5.766   0.422 -0.2001 -0.0951 -0.2756
    8TAL    C3919315   3.711   5.616   0.477 -0.2528  0.6939 -0.2415
    8TAL    C4019316   3.654   5.585   0.616  0.2322  0.9809 -0.3568
    9HTM    C4119317   3.465   6.219   0.240 -0.0047  0.1177 -0.2089
    9HTM    C4219318   3.399   6.327   0.190 -0.1649  0.1256  0.0138
    9HTM    C4319319   3.479   6.447   0.183 -0.4169  0.3246  0.4921
    9HTM    C4419320   3.606   6.430   0.230 -0.4487  0.4686  0.6340
    9HTM     S519321   3.635   6.261   0.285 -0.1608  0.3629  0.1711
   10TAL    C4519322   3.410   6.578   0.134  0.7384 -0.7157  0.5408
   10TAL    C4619323   3.415   6.570  -0.018 -0.9538 -0.2316 -1.3180
   10TAL    C4719324   3.351   6.700  -0.068 -0.7284 -0.9354 -0.5623
   10TAL    C4819325   3.338   6.716  -0.222 -0.3979  0.6836 -1.6654
   10TAL    C4919326   3.474   6.759  -0.274 -0.0220  0.8898 -0.5256
   10TAL    C5019327   3.490   6.688  -0.411 -1.2368  0.9060 -0.0108
   11HTM    C5119328   3.728   6.514   0.233  0.0951 -0.3497 -0.5569
   11HTM    C5219329   3.762   6.621   0.155 -0.1145 -0.0912 -0.3021
   11HTM    C5319330   3.885   6.685   0.194 -0.3743  0.2233  0.0108
   11HTM    C5419331   3.945   6.628   0.302 -0.3629  0.2044 -0.0054
   11HTM     S619332   3.850   6.487   0.364 -0.0204 -0.2151 -0.4203
   12TAL    C5519333   3.945   6.803   0.100 -0.4578 -0.4373  0.0578
   12TAL    C5619334   3.884   6.931   0.127  0.3302 -0.8428  0.0374
   12TAL    C5719335   3.745   6.958   0.077  0.8587 -0.5351  0.6883
   12TAL    C5819336   3.655   7.074   0.126 -0.0188  0.6919 -0.4011
   12TAL    C5919337   3.713   7.201   0.188 -0.1953 -0.3887 -0.4335
   12TAL    C6019338   3.626   7.323   0.227 -0.5139  0.9861  0.9400
   13HTM    C6119339   4.070   6.665   0.364 -0.0124 -0.3916  0.2952
   13HTM    C6219340   4.088   6.682   0.498  0.2549 -1.2708  0.3821
   13HTM    C6319341   4.219   6.731   0.533  0.2682 -1.3407  0.4312
   13HTM    C6419342   4.300   6.752   0.425  0.0111 -0.5149  0.3817
   13HTM     S719343   4.217   6.710   0.271 -0.2702  0.4224  0.2684
   14TAL    C6519344   4.239   6.758   0.679  0.4749  0.5671 -0.7121
   14TAL    C6619345   4.353   6.843   0.753 -0.0699 -0.4278  1.1449
   14TAL    C6719346   4.406   6.775   0.877  0.8130  0.3347 -0.3386
   14TAL    C6819347   4.513   6.843   0.961  0.3618  1.2906  0.7079
   14TAL    C6919348   4.461   6.918   1.079 -0.1370  0.8486 -0.3759
   14TAL    C7019349   4.344   7.018   1.057  0.6450  0.6851  0.2666
   15HTM    C7119350   4.443   6.777   0.401  0.1322 -0.2652 -0.5627
   15HTM    C7219351   4.554   6.728   0.463  0.0445 -0.2334 -0.3812
   15HTM    C7319352   4.677   6.787   0.418  0.0522  0.3104  0.3139
   15HTM    C7419353   4.660   6.882   0.320  0.1460  0.6936  0.6623
   15HTM     S819354   4.486   6.903   0.278  0.2324  0.3947  0.1355
   16TAL    C7519355   4.805   6.746   0.483  0.6586  0.2208 -0.1702
   16TAL    C7619356   4.873   6.633   0.404 -0.2375 -0.3426 -0.9810
   16TAL    C7719357   4.997   6.586   0.486  0.4470  0.3005  0.7853
   16TAL    C7819358   4.969   6.517   0.619 -0.7144 -0.2883  0.1382
   16TAL    C7919359   5.098   6.463   0.685 -1.0645 -0.8025 -0.4764
   16TAL    C8019360   5.203   6.571   0.728 -0.0079 -0.8841 -0.9906
   17HTM    C8119361   4.752   6.950   0.233 -0.2522  0.2091 -0.2386
   17HTM    C8219362   4.866   7.020   0.264 -0.4995  0.8135 -0.6483
   17HTM    C8319363   4.945   7.055   0.149 -0.7218  0.5728 -0.8775
   17HTM    C8419364   4.891   7.013   0.031 -0.6440 -0.2151 -0.6424
   17HTM     S919365   4.736   6.924   0.056 -0.2810 -0.7182 -0.1094
   18TAL    C8519366   5.059   7.158   0.179  0.2160  0.0615  0.6889
   18TAL    C8619367   5.017   7.282   0.258  0.3572  0.2095 -0.0987
   18TAL    C8719368   5.096   7.406   0.257 -0.4038 -0.2748  0.8687
   18TAL    C8819369   5.039   7.521   0.342 -0.3130 -0.1268  0.5965
   18TAL    C8919370   5.086   7.653   0.290 -1.0450 -0.6936  0.2701
   18TAL    C9019371   5.002   7.765   0.365  0.0568  0.1508 -0.5633
   19HTM    C9119372   4.926   7.039  -0.110  0.2218 -1.0324 -0.2073
   19HTM    C9219373   5.044   7.047  -0.178  0.0966 -1.4310 -0.4799
   19HTM    C9319374   5.029   7.078  -0.318 -0.1065 -1.0296 -0.3719
   19HTM    C9419375   4.899   7.094  -0.357 -0.1363 -0.3251 -0.0168
   19HTM    S1019376   4.785   7.071  -0.219  0.0917 -0.1124  0.2104
   20TAL    C9519377   5.153   7.083  -0.409 -0.7100  0.4305 -0.0958
   20TAL    C9619378   5.246   7.195  -0.398  0.0063 -0.7692  1.1864
   20TAL    C9719379   5.358   7.180  -0.496  0.1053 -1.1283  0.0156
   20TAL    C9819380   5.480   7.264  -0.472 -0.9092 -0.5573  0.6938
   20TAL    C9919381   5.565   7.262  -0.603 -0.1187 -0.2756 -1.1173
   20TAL   C10019382   5.706   7.325  -0.576  0.3256 -0.4466  0.0256
   21HTM   C10119383   4.842   7.098  -0.490 -0.3731 -0.1927  0.4996
   21HTM   C10219384   4.710   7.080  -0.519 -0.3228 -0.4697  0.4370
   21HTM   C10319385   4.683   7.074  -0.660 -0.2295 -0.6393  0.4256
   21HTM   C10419386   4.793   7.087  -0.739 -0.2087 -0.4919  0.4793
   21HTM    S1119387   4.942   7.108  -0.639 -0.3061 -0.1246  0.5494
   22TAL   C10519388   4.546   7.103  -0.704  0.0096  0.2824  0.6779
   22TAL   C10619389   4.488   7.003  -0.808  0.7636  1.3969  0.3537
   22TAL   C10719390   4.406   6.879  -0.772  1.2155  0.0805 -0.6594
   22TAL   C10819391   4.474   6.770  -0.697  0.2278  0.1674  0.8415
   22TAL   C10919392   4.361   6.698  -0.632 -0.4659  1.0790  0.5834
   22TAL   C11019393   4.434   6.600  -0.542 -0.6211 -1.0548  0.5835
   23HTM   C11119394   4.823   7.068  -0.882 -0.0658  0.3991  0.0274
   23HTM   C11219395   4.814   7.157  -0.985 -0.1022  0.1740 -0.1669
   23HTM   C11319396   4.882   7.114  -1.104  0.0429  0.0088 -0.0265
   23HTM   C11419397   4.943   6.993  -1.093  0.1899  0.1080  0.2746
   23HTM    S1219398   4.918   6.922  -0.929  0.1563  0.4202  0.4059
   24TAL   C11519399   4.887   7.206  -1.219 -0.6719 -0.2233  0.5400
   24TAL   C11619400   4.953   7.338  -1.184 -0.2177 -0.2095  0.4340
   24TAL   C11719401   5.078   7.349  -1.103 -0.4792 -0.2112  0.3392
   24TAL   C11819402   5.119   7.491  -1.116 -1.4671  0.0353  0.2329
   24TAL   C11919403   5.209   7.520  -0.998  0.0506  0.3749 -0.1324
   24TAL   C12019404   5.281   7.647  -1.020 -0.6563 -1.3303  1.1487
   25HTM   C12119405   5.016   6.910  -1.193 -0.4540 -0.2210  0.0194
   25HTM   C12219406   5.016   6.774  -1.205 -0.4466 -0.1794 -0.4802
   25HTM   C12319407   5.091   6.726  -1.318 -0.6368  0.2486 -0.7963
   25HTM   C12419408   5.149   6.825  -1.392 -0.7895  0.5335 -0.5373
   25HTM    S1319409   5.112   6.988  -1.324 -0.7039  0.2811  0.1305
   26TAL   C12519410   5.100   6.580  -1.349  0.9975 -0.8022 -0.4308
   26TAL   C12619411   5.003   6.479  -1.294  0.1273  0.7954  0.1172
   26TAL   C12719412   4.854   6.471  -1.333  0.0370  0.5009  0.0555
   26TAL   C12819413   4.771   6.595  -1.326  0.6307 -0.2631  0.5723
   26TAL   C12919414   4.621   6.580  -1.378  0.4298  0.0686 -0.8189
   26TAL   C13019415   4.525   6.693  -1.340 -0.0197  1.0401  0.2628
   27HTM   C13119416   5.231   6.828  -1.518 -0.2342  0.0774 -0.4906
   27HTM   C13219417   5.326   6.922  -1.546 -0.2257  0.0880 -0.4246
   27HTM   C13319418   5.422   6.880  -1.643 -0.1717  0.1106 -0.3815
   27HTM   C13419419   5.401   6.754  -1.691 -0.1393  0.1173 -0.4143
   27HTM    S1419420   5.256   6.678  -1.615 -0.1745  0.0954 -0.5027
   28TAL   C13519421   5.559   6.949  -1.673 -0.4159  0.0209  0.4107
   28TAL   C13619422   5.589   7.067  -1.774  0.4307  0.2569  0.1457
   28TAL   C13719423   5.506   7.202  -1.754 -0.5944 -0.1931  0.4086
   28TAL   C13819424   5.355   7.231  -1.743 -0.8384  0.4123  0.2488
   28TAL   C13919425   5.248   7.157  -1.818 -0.1013  0.0437 -0.5505
   28TAL   C14019426   5.217   7.186  -1.961 -0.0741  0.2271 -0.5251
   29HTM   C14119427   5.464   6.684  -1.802 -0.5751  0.3783  0.1067
   29HTM   C14219428   5.530   6.565  -1.805 -1.0314  0.1208  0.2877
   29HTM   C14319429   5.566   6.522  -1.937 -0.9874 -0.1073  0.3728
   29HTM   C14419430   5.529   6.609  -2.035 -0.4977 -0.0237  0.2569
   29HTM    S1519431   5.444   6.753  -1.968 -0.0506  0.3525  0.0293
   30TAL   C14519432   5.645   6.397  -1.963 -0.1073 -0.3883 -0.7052
   30TAL   C14619433   5.714   6.315  -1.852  0.3487 -0.5642 -0.3917
   30TAL   C14719434   5.802   6.196  -1.896 -0.4623 -0.5428  0.7105
   30TAL   C14819435   5.864   6.132  -1.780  0.5976 -0.5808  0.4680
   30TAL   C14919436   5.983   6.042  -1.778 -0.6452 -0.3490 -0.0412
   30TAL   C15019437   5.948   5.898  -1.834 -0.0055  0.1810 -0.7674
   31HTM   C15119438   5.529   6.599  -2.174  0.2794 -0.0992  0.6617
   31HTM   C15219439   5.467   6.692  -2.252  0.5393  0.3812  1.0093
   31HTM   C15319440   5.472   6.662  -2.393  0.0435  0.6466  0.9285
   31HTM   C15419441   5.539   6.546  -2.422 -0.5943  0.3682  0.5194
   31HTM    S1619442   5.601   6.466  -2.272 -0.6184 -0.2553  0.2021
   32TAL   C15519443   5.427   6.765  -2.491 -0.8539  1.1157  0.3477
   32TAL   C15619444   5.388   6.913  -2.455  0.4843 -0.1639 -0.0667
   32TAL   C15719445   5.242   6.926  -2.402  0.9343  0.1589  0.5540
   32TAL   C15819446   5.126   6.857  -2.481 -0.1132  0.0429  0.3157
   32TAL   C15919447   5.113   6.907  -2.626  0.1918 -0.8045 -0.2952
   32TAL   C16019448   4.976   6.929  -2.671  0.6327 -0.1170 -0.3324
   33HTM   C16119449   5.576   6.477  -2.546  0.1938  0.2828  0.1647
   33HTM   C16219450   5.551   6.522  -2.673  0.2174  0.3325  0.1771
   33HTM   C16319451   5.642   6.469  -2.771  0.2210  0.3519  0.1700
   33HTM   C16419452   5.736   6.384  -2.720  0.1999  0.3172  0.1520
   33HTM    S1719453   5.716   6.365  -2.541  0.1737  0.2569  0.1426
   34TAL   C16519454   5.613   6.481  -2.918  0.3053 -1.2158  1.2154
   34TAL   C16619455   5.608   6.619  -2.976  0.8196  0.5965  0.4141
   34TAL   C16719456   5.544   6.740  -2.909 -0.5864  0.0521 -0.7594
   34TAL   C16819457   5.434   6.822  -2.969  0.2217  0.3473 -0.0869
   34TAL   C16919458   5.322   6.731  -3.006 -0.4672 -0.1871  0.1069
   34TAL   C17019459   5.238   6.813  -3.100 -0.4270 -0.0447 -0.1782
   35HTM   C17119460   5.850   6.321  -2.773 -0.0539  0.4845 -0.5122
   35HTM   C17219461   5.889   6.196  -2.736 -0.3166  0.6022  0.1849
   35HTM   C17319462   5.991   6.139  -2.820 -0.0274  0.1369  0.8284
   35HTM   C17419463   6.029   6.221  -2.922  0.4557 -0.3355  0.6220
   35HTM    S1819464   5.940   6.377  -2.919  0.5839 -0.2285 -0.4088
   36TAL   C17519465   6.045   5.994  -2.810 -0.5016  0.2567  0.4143
   36TAL   C17619466   6.192   5.966  -2.760 -0.5148 -0.4391  0.5685
   36TAL   C17719467   6.226   6.013  -2.619  1.1643 -0.0127  0.0393
   36TAL   C17819468   6.337   5.935  -2.548  1.0072 -0.9347  0.6244
   36TAL   C17919469   6.338   5.782  -2.525  0.8052  0.1890 -0.2095
   36TAL   C18019470   6.249   5.750  -2.412  0.3016 -0.0229 -0.9202
   37HTM   C18119471   6.144   6.197  -3.019 -0.0800 -0.2461  0.8728
   37HTM   C18219472   6.135   6.140  -3.142 -0.4693 -0.1094  0.8359
   37HTM   C18319473   6.261   6.124  -3.209 -0.7327  0.5128  0.1613
   37HTM   C18419474   6.367   6.170  -3.136 -0.5440  0.8506 -0.3162
   37HTM    S1919475   6.315   6.236  -2.977 -0.0152  0.4055  0.0520
   38TAL   C18519476   6.245   6.052  -3.343 -0.4737  0.3072  0.7547
   38TAL   C18619477   6.363   6.090  -3.447 -0.4441  0.5842 -1.0345
   38TAL   C18719478   6.342   6.007  -3.579  0.9709 -0.7404  0.1341
   38TAL   C18819479   6.464   6.013  -3.670  0.7419 -0.1345  0.3716
   38TAL   C18919480   6.547   6.146  -3.696  1.0151  0.2118 -0.3273
   38TAL   C19019481   6.471   6.260  -3.767 -0.4282  0.6918 -1.0066
   39HTM   C19119482   6.514   6.164  -3.152  0.3751 -0.3278  0.1507
   39HTM   C19219483   6.579   6.056  -3.204  0.4152 -0.3759  0.2983
   39HTM   C19319484   6.723   6.068  -3.200  0.4110 -0.3216  0.2925
   39HTM   C19419485   6.767   6.184  -3.145  0.3681 -0.2322  0.1407
   39HTM    S2019486   6.630   6.289  -3.093  0.3288 -0.2093 -0.0083
   40TAL   C19519487   6.808   5.960  -3.268 -0.1064 -0.3946  0.1825
   40TAL   C19619488   6.753   5.844  -3.345  0.0614 -0.4392  0.1354
   40TAL   C19719489   6.854   5.810  -3.459  0.4480  0.2985 -0.5715
   40TAL   C19819490   6.968   5.715  -3.437 -0.3416  0.5733 -0.6311
   40TAL   C19919491   6.947   5.557  -3.421 -0.3861 -0.1997  0.9220
   40TAL   C20019492   7.016   5.510  -3.293 -0.3211  0.2676  0.3862
   41HTM   C20119493   6.904   6.232  -3.146 -0.5348  0.1570  0.3464
   41HTM   C20219494   7.010   6.177  -3.211 -0.6491 -0.1801  0.4348
   41HTM   C20319495   7.133   6.250  -3.192 -0.4636 -0.4840  0.4191
   41HTM   C20419496   7.120   6.360  -3.112 -0.2078 -0.3785  0.3188
   41HTM    S2119497   6.950   6.380  -3.055 -0.1814  0.1166  0.2357
   42TAL   C20519498   7.261   6.206  -3.246 -0.2150  0.1691  0.3955
   42TAL   C20619499   7.365   6.140  -3.149 -0.7332  0.0393  0.8758
   42TAL   C20719500   7.448   6.035  -3.220 -0.0527 -0.7958  1.2543
   42TAL   C20819501   7.382   5.913  -3.276 -0.0040  0.6082  0.2416
   42TAL   C20919502   7.487   5.830  -3.350  0.2940 -0.8401 -0.2718
   42TAL   C21019503   7.450   5.700  -3.418  1.3215 -0.3566  0.3976
   43HTM   C21119504   7.217   6.449  -3.047  0.1894 -0.1979  1.0239
   43HTM   C21219505   7.239   6.450  -2.913  0.7247  0.0818  0.9432
   43HTM   C21319506   7.309   6.566  -2.865  0.6394  0.3315  0.4653
   43HTM   C21419507   7.341   6.655  -2.964  0.0396  0.2422  0.1817
   43HTM    S2219508   7.284   6.597  -3.125 -0.4686 -0.1675  0.4987
   44TAL   C21519509   7.334   6.594  -2.720 -0.2284 -0.2221 -0.8887
   44TAL   C21619510   7.231   6.660  -2.627 -0.5676  0.3257 -0.0556
   44TAL   C21719511   7.108   6.603  -2.566 -0.8967  1.0399  0.0849
   44TAL   C21819512   7.074   6.665  -2.427  0.3745 -0.5970 -0.3716
   44TAL   C21919513   6.954   6.603  -2.361 -0.5705  0.2011 -0.3438
   44TAL   C22019514   6.869   6.710  -2.297  0.3375  0.2136  0.8632
   45HTM   C22119515   7.413   6.779  -2.959  0.1092 -0.1596  0.2383
   45HTM   C22219516   7.548   6.793  -2.956  0.0939 -0.0818  0.6175
   45HTM   C22319517   7.594   6.926  -2.984  0.0933 -0.0451  0.7918
   45HTM   C22419518   7.493   7.015  -3.008  0.1080 -0.0950  0.5455
   45HTM    S2319519   7.331   6.936  -2.998  0.1240 -0.1931  0.0708
   46TAL   C22519520   7.742   6.973  -2.987  1.1331 -0.1842  0.5600
   46TAL   C22619521   7.843   6.905  -2.898 -0.0904 -0.1258 -0.5327
   46TAL   C22719522   7.982   6.962  -2.903  0.3093  0.5337 -0.4238
   46TAL   C22819523   7.983   7.102  -2.855 -0.3044 -0.7203  0.7391
   46TAL   C22919524   8.126   7.142  -2.834  0.6976 -0.2476 -0.2984
   46TAL   C23019525   8.158   7.292  -2.805 -0.1309  0.4150  0.2084
   47HTM   C23119526   7.501   7.158  -3.029 -0.6363  0.1194  0.2669
   47HTM   C23219527   7.506   7.263  -2.943 -0.9600  0.1179  0.2904
   47HTM   C23319528   7.519   7.391  -3.007 -0.6623  0.1144  0.3387
   47HTM   C23419529   7.523   7.384  -3.143 -0.1115  0.1132  0.3521
   47HTM    S2419530   7.512   7.213  -3.201  0.0753  0.1164  0.3044
   48TAL   C23519531   7.524   7.520  -2.933  0.0508  0.4265 -0.3133
   48TAL   C23619532   7.538   7.518  -2.778 -0.0641  0.3857 -0.4786
   48TAL   C23719533   7.619   7.613  -2.700 -0.4056  0.3542 -0.8009
   48TAL   C23819534   7.550   7.747  -2.670 -0.4325  0.1727  0.1295
   48TAL   C23919535   7.603   7.803  -2.534  0.8454 -0.0473 -0.9467
   48TAL   C24019536   7.574   7.958  -2.526  0.4253  0.6119 -0.7299
    1HTM     C119537   7.681   5.579   1.129  0.9284  0.1109  0.1568
    1HTM     C219538   7.608   5.506   1.039  1.3670 -0.5245  0.3089
    1HTM     C319539   7.570   5.579   0.921  0.4663 -0.8285  0.3927
    1HTM     C419540   7.614   5.708   0.920 -0.6586 -0.4250  0.3045
    1HTM     S119541   7.707   5.748   1.070 -0.6684  0.3765  0.1072
    2TAL     C519542   7.505   5.508   0.798  0.0043  0.8214  0.2341
    2TAL     C619543   7.412   5.392   0.827 -1.4060 -0.3267 -0.8902
    2TAL     C719544   7.355   5.312   0.717 -0.7373 -0.0290  1.2390
    2TAL     C819545   7.456   5.263   0.598  0.3849 -0.2310 -0.1479
    2TAL     C919546   7.389   5.240   0.461  0.6343  0.0838 -0.1457
    2TAL    C1019547   7.473   5.247   0.341 -0.3420 -0.1661  0.8911
    3HTM    C1119548   7.594   5.814   0.822  0.1566  0.2867  0.0910
    3HTM    C1219549   7.682   5.909   0.779 -0.0901  0.3585 -0.2660
    3HTM    C1319550   7.636   5.983   0.664 -0.5028  0.1490 -0.2398
    3HTM    C1419551   7.513   5.944   0.619 -0.5710 -0.0824  0.1372
    3HTM     S219552   7.445   5.810   0.719 -0.1155 -0.0535  0.4911
    4TAL    C1519553   7.721   6.104   0.611 -0.8185 -0.4337 -1.8204
    4TAL    C1619554   7.835   6.180   0.706  0.7079 -0.4693 -0.5015
    4TAL    C1719555   7.885   6.314   0.684  0.6909  0.1481  0.3226
    4TAL    C1819556   7.952   6.389   0.799  0.0682  0.2370 -0.4983
    4TAL    C1919557   8.012   6.520   0.754 -0.7500  0.4477  0.1333
    4TAL    C2019558   8.090   6.607   0.854 -0.0198 -0.1833  0.5053
    5HTM    C2119559   7.437   6.012   0.520  0.0278  0.2844 -0.4800
    5HTM    C2219560   7.456   6.030   0.386 -0.0728  0.9426 -0.4151
    5HTM    C2319561   7.341   6.082   0.317 -0.2724  0.8637 -0.1438
    5HTM    C2419562   7.234   6.104   0.399 -0.3241  0.1453 -0.0018
    5HTM     S319563   7.271   6.061   0.570 -0.1230 -0.4922 -0.2013
    6TAL    C2519564   7.362   6.102   0.167  0.3226 -0.2037  0.4767
    6TAL    C2619565   7.295   5.988   0.078 -0.3162 -0.5409 -0.8719
    6TAL    C2719566   7.385   5.959  -0.036 -0.1595  0.3507 -0.5387
    6TAL    C2819567   7.335   5.873  -0.150  0.6982 -1.3854 -0.0632
    6TAL    C2919568   7.338   5.736  -0.110  0.2744 -0.0173  1.3428
    6TAL    C3019569   7.302   5.637  -0.206 -0.0214  0.2175 -0.5758
    7HTM    C3119570   7.115   6.180   0.376  0.1771  0.1100 -0.3343
    7HTM    C3219571   7.037   6.185   0.264  0.3297  1.2788 -0.4168
    7HTM    C3319572   6.902   6.230   0.289  0.4709  1.6125 -0.2446
    7HTM    C3419573   6.877   6.260   0.419  0.4257  0.6982 -0.0308
    7HTM     S419574   7.023   6.233   0.522  0.1996 -0.6660 -0.0303
    8TAL    C3519575   6.801   6.239   0.169 -0.3337 -0.0598 -1.3750
    8TAL    C3619576   6.824   6.197   0.026  0.1388 -0.1364  1.1066
    8TAL    C3719577   6.712   6.261  -0.055 -0.5393  0.8802 -0.0485
    8TAL    C3819578   6.714   6.274  -0.213  0.2419  0.2284  0.5090
    8TAL    C3919579   6.624   6.392  -0.258  0.5731 -0.2670  0.9165
    8TAL    C4019580   6.684   6.530  -0.242 -0.5522 -1.0341 -0.2133
    9HTM    C4119581   6.757   6.316   0.489  0.1879 -0.4720 -0.1205
    9HTM    C4219582   6.633   6.353   0.445  0.4466  0.2253 -0.2989
    9HTM    C4319583   6.545   6.398   0.550  0.4438  0.4055 -0.3784
    9HTM    C4419584   6.602   6.396   0.674  0.1831 -0.1543 -0.2608
    9HTM     S519585   6.772   6.337   0.668 -0.0812 -0.9590 -0.0386
   10TAL    C4519586   6.392   6.423   0.520  0.4069 -0.5645  0.7600
   10TAL    C4619587   6.380   6.444   0.368 -0.7829 -0.7391  0.6011
   10TAL    C4719588   6.253   6.521   0.348 -0.1332  0.1634 -0.3455
   10TAL    C4819589   6.243   6.597   0.212  0.0049 -0.2076  1.0798
   10TAL    C4919590   6.102   6.574   0.146 -1.3085  0.1305 -0.0231
   10TAL    C5019591   6.074   6.438   0.088  0.5099 -1.1295  0.0664
   11HTM    C5119592   6.536   6.430   0.798 -0.5789 -0.0649 -0.0746
   11HTM    C5219593   6.477   6.552   0.815 -1.0411 -0.2755 -0.1439
   11HTM    C5319594   6.430   6.575   0.949 -0.6785 -0.1814 -0.0322
   11HTM    C5419595   6.454   6.472   1.034  0.0599  0.1008  0.1222
   11HTM     S619596   6.537   6.335   0.951  0.3573  0.2711  0.1387
   12TAL    C5519597   6.354   6.706   0.978 -0.0101  0.5586 -0.1643
   12TAL    C5619598   6.257   6.722   1.097  0.1868  0.4597  0.5196
   12TAL    C5719599   6.202   6.865   1.116 -0.2945  0.4591  0.1236
   12TAL    C5819600   6.087   6.867   1.210 -1.3189 -0.0158 -1.0695
   12TAL    C5919601   5.960   6.812   1.170  0.2152  1.1114  1.0089
   12TAL    C6019602   5.858   6.845   1.280  0.8887  0.0119  0.1329
   13HTM    C6119603   6.419   6.446   1.165  0.1301 -0.1480  0.0218
   13HTM    C6219604   6.298   6.393   1.198  0.3604 -0.6984  0.0083
   13HTM    C6319605   6.272   6.390   1.340  0.3726 -0.8534  0.0078
   13HTM    C6419606   6.374   6.441   1.415  0.1520 -0.4209  0.0211
   13HTM     S719607   6.511   6.497   1.312 -0.0905  0.2203  0.0352
   14TAL    C6519608   6.130   6.354   1.378  0.4572  0.5526 -1.0996
   14TAL    C6619609   6.097   6.209   1.348  0.3729  0.7293 -0.3972
   14TAL    C6719610   5.964   6.145   1.413  0.3539 -0.2613  0.7565
   14TAL    C6819611   5.988   6.116   1.563 -0.6131 -1.1132 -0.6741
   14TAL    C6919612   6.103   6.026   1.593  0.1620  0.5641 -0.3455
   14TAL    C7019613   6.207   6.088   1.669  0.7991  0.9396 -0.1323
   15HTM    C7119614   6.364   6.476   1.558 -0.3227 -0.4564  0.0252
   15HTM    C7219615   6.399   6.411   1.672 -0.8894 -0.4559  0.2090
   15HTM    C7319616   6.386   6.490   1.791 -0.7788 -0.2065  0.0561
   15HTM    C7419617   6.340   6.617   1.768 -0.1274 -0.0169 -0.2444
   15HTM     S819618   6.310   6.645   1.592  0.4005 -0.1395 -0.3583
   16TAL    C7519619   6.442   6.436   1.921  0.9000 -0.8751 -0.1265
   16TAL    C7619620   6.351   6.333   1.988  0.3209 -0.1592 -0.8422
   16TAL    C7719621   6.410   6.264   2.106 -0.0342 -0.3026 -0.3358
   16TAL    C7819622   6.291   6.188   2.174  0.5851 -0.3711 -0.0758
   16TAL    C7919623   6.288   6.202   2.314  0.3290 -0.1661  0.3461
   16TAL    C8019624   6.384   6.112   2.380 -0.2909  0.1853 -0.8951
   17HTM    C8119625   6.315   6.733   1.848 -1.0387  0.3047 -0.0769
   17HTM    C8219626   6.226   6.832   1.817 -0.7033  0.7371  0.3144
   17HTM    C8319627   6.216   6.934   1.918  0.1124  0.7092  0.4413
   17HTM    C8419628   6.296   6.913   2.026  0.3994  0.2555  0.1466
   17HTM     S919629   6.393   6.762   2.009 -0.3445 -0.1750 -0.3174
   18TAL    C8519630   6.127   7.057   1.882  0.0421 -0.9081  0.0366
   18TAL    C8619631   6.207   7.155   1.796  0.7077 -0.6590  0.3682
   18TAL    C8719632   6.124   7.279   1.771  1.1632  0.2832 -0.1456
   18TAL    C8819633   6.185   7.363   1.664 -0.2583 -0.7492  0.3159
   18TAL    C8919634   6.099   7.468   1.591 -0.4173  0.3396 -0.3638
   18TAL    C9019635   6.018   7.561   1.679  0.4554  0.1247  0.8487
   19HTM    C9119636   6.315   7.003   2.135  0.0723 -0.5140  0.1146
   19HTM    C9219637   6.255   6.991   2.257 -0.3555 -0.4460 -0.0875
   19HTM    C9319638   6.269   7.108   2.340 -0.7840 -0.3384 -0.1586
   19HTM    C9419639   6.341   7.208   2.283 -0.6830 -0.3246 -0.0108
   19HTM    S1019640   6.396   7.164   2.117 -0.0337 -0.4469  0.2316
   20TAL    C9519641   6.224   7.106   2.485 -0.0981 -0.4293  0.3010
   20TAL    C9619642   6.082   7.161   2.514  0.3245 -0.4886  0.4666
   20TAL    C9719643   6.023   7.175   2.655 -0.6122 -0.3541 -1.6095
   20TAL    C9819644   6.000   7.046   2.747 -0.6046 -0.1156 -0.5840
   20TAL    C9919645   5.935   6.927   2.675  0.0413  0.4380  1.4079
   20TAL   C10019646   5.974   6.807   2.769  0.2584 -2.0999 -0.1372
   21HTM   C10119647   6.375   7.340   2.337  0.2644 -0.1756 -0.2017
   21HTM   C10219648   6.295   7.446   2.364  0.1459 -0.3110 -0.0246
   21HTM   C10319649   6.366   7.564   2.405  0.0157 -0.2919  0.1509
   21HTM   C10419650   6.502   7.548   2.409  0.0353 -0.1422  0.1075
   21HTM    S1119651   6.549   7.381   2.360  0.2208 -0.0125 -0.1604
   22TAL   C10519652   6.289   7.692   2.447 -0.6861  0.4058  1.5723
   22TAL   C10619653   6.213   7.675   2.573 -0.0841 -0.0641 -0.8177
   22TAL   C10719654   6.106   7.793   2.570 -0.0251 -0.2331  0.8920
   22TAL   C10819655   5.983   7.743   2.649 -0.6472 -2.1182  0.7366
   22TAL   C10919656   5.894   7.876   2.661 -1.0806  0.3737 -0.7008
   22TAL   C11019657   5.895   7.933   2.799 -0.3174 -0.2297  0.0291
   23HTM   C11119658   6.608   7.639   2.437  0.1084  0.2161 -0.8080
   23HTM   C11219659   6.740   7.603   2.426  0.1553  0.2711 -0.4420
   23HTM   C11319660   6.831   7.705   2.471 -0.0150  0.2233  0.0244
   23HTM   C11419661   6.769   7.818   2.516 -0.1919  0.1315  0.0142
   23HTM    S1219662   6.590   7.805   2.505 -0.1565  0.0984 -0.5901
   24TAL   C11519663   6.972   7.679   2.485 -0.0837 -0.3359 -0.1205
   24TAL   C11619664   7.071   7.713   2.371  0.3426 -0.3347 -0.3905
   24TAL   C11719665   7.027   7.687   2.219  0.7372  0.2849  0.2627
   24TAL   C11819666   7.136   7.697   2.112 -0.7019 -0.3597 -0.9931
   24TAL   C11919667   7.260   7.601   2.135 -0.4373  0.6071  0.0636
   24TAL   C12019668   7.381   7.656   2.055  0.8470  0.0763  0.1528
   25HTM   C12119669   6.806   7.943   2.582 -0.9211 -0.0370 -0.0601
   25HTM   C12219670   6.784   7.986   2.710 -1.6410  0.1817 -0.2454
   25HTM   C12319671   6.827   8.121   2.735 -1.2645  0.0405 -0.1025
   25HTM   C12419672   6.881   8.182   2.625 -0.2570 -0.2857  0.1917
   25HTM    S1319673   6.882   8.072   2.482  0.2982 -0.4409  0.3121
   26TAL   C12519674   6.817   8.179   2.865  0.2401 -0.3956 -0.2621
   26TAL   C12619675   6.671   8.227   2.901 -0.6747 -0.2416  0.1724
   26TAL   C12719676   6.673   8.293   3.035 -0.2036  0.1685 -0.5124
   26TAL   C12819677   6.748   8.422   3.054 -0.0995 -0.1020  1.0752
   26TAL   C12919678   6.697   8.542   2.984 -0.3498 -0.5052  0.0108
   26TAL   C13019679   6.578   8.621   3.039 -1.3756 -0.7492 -0.1925
   27HTM   C13119680   6.913   8.323   2.616 -0.1998 -0.1412  0.6744
   27HTM   C13219681   6.882   8.408   2.514 -0.2632 -0.5221  0.3707
   27HTM   C13319682   6.922   8.545   2.538 -0.1084 -0.4549 -0.2332
   27HTM   C13419683   6.983   8.563   2.658  0.0734 -0.0232 -0.3900
   27HTM    S1419684   6.996   8.409   2.751  0.0627  0.3353  0.2177
   28TAL   C13519685   6.898   8.657   2.436 -1.2874  1.1421 -0.0107
   28TAL   C13619686   6.858   8.624   2.286 -0.2387 -0.1715  0.6369
   28TAL   C13719687   6.912   8.725   2.191  0.2110 -0.8201  0.1012
   28TAL   C13819688   6.848   8.692   2.051 -0.7008 -0.7137  0.1311
   28TAL   C13919689   6.867   8.798   1.934  0.4891  0.6567  0.3750
   28TAL   C14019690   7.011   8.818   1.889  0.3112 -0.2247  0.2170
   29HTM   C14119691   7.019   8.696   2.717  0.4084  0.0107 -0.3928
   29HTM   C14219692   7.145   8.724   2.760  0.5935  0.2234 -1.0512
   29HTM   C14319693   7.163   8.863   2.796  0.5765  0.2730 -1.2304
   29HTM   C14419694   7.051   8.939   2.781  0.3781  0.0983 -0.7088
   29HTM    S1519695   6.913   8.842   2.718  0.1962 -0.1445  0.0554
   30TAL   C14519696   7.299   8.903   2.844  0.3183 -0.5200  0.6589
   30TAL   C14619697   7.348   8.880   2.981  1.2281  0.6189  0.3647
   30TAL   C14719698   7.381   8.725   3.014  0.3175 -0.2180  0.4748
   30TAL   C14819699   7.492   8.714   3.116  0.0845 -0.6936  0.4871
   30TAL   C14919700   7.473   8.723   3.266  0.8372 -0.3689 -0.3648
   30TAL   C15019701   7.598   8.761   3.338 -0.3739 -0.5101  1.0472
   31HTM   C15119702   7.024   9.084   2.782 -0.4450 -0.0417  0.2179
   31HTM   C15219703   7.062   9.180   2.870 -0.4708 -0.0572  0.2457
   31HTM   C15319704   7.032   9.314   2.827 -0.0999 -0.0262  0.0790
   31HTM   C15419705   6.971   9.320   2.705  0.2084  0.0131 -0.0760
   31HTM    S1619706   6.946   9.155   2.636  0.0534  0.0135 -0.0230
   32TAL   C15519707   7.064   9.421   2.923  0.0353 -0.3594 -0.2130
   32TAL   C15619708   6.953   9.486   3.009  0.3993  0.5996  0.2834
   32TAL   C15719709   6.990   9.589   3.115 -0.2568 -0.0372  1.0336
   32TAL   C15819710   7.044   9.727   3.080  0.0895  0.2197 -0.3557
   32TAL   C15919711   7.064   9.790   3.223 -0.8186 -1.0063 -0.7730
   32TAL   C16019712   7.152   9.923   3.219  0.5171  0.1204  0.8450
   33HTM   C16119713   6.913   9.433   2.625 -0.5737 -0.3615  0.0616
   33HTM   C16219714   6.838   9.414   2.513 -0.7259 -0.1688  0.1282
   33HTM   C16319715   6.794   9.536   2.450 -0.2676 -0.0460  0.0364
   33HTM   C16419716   6.835   9.649   2.515  0.2340 -0.1454 -0.1003
   33HTM    S1719717   6.934   9.609   2.661  0.1659 -0.4039 -0.1238
   34TAL   C16519718   6.712   9.534   2.325  0.4603 -0.9789 -0.0906
   34TAL   C16619719   6.693   9.420   2.226  0.8186 -0.3009 -0.4202
   34TAL   C16719720   6.823   9.393   2.150 -0.1743 -0.4531 -0.2513
   34TAL   C16819721   6.811   9.278   2.050 -0.6981 -1.3541  0.2784
   34TAL   C16919722   6.949   9.268   1.968  0.7043  0.1875  0.0722
   34TAL   C17019723   6.917   9.330   1.836  0.9631 -0.5954 -0.4385
   35HTM   C17119724   6.816   9.788   2.484 -0.3749 -0.0622  0.5950
   35HTM   C17219725   6.784   9.845   2.365 -0.0311 -0.0454  0.5084
   35HTM   C17319726   6.758   9.986   2.373  0.4076  0.0457  0.3682
   35HTM   C17419727   6.770  10.037   2.499  0.3981  0.0983  0.3479
   35HTM    S1819728   6.816   9.909   2.618 -0.1698  0.0365  0.5055
   36TAL   C17519729   6.713  10.058   2.243 -0.2525 -0.2707 -0.1585
   36TAL   C17619730   6.623  10.172   2.235  0.2998 -0.6084  0.3829
   36TAL   C17719731   6.678  10.290   2.156 -0.1497 -0.2324 -0.7093
   36TAL   C17819732   6.719  10.290   2.000  0.2703  0.0001 -0.4912
   36TAL   C17919733   6.601  10.245   1.915  0.2652 -0.4257  1.0554
   36TAL   C18019734   6.555  10.317   1.786  0.5693 -0.0260 -0.2036
   37HTM   C18119735   6.745  10.164   2.558 -0.2051 -0.0732  0.4988
   37HTM   C18219736   6.683  10.199   2.674 -0.7832  0.3525  0.0728
   37HTM   C18319737   6.693  10.340   2.704 -0.7768  0.4334 -0.3006
   37HTM   C18419738   6.762  10.411   2.610 -0.1936  0.0694 -0.1594
   37HTM    S1919739   6.820  10.306   2.476  0.3972 -0.4074  0.4611
   38TAL   C18519740   6.622  10.397   2.820  0.5122  0.0954 -0.2729
   38TAL   C18619741   6.470  10.396   2.811 -0.3413 -1.6664  0.3078
   38TAL   C18719742   6.402  10.472   2.925  0.6184 -0.5761 -0.5581
   38TAL   C18819743   6.257  10.511   2.912  0.7274 -0.0325 -0.3622
   38TAL   C18919744   6.213  10.595   3.028 -0.4487 -0.4822  0.2337
   38TAL   C19019745   6.202  10.514   3.161  0.5706 -0.5391 -0.2257
   39HTM   C19119746   6.794  10.558   2.590 -0.0632  0.1758  0.0458
   39HTM   C19219747   6.813  10.627   2.474 -0.2582  0.4004  0.1473
   39HTM   C19319748   6.870  10.758   2.494 -0.3561  0.4192  0.3150
   39HTM   C19419749   6.895  10.788   2.624 -0.2356  0.2089  0.3412
   39HTM    S2019750   6.848  10.652   2.734  0.0126 -0.0311  0.1547
   40TAL   C19519751   6.931  10.855   2.386 -0.6663 -0.1501  0.4125
   40TAL   C19619752   6.965  10.813   2.240 -0.0530  0.9952  0.0425
   40TAL   C19719753   7.093  10.735   2.234  0.9301 -0.2055  0.1349
   40TAL   C19819754   7.097  10.632   2.117 -1.1232  1.2320  0.1018
   40TAL   C19919755   7.201  10.514   2.146  0.6197 -0.7034 -0.0831
   40TAL   C20019756   7.215  10.434   2.021 -0.3612  0.2090  0.3884
   41HTM   C20119757   6.958  10.903   2.689  0.0245  0.0886 -0.7934
   41HTM   C20219758   6.997  10.901   2.819 -0.4171 -0.0549 -0.6593
   41HTM   C20319759   7.050  11.027   2.866 -0.4601 -0.1406 -0.3761
   41HTM   C20419760   7.051  11.124   2.771 -0.0511 -0.0625 -0.2943
   41HTM    S2119761   6.985  11.065   2.614  0.4235  0.1269 -0.5708
   42TAL   C20519762   7.091  11.040   3.011  0.0305 -0.6068 -0.9892
   42TAL   C20619763   7.002  10.973   3.123 -0.5671  0.8146 -0.8004
   42TAL   C20719764   6.859  10.998   3.106 -0.1884 -0.8307  0.4391
   42TAL   C20819765   6.784  10.993   3.234 -0.5350  0.8704 -0.0756
   42TAL   C20919766   6.628  10.982   3.224  0.1452  0.4667 -1.1067
   42TAL   C21019767   6.590  10.833   3.251 -0.6285 -0.3735  0.2786
   43HTM   C21119768   7.091  11.268   2.786 -0.8225  0.3458  0.0917
   43HTM   C21219769   7.053  11.369   2.703 -0.8775  0.6029  0.4258
   43HTM   C21319770   7.119  11.494   2.730 -0.4754  0.3913  0.4409
   43HTM   C21419771   7.207  11.488   2.834 -0.1137 -0.0272  0.1182
   43HTM    S2219772   7.214  11.323   2.906 -0.2541 -0.1876 -0.2325
   44TAL   C21519773   7.077  11.624   2.663  0.6771 -0.1588 -0.3506
   44TAL   C21619774   6.966  11.615   2.561  0.5777 -0.6256  0.4792
   44TAL   C21719775   7.015  11.657   2.424  0.3406  0.7307 -0.5284
   44TAL   C21819776   6.917  11.680   2.312 -0.8945 -0.7379 -0.3042
   44TAL   C21919777   6.956  11.688   2.172  0.0712  0.6536  0.7232
   44TAL   C22019778   6.848  11.729   2.072 -1.0196 -0.2167 -0.0108
   45HTM   C22119779   7.297  11.596   2.897 -0.1208 -0.2666  0.0554
   45HTM   C22219780   7.356  11.588   3.019  0.4654 -0.7534 -0.2475
   45HTM   C22319781   7.425  11.709   3.057  0.6440 -0.9030 -0.0937
   45HTM   C22419782   7.418  11.808   2.964  0.1941 -0.5301  0.3266
   45HTM    S2319783   7.323  11.757   2.820 -0.4956  0.0432  0.5625
   46TAL   C22519784   7.505  11.718   3.182  1.0839  0.4350 -0.9554
   46TAL   C22619785   7.507  11.830   3.284  0.8291 -0.2997  0.3370
   46TAL   C22719786   7.610  11.819   3.397  0.0823 -0.0232  0.6051
   46TAL   C22819787   7.754  11.791   3.384 -0.3344 -0.9409  1.0493
   46TAL   C22919788   7.841  11.907   3.312  0.4914  0.3172  0.5396
   46TAL   C23019789   7.814  12.056   3.350  0.2206  0.3904 -0.7152
   47HTM   C23119790   7.465  11.939   2.947  0.2819 -0.5997 -0.3213
   47HTM   C23219791   7.382  12.047   2.954  0.2319 -0.6270 -0.4732
   47HTM   C23319792   7.444  12.170   2.914  0.2198 -0.6307 -0.5036
   47HTM   C23419793   7.575  12.156   2.876  0.2606 -0.6064 -0.3747
   47HTM    S2419794   7.629  11.984   2.888  0.3180 -0.5766 -0.2039
   48TAL   C23519795   7.377  12.302   2.932 -0.1035  0.3557  0.5855
   48TAL   C23619796   7.382  12.386   3.059 -0.7038  0.6298 -0.1670
   48TAL   C23719797   7.394  12.337   3.200 -0.3236  0.8620 -0.7390
   48TAL   C23819798   7.400  12.437   3.310  0.3713  0.0077 -1.0432
   48TAL   C23919799   7.317  12.570   3.298  0.4479  0.1710 -0.8472
   48TAL   C24019800   7.162  12.564   3.317  0.1140  0.1534  0.8422
    1HTM     C119801   8.855   4.963   8.257  0.5019  0.1201 -0.3360
    1HTM     C219802   8.857   5.066   8.345  0.3724  0.0993 -0.3085
    1HTM     C319803   8.836   5.026   8.482  0.2148  0.0619 -0.3426
    1HTM     C419804   8.819   4.892   8.498  0.2243  0.0543 -0.3963
    1HTM     S119805   8.826   4.805   8.339  0.4346  0.0940 -0.4081
    2TAL     C519806   8.848   5.141   8.571  0.3126 -0.5281 -0.7628
    2TAL     C619807   8.952   5.131   8.684  0.9427  1.0925 -0.6497
    2TAL     C719808   9.076   5.048   8.646  1.3180  0.4080 -0.7369
    2TAL     C819809   9.205   5.106   8.704 -0.1873  0.7214  1.1382
    2TAL     C919810   9.242   5.250   8.668  0.7938  0.0893  0.7701
    2TAL    C1019811   9.250   5.300   8.527 -1.2624 -0.2148 -0.6502
    3HTM    C1119812   8.777   4.819   8.616 -0.3839 -0.4986 -0.0354
    3HTM    C1219813   8.801   4.686   8.634 -0.8740 -0.5978 -0.0806
    3HTM    C1319814   8.723   4.626   8.739 -0.7775 -0.2425  0.1950
    3HTM    C1419815   8.639   4.714   8.801 -0.2144  0.1278  0.4509
    3HTM     S219816   8.652   4.880   8.731  0.2418  0.0558  0.3626
    4TAL    C1519817   8.746   4.486   8.800 -0.2908 -0.5020 -0.0252
    4TAL    C1619818   8.889   4.462   8.836  0.9023  0.1146  0.2687
    4TAL    C1719819   8.914   4.420   8.974 -0.2384 -0.1341  0.0554
    4TAL    C1819820   9.030   4.330   8.999 -0.6548  0.1980 -0.3991
    4TAL    C1919821   9.100   4.394   9.127 -0.4157 -0.6092  0.4220
    4TAL    C2019822   9.238   4.448   9.102  0.0363  0.0933  0.4960
    5HTM    C2119823   8.544   4.695   8.916  0.3645  0.1786  0.0617
    5HTM    C2219824   8.503   4.791   9.003 -0.4802  0.0732 -0.2005
    5HTM    C2319825   8.430   4.740   9.116 -1.0669 -0.1248 -0.6616
    5HTM    C2419826   8.415   4.604   9.114 -0.6689 -0.1701 -0.7516
    5HTM     S319827   8.493   4.531   8.969  0.4858  0.0353 -0.2569
    6TAL    C2519828   8.368   4.842   9.208  0.1295 -0.1107 -0.1968
    6TAL    C2619829   8.412   4.996   9.197 -0.1886  0.6901  0.0709
    6TAL    C2719830   8.374   5.086   9.313 -0.4315  0.3472  0.6712
    6TAL    C2819831   8.221   5.091   9.320 -0.6241 -0.3964 -0.2031
    6TAL    C2919832   8.172   5.081   9.463  1.2869  0.1786  0.7416
    6TAL    C3019833   8.018   5.098   9.473 -0.1417 -0.5999 -0.6067
    7HTM    C3119834   8.345   4.512   9.212 -0.1028  0.1940 -0.1198
    7HTM    C3219835   8.322   4.379   9.200  0.3121  0.1235 -0.1872
    7HTM    C3319836   8.266   4.319   9.318  0.8602 -0.1926 -0.0825
    7HTM    C3419837   8.247   4.406   9.421  0.8636 -0.3630  0.0643
    7HTM     S419838   8.299   4.573   9.376  0.1691 -0.1358  0.0824
    8TAL    C3519839   8.257   4.172   9.316  1.3267  0.1217 -0.4101
    8TAL    C3619840   8.372   4.086   9.370 -0.4217 -0.1125  0.6054
    8TAL    C3719841   8.364   3.928   9.367  0.0306  0.4123 -0.5878
    8TAL    C3819842   8.365   3.860   9.235 -0.9060 -0.5710  0.1405
    8TAL    C3919843   8.414   3.715   9.249 -0.0187  0.1019 -0.0790
    8TAL    C4019844   8.442   3.677   9.099  0.5611 -0.2077 -0.5019
    9HTM    C4119845   8.175   4.394   9.546 -0.3531  0.1428  0.1736
    9HTM    C4219846   8.240   4.394   9.666 -0.3376 -0.4278  0.1681
    9HTM    C4319847   8.162   4.339   9.774 -0.3026 -0.9971 -0.0880
    9HTM    C4419848   8.038   4.298   9.736 -0.2913 -0.8607 -0.2775
    9HTM     S519849   8.009   4.325   9.560 -0.3244  0.0044 -0.1464
   10TAL    C4519850   8.231   4.320   9.915 -0.1364  0.1940 -0.1842
   10TAL    C4619851   8.178   4.290  10.059 -0.3240  0.3691 -1.2576
   10TAL    C4719852   8.050   4.363  10.103  0.0683  0.0702 -0.1181
   10TAL    C4819853   8.046   4.503  10.133 -0.5314  0.1345 -0.1755
   10TAL    C4919854   7.910   4.543  10.180 -0.3771  0.2303 -0.8632
   10TAL    C5019855   7.889   4.685  10.213  0.3748  0.0042 -0.5926
   11HTM    C5119856   7.944   4.213   9.811 -0.2534  0.3529 -0.1233
   11HTM    C5219857   7.941   4.077   9.820 -0.1903  0.3291 -0.4460
   11HTM    C5319858   7.834   4.026   9.901 -0.0511  0.0949 -0.4074
   11HTM    C5419859   7.755   4.123   9.955 -0.0081 -0.0600 -0.0553
   11HTM     S619860   7.809   4.288   9.906 -0.1410  0.0791  0.2574
   12TAL    C5519861   7.809   3.878   9.920 -0.4445 -0.9434 -0.3816
   12TAL    C5619862   7.744   3.798   9.802  0.5396  0.7376  0.1996
   12TAL    C5719863   7.746   3.652   9.839 -0.5425  0.6321 -0.4720
   12TAL    C5819864   7.703   3.540   9.738 -0.1561  0.4496 -1.0510
   12TAL    C5919865   7.765   3.534   9.610  0.4548 -0.4112  0.1539
   12TAL    C6019866   7.716   3.423   9.532  0.7067  1.6573 -0.7818
   13HTM    C6119867   7.644   4.130  10.042  0.0216  0.5402 -0.1753
   13HTM    C6219868   7.557   4.236  10.044 -0.4935  0.1242 -0.1455
   13HTM    C6319869   7.461   4.229  10.151 -0.3346 -0.2760 -0.0234
   13HTM    C6419870   7.473   4.118  10.229  0.3017 -0.1653  0.0399
   13HTM     S719871   7.610   4.013  10.175  0.7530  0.4580 -0.0505
   14TAL    C6519872   7.368   4.353  10.153 -0.8846 -0.0644 -0.6474
   14TAL    C6619873   7.404   4.489  10.209  0.7794  0.2546  0.3687
   14TAL    C6719874   7.362   4.501  10.363 -0.9008  0.2687  0.4903
   14TAL    C6819875   7.454   4.608  10.430  0.1301  0.2480 -0.3140
   14TAL    C6919876   7.455   4.761  10.396  0.7011 -0.3274 -0.6368
   14TAL    C7019877   7.492   4.833  10.524  1.5009  0.2492 -0.4252
   15HTM    C7119878   7.405   4.081  10.356  0.5823  1.2364  0.5134
   15HTM    C7219879   7.459   3.984  10.435  1.3508  1.8726  0.8019
   15HTM    C7319880   7.377   3.948  10.547  1.2494  1.0280  0.4734
   15HTM    C7419881   7.260   4.018  10.554  0.4033 -0.2521 -0.0657
   15HTM     S819882   7.245   4.136  10.418 -0.3368 -0.4921 -0.2012
   16TAL    C7519883   7.402   3.832  10.652  0.1305 -0.9023  0.4280
   16TAL    C7619884   7.555   3.822  10.689  1.6630 -0.5673 -0.8173
   16TAL    C7719885   7.586   3.705  10.780  0.5662  0.5103  0.3025
   16TAL    C7819886   7.730   3.659  10.787  0.1908  0.3222  0.4374
   16TAL    C7919887   7.783   3.517  10.782 -1.3414  0.6516 -0.5322
   16TAL    C8019888   7.929   3.531  10.790  0.5070  0.1575 -0.5735
   17HTM    C8119889   7.146   4.008  10.649  0.1962  0.2383  0.0972
   17HTM    C8219890   7.035   3.931  10.629 -0.2098  0.9135 -0.3488
   17HTM    C8319891   6.967   3.896  10.751 -0.8217  1.1804 -0.6076
   17HTM    C8419892   7.025   3.947  10.863 -0.8821  0.7087 -0.3590
   17HTM     S919893   7.173   4.043  10.824 -0.1656 -0.1157  0.2258
   18TAL    C8519894   6.845   3.797  10.761  0.9130 -0.7295 -0.2043
   18TAL    C8619895   6.694   3.836  10.755 -0.1512 -0.9517  0.3112
   18TAL    C8719896   6.604   3.712  10.754  0.3330  1.1373  0.0059
   18TAL    C8819897   6.574   3.632  10.620 -0.6625 -1.0526  0.3812
   18TAL    C8919898   6.490   3.700  10.516  0.0070  0.5783  0.2160
   18TAL    C9019899   6.348   3.732  10.543 -0.5172 -0.5192 -0.1607
   19HTM    C9119900   6.993   3.921  11.003  0.3811  0.1063 -0.1028
   19HTM    C9219901   6.872   3.930  11.065  0.3633  0.3673 -0.1765
   19HTM    C9319902   6.874   3.892  11.204  0.1192 -0.0165 -0.2745
   19HTM    C9419903   6.997   3.853  11.248 -0.0492 -0.5699 -0.2756
   19HTM    S1019904   7.121   3.862  11.117  0.0886 -0.6502 -0.1519
   20TAL    C9519905   6.754   3.895  11.289  0.7463 -0.7590 -1.5120
   20TAL    C9619906   6.611   3.928  11.234  0.2734 -0.1716  0.3099
   20TAL    C9719907   6.508   3.921  11.340  0.8702  0.7648 -0.1906
   20TAL    C9819908   6.372   3.996  11.313  0.3928 -0.0292 -1.2737
   20TAL    C9919909   6.383   4.111  11.418  0.6224  1.0766  1.6381
   20TAL   C10019910   6.292   4.212  11.378  0.1803 -0.3013 -0.7237
   21HTM   C10119911   7.041   3.832  11.390  0.0563  1.0814  0.3724
   21HTM   C10219912   7.095   3.911  11.487 -0.6373  1.0405  0.8059
   21HTM   C10319913   7.102   3.849  11.616 -0.8396  0.6928  0.6517
   21HTM   C10419914   7.053   3.721  11.619 -0.3004  0.4687  0.1006
   21HTM    S1119915   6.994   3.670  11.456  0.5111  0.6811 -0.2691
   22TAL   C10519916   7.178   3.913  11.732 -0.1887  0.0308 -0.6272
   22TAL   C10619917   7.311   3.965  11.672 -0.2733 -0.6096 -0.9392
   22TAL   C10719918   7.404   4.041  11.776  0.4540  1.2092 -0.5179
   22TAL   C10819919   7.361   4.150  11.873 -1.0972 -1.0154 -1.0893
   22TAL   C10919920   7.293   4.265  11.798 -0.4582 -1.0611 -0.3633
   22TAL   C11019921   7.392   4.359  11.726  0.3412 -0.3246 -0.4225
   23HTM   C11119922   7.014   3.631  11.725 -0.3955 -0.1011  0.0877
   23HTM   C11219923   6.984   3.659  11.855 -0.1065  0.0494  0.1249
   23HTM   C11319924   6.946   3.543  11.932  0.2222  0.1124  0.3888
   23HTM   C11419925   6.947   3.427  11.860  0.1839  0.0100  0.5528
   23HTM    S1219926   6.997   3.456  11.689 -0.2741 -0.1755  0.3854
   24TAL   C11519927   6.909   3.551  12.082 -0.9706  0.4940 -0.6968
   24TAL   C11619928   6.962   3.661  12.179  0.1400  0.0400  0.2023
   24TAL   C11719929   6.935   3.811  12.129 -0.6706  0.8628  1.0098
   24TAL   C11819930   7.060   3.876  12.171 -0.9468  0.9116  0.2308
   24TAL   C11919931   7.072   4.016  12.116 -0.4823  0.6410  1.8583
   24TAL   C12019932   7.107   4.115  12.223 -0.8215 -1.2235  0.3068
   25HTM   C12119933   6.906   3.290  11.888  0.4345  0.0651 -0.3989
   25HTM   C12219934   6.846   3.198  11.806  0.1638  0.2342 -0.3942
   25HTM   C12319935   6.821   3.071  11.870 -0.0452  0.2511 -0.4407
   25HTM   C12419936   6.862   3.066  12.000  0.0660  0.0947 -0.4809
   25HTM    S1319937   6.935   3.222  12.053  0.4465 -0.0873 -0.4630
   26TAL   C12519938   6.800   2.943  11.786 -0.7283  1.0265 -0.8227
   26TAL   C12619939   6.841   2.935  11.642 -0.2757  0.8602 -0.6182
   26TAL   C12719940   6.981   2.904  11.594  0.3465 -0.9212  0.2517
   26TAL   C12819941   7.042   2.804  11.673  0.0389  0.1162 -0.7750
   26TAL   C12919942   7.185   2.772  11.643  0.3546 -0.8112  1.1050
   26TAL   C13019943   7.246   2.655  11.706 -0.3357 -1.1215  0.2480
   27HTM   C13119944   6.836   2.971  12.108  0.0541  0.3140 -0.0413
   27HTM   C13219945   6.871   2.840  12.101  0.6791  0.4770 -0.1000
   27HTM   C13319946   6.844   2.766  12.222  0.8690  0.2589 -0.1898
   27HTM   C13419947   6.789   2.842  12.321  0.3886 -0.0705 -0.1997
   27HTM    S1419948   6.766   3.013  12.269 -0.3465 -0.1311 -0.0955
   28TAL   C13519949   6.907   2.628  12.223  0.3507  0.2345 -0.0230
   28TAL   C13619950   6.797   2.531  12.200  0.3853 -0.5255  0.0040
   28TAL   C13719951   6.834   2.380  12.174  0.3438 -0.5961  0.7136
   28TAL   C13819952   6.903   2.332  12.039  1.3578 -1.2870 -0.1213
   28TAL   C13919953   6.853   2.379  11.888 -0.4857 -0.1951 -1.6918
   28TAL   C14019954   6.920   2.499  11.837  0.3987 -0.6359 -0.9104
   29HTM   C14119955   6.755   2.791  12.455 -0.3067 -0.4103 -0.2036
   29HTM   C14219956   6.837   2.792  12.564 -0.4959  0.2968 -0.0557
   29HTM   C14319957   6.781   2.726  12.679 -0.5603  0.7508  0.1776
   29HTM   C14419958   6.656   2.675  12.658 -0.4201  0.3900  0.2075
   29HTM    S1519959   6.599   2.707  12.490 -0.1942 -0.5586 -0.0587
   30TAL   C14519960   6.870   2.699  12.794  0.6452  0.3450 -0.7606
   30TAL   C14619961   6.984   2.608  12.767 -0.4343  0.4571  0.2105
   30TAL   C14719962   6.991   2.456  12.716  0.2312 -0.2446  1.0670
   30TAL   C14819963   6.877   2.363  12.761  0.1337 -0.7604  0.4613
   30TAL   C14919964   6.882   2.245  12.664 -0.1842  0.6268 -1.1287
   30TAL   C15019965   6.803   2.128  12.731 -0.5570  0.6335 -0.0433
   31HTM   C15119966   6.565   2.608  12.745  0.7959 -0.6865  0.1128
   31HTM   C15219967   6.483   2.501  12.725  0.9935 -0.8580  0.2140
   31HTM   C15319968   6.394   2.475  12.835  0.4134 -0.3611 -0.1253
   31HTM   C15419969   6.408   2.562  12.939 -0.2265  0.1892 -0.4853
   31HTM    S1619970   6.536   2.685  12.905 -0.1455  0.1222 -0.4230
   32TAL   C15519971   6.278   2.372  12.806 -0.4788 -0.1324 -0.6101
   32TAL   C15619972   6.146   2.434  12.746  0.5160  0.7862  0.4215
   32TAL   C15719973   6.131   2.412  12.604  0.0056 -0.6251  0.6720
   32TAL   C15819974   5.991   2.346  12.569 -0.3434  0.1301  0.6920
   32TAL   C15919975   5.981   2.199  12.522 -1.1027  0.3683 -0.2633
   32TAL   C16019976   5.838   2.141  12.511 -0.0797  0.7526 -0.7995
   33HTM   C16119977   6.374   2.520  13.080 -0.4704 -0.5227 -0.3910
   33HTM   C16219978   6.269   2.446  13.124 -0.0734 -0.8702 -0.0154
   33HTM   C16319979   6.267   2.429  13.267  0.3260 -0.6198  0.0235
   33HTM   C16419980   6.371   2.489  13.331  0.2336 -0.0814 -0.3224
   33HTM    S1719981   6.480   2.574  13.215 -0.3696  0.1529 -0.7272
   34TAL   C16519982   6.154   2.345  13.323 -1.4165 -0.8142 -0.8363
   34TAL   C16619983   6.050   2.407  13.420 -0.3120 -0.0490 -0.1000
   34TAL   C16719984   5.943   2.302  13.448  0.2372  0.4301  0.0868
   34TAL   C16819985   5.896   2.293  13.594 -0.9226 -0.1454  0.4957
   34TAL   C16919986   5.974   2.283  13.722 -0.3255 -0.1279 -0.4160
   34TAL   C17019987   6.057   2.166  13.715 -0.7100  0.3853  0.0495
   35HTM   C17119988   6.396   2.493  13.475 -0.0942 -0.5404  0.6769
   35HTM   C17219989   6.387   2.403  13.576  0.1178 -0.1810  1.0215
   35HTM   C17319990   6.424   2.456  13.705  0.2015  0.3330  0.7891
   35HTM   C17419991   6.462   2.587  13.701  0.0535  0.3656  0.2673
   35HTM    S1819992   6.454   2.654  13.534 -0.2052 -0.2553  0.0271
   36TAL   C17519993   6.375   2.374  13.826  0.6826 -0.3872  1.0633
   36TAL   C17619994   6.482   2.275  13.887  0.0498 -0.9226  0.1762
   36TAL   C17719995   6.423   2.218  14.020 -0.5794 -0.4047  0.3927
   36TAL   C17819996   6.311   2.120  13.983  0.9344 -0.7595  0.3245
   36TAL   C17919997   6.285   2.034  14.096 -0.8905  1.3527 -0.1165
   36TAL   C18019998   6.138   2.011  14.111  0.0008  1.0155 -0.0242
   37HTM   C18119999   6.515   2.682  13.800  0.4815  0.1773  0.3952
   37HTM   C18220000   6.623   2.764  13.786  0.8689 -0.2625  0.7449
   37HTM   C18320001   6.651   2.842  13.904  0.7739 -0.3404  0.8200
   37HTM   C18420002   6.565   2.820  14.007  0.3140  0.0401  0.5277
   37HTM    S1920003   6.440   2.697  13.963 -0.0377  0.5301  0.1315
   38TAL   C18520004   6.777   2.923  13.925  1.0166 -1.0287  1.0977
   38TAL   C18620005   6.885   2.854  13.993  0.1074  0.8863  0.5827
   38TAL   C18720006   7.028   2.914  13.960  0.5113  0.6522 -0.2208
   38TAL   C18820007   7.139   2.906  14.058  0.1631  0.2106  0.1903
   38TAL   C18920008   7.190   2.764  14.075  0.1567  0.7729 -0.4821
   38TAL   C19020009   7.315   2.740  14.170  0.9281  0.4032 -0.9543
   39HTM   C19120010   6.546   2.890  14.134  0.5738  0.0623 -0.1624
   39HTM   C19220011   6.495   2.835  14.248 -0.0368  0.0520 -0.4331
   39HTM   C19320012   6.470   2.931  14.353 -0.4239  0.0172 -0.4898
   39HTM   C19420013   6.502   3.059  14.318 -0.1084  0.0011 -0.2625
   39HTM    S2020014   6.566   3.069  14.150  0.7082  0.0286  0.0434
   40TAL   C19520015   6.410   2.896  14.489  0.2134 -0.2085 -0.1197
   40TAL   C19620016   6.454   2.778  14.589  0.7516 -0.2689  0.2387
   40TAL   C19720017   6.581   2.702  14.571 -0.0156  0.1248 -0.0616
   40TAL   C19820018   6.708   2.749  14.629 -0.2211  0.6249  0.3247
   40TAL   C19920019   6.758   2.882  14.578 -0.0260  0.5931  0.1204
   40TAL   C20020020   6.856   2.966  14.649 -1.1377  0.3449 -0.6598
   41HTM   C20120021   6.496   3.178  14.400 -0.1756 -0.4312  0.1078
   41HTM   C20220022   6.388   3.257  14.429  0.0474 -0.0094 -0.1976
   41HTM   C20320023   6.412   3.349  14.537  0.4486  0.6570 -0.8297
   41HTM   C20420024   6.537   3.340  14.591  0.5314  0.7433 -1.0060
   41HTM    S2120025   6.635   3.214  14.508  0.1058 -0.0163 -0.3826
   42TAL   C20520026   6.299   3.438  14.587  0.8092 -0.3968  0.0768
   42TAL   C20620027   6.294   3.596  14.593 -1.3469 -0.6341  0.9778
   42TAL   C20720028   6.153   3.644  14.593  0.5564 -0.6271 -1.4860
   42TAL   C20820029   6.129   3.785  14.544 -0.2949  0.7431 -0.0582
   42TAL   C20920030   5.980   3.818  14.527  0.0726  0.4910 -0.6563
   42TAL   C21020031   5.972   3.956  14.472  0.1392 -0.5131  0.2235
   43HTM   C21120032   6.593   3.422  14.700  0.0014  0.2839  0.1184
   43HTM   C21220033   6.707   3.496  14.685 -0.4756  1.0569  0.2354
   43HTM   C21320034   6.761   3.546  14.809 -0.7476  1.1358  0.3238
   43HTM   C21420035   6.689   3.509  14.919 -0.4781  0.4230  0.2741
   43HTM    S2220036   6.546   3.409  14.874  0.1451 -0.4097  0.1108
   44TAL   C21520037   6.882   3.632  14.809 -0.2908  0.2367 -0.3507
   44TAL   C21620038   6.868   3.772  14.762  0.5631  0.3202  0.2284
   44TAL   C21720039   6.985   3.850  14.784 -0.8906 -0.4336  0.0159
   44TAL   C21820040   7.081   3.835  14.913  0.5845  0.5485  1.2080
   44TAL   C21920041   7.014   3.931  15.020 -0.7361 -0.0068  0.4719
   44TAL   C22020042   7.060   3.906  15.156 -0.0830 -0.6565 -0.0887
   45HTM   C22120043   6.719   3.520  15.059 -0.1454  0.1110  0.0129
   45HTM   C22220044   6.817   3.450  15.123 -0.1189  0.2131  0.0839
   45HTM   C22320045   6.826   3.479  15.264 -0.1566  0.3289  0.0628
   45HTM   C22420046   6.735   3.571  15.307 -0.2122  0.3151 -0.0244
   45HTM    S2320047   6.630   3.629  15.172 -0.2210  0.1536 -0.0870
   46TAL   C22520048   6.939   3.402  15.345  0.2739 -0.3949 -0.0729
   46TAL   C22620049   7.082   3.462  15.328  0.1661  0.5787  0.3677
   46TAL   C22720050   7.158   3.435  15.193 -0.2623  0.4896  0.9029
   46TAL   C22820051   7.153   3.292  15.155  1.1208 -0.7984  0.4159
   46TAL   C22920052   7.204   3.285  15.019  0.6155  0.1268  0.2183
   46TAL   C23020053   7.186   3.146  14.949 -0.7379  0.0827 -0.0842
   47HTM   C23120054   6.705   3.611  15.441 -0.6030 -0.0207  0.3158
   47HTM   C23220055   6.579   3.648  15.481 -0.4040  0.1644  0.7775
   47HTM   C23320056   6.570   3.676  15.622  0.2072  0.4031  0.7750
   47HTM   C23420057   6.688   3.662  15.689  0.4741  0.4000  0.3112
   47HTM    S2420058   6.821   3.611  15.578 -0.0294  0.0930 -0.1619
   48TAL   C23520059   6.443   3.700  15.692  0.9185 -0.1455  0.4646
   48TAL   C23620060   6.380   3.849  15.684 -0.2882  0.3241  0.5200
   48TAL   C23720061   6.415   3.960  15.578  0.3312 -0.1923 -0.7065
   48TAL   C23820062   6.374   4.105  15.617  0.2810 -0.9192 -1.1128
   48TAL   C23920063   6.238   4.138  15.688  0.6356  0.5677 -0.6065
   48TAL   C24020064   6.133   4.173  15.585  1.3474 -0.8491  0.0598
    1HTM     C120065   2.106   3.927   7.987  0.0216  0.3556  0.2617
    1HTM     C220066   2.112   4.034   8.072  0.7814  0.3290  0.2518
    1HTM     C320067   2.133   4.160   8.005  1.5574  0.1975  0.2294
    1HTM     C420068   2.143   4.150   7.870  1.3894  0.1241  0.2225
    1HTM     S120069   2.126   3.979   7.815  0.2289  0.2158  0.2437
    2TAL     C520070   2.100   4.283   8.085  0.4430 -0.4976 -0.2192
    2TAL     C620071   2.123   4.288   8.237 -0.0044  0.3598 -0.7954
    2TAL     C720072   2.015   4.376   8.308 -0.6665  0.4721  0.1498
    2TAL     C820073   1.986   4.515   8.270  1.0846 -0.1837  0.7857
    2TAL     C920074   2.064   4.600   8.350  0.1345 -0.1838  1.1278
    2TAL    C1020075   2.198   4.652   8.284 -0.0592 -1.0526 -0.1838
    3HTM    C1120076   2.168   4.244   7.770  0.6559  0.1555 -0.0146
    3HTM    C1220077   2.214   4.213   7.646  0.0850 -0.0674 -0.1791
    3HTM    C1320078   2.240   4.329   7.564 -0.6817 -0.2247 -0.6601
    3HTM    C1420079   2.213   4.447   7.625 -0.6953 -0.1215 -0.8625
    3HTM     S220080   2.153   4.422   7.794  0.2665  0.1845 -0.4580
    4TAL    C1520081   2.298   4.309   7.426  0.1341 -0.2495  0.2649
    4TAL    C1620082   2.414   4.204   7.423  0.8189  0.0736  0.5015
    4TAL    C1720083   2.546   4.212   7.351 -1.5531  0.2219 -0.4569
    4TAL    C1820084   2.569   4.272   7.208 -0.0997  0.6277 -1.0844
    4TAL    C1920085   2.542   4.428   7.202 -0.0143  0.1020 -0.5623
    4TAL    C2020086   2.581   4.485   7.071 -0.1315  0.0370  0.5920
    5HTM    C2120087   2.260   4.577   7.581 -0.0897  0.2289 -0.2261
    5HTM    C2220088   2.269   4.640   7.461  0.2734  0.2307 -0.2012
    5HTM    C2320089   2.338   4.766   7.466  0.6049  0.0443 -0.0665
    5HTM    C2420090   2.382   4.799   7.591  0.4946 -0.0993  0.0113
    5HTM     S320091   2.339   4.672   7.712 -0.0407 -0.0099 -0.0802
    6TAL    C2520092   2.341   4.825   7.326 -1.5069 -0.1948  0.2826
    6TAL    C2620093   2.234   4.903   7.255  0.3848  0.8182  0.5409
    6TAL    C2720094   2.168   4.992   7.358 -0.3305 -0.7250 -0.2563
    6TAL    C2820095   2.061   5.062   7.277 -0.2998  1.0124  0.2672
    6TAL    C2920096   1.960   5.128   7.367 -1.2876 -0.2082 -0.1224
    6TAL    C3020097   1.855   5.195   7.283  0.0436  1.2928 -0.1945
    7HTM    C3120098   2.447   4.911   7.643 -0.0589  0.2557  0.3524
    7HTM    C3220099   2.542   4.906   7.741 -0.2593  0.4792  0.5594
    7HTM    C3320100   2.606   5.032   7.767 -0.4342  0.5767  0.5257
    7HTM    C3420101   2.562   5.134   7.688 -0.3671  0.4277  0.2930
    7HTM     S420102   2.433   5.078   7.575 -0.0757  0.1503  0.0968
    8TAL    C3520103   2.707   5.030   7.874 -0.4413 -0.0896 -0.3859
    8TAL    C3620104   2.834   4.937   7.858  0.7227  0.3778 -0.5493
    8TAL    C3720105   2.949   4.929   7.963 -0.1842  0.5505 -0.0481
    8TAL    C3820106   3.076   4.844   7.930  0.3668 -0.2272  0.5115
    8TAL    C3920107   3.194   4.835   8.029  0.0544  0.3183  0.1569
    8TAL    C4020108   3.166   4.817   8.171  0.0341 -1.0204 -0.8353
    9HTM    C4120109   2.604   5.274   7.682 -0.4408 -0.1441  0.0949
    9HTM    C4220110   2.692   5.323   7.590 -1.0635 -0.0329 -0.4629
    9HTM    C4320111   2.731   5.459   7.615 -1.1500  0.0483 -0.7647
    9HTM    C4420112   2.673   5.514   7.726 -0.5933 -0.0010 -0.4367
    9HTM     S520113   2.563   5.397   7.807  0.0887 -0.1548  0.2840
   10TAL    C4520114   2.833   5.532   7.527  0.5266 -0.8777  0.1039
   10TAL    C4620115   2.981   5.528   7.582 -0.6726 -1.6776  0.1913
   10TAL    C4720116   3.078   5.429   7.532  0.1661  0.3248  1.2547
   10TAL    C4820117   3.209   5.440   7.597 -0.9636  0.2408  0.7150
   10TAL    C4920118   3.340   5.359   7.537  0.5567 -0.1007  0.3828
   10TAL    C5020119   3.474   5.401   7.592  0.0982 -2.1090 -0.5370
   11HTM    C5120120   2.701   5.644   7.781  0.1976 -0.5690 -0.4658
   11HTM    C5220121   2.774   5.681   7.890 -0.0431 -0.9861 -0.1574
   11HTM    C5320122   2.757   5.819   7.928 -0.0914 -1.1172  0.3084
   11HTM    C5420123   2.670   5.887   7.848  0.1124 -0.8002  0.3553
   11HTM     S620124   2.603   5.782   7.717  0.3834 -0.3075 -0.1897
   12TAL    C5520125   2.826   5.885   8.046 -0.8316 -0.0859 -0.8087
   12TAL    C5620126   2.942   5.802   8.109  0.4325 -0.3575  0.3636
   12TAL    C5720127   2.930   5.812   8.252  0.0549  1.1407 -0.8653
   12TAL    C5820128   2.813   5.739   8.315  0.9596 -0.6491 -0.3103
   12TAL    C5920129   2.819   5.696   8.459 -0.3904  0.3051 -0.3073
   12TAL    C6020130   2.686   5.636   8.491 -0.3602  0.3622  0.7220
   13HTM    C6120131   2.634   6.036   7.836  0.3755  0.3310 -0.0740
   13HTM    C6220132   2.656   6.155   7.900  0.3474  0.4501 -0.2829
   13HTM    C6320133   2.596   6.268   7.835  0.2900  0.3163 -0.4649
   13HTM    C6420134   2.528   6.237   7.721  0.2744  0.0950 -0.3948
   13HTM     S720135   2.534   6.059   7.687  0.3314  0.0380 -0.0910
   14TAL    C6520136   2.598   6.392   7.923 -0.6221 -0.0481  1.0131
   14TAL    C6620137   2.742   6.453   7.953  0.8985  0.9402 -0.4058
   14TAL    C6720138   2.827   6.501   7.832 -0.4101  0.1234 -0.8664
   14TAL    C6820139   2.791   6.646   7.791 -0.3385  0.4395 -0.4445
   14TAL    C6920140   2.702   6.659   7.669  0.6862  0.1402 -0.6664
   14TAL    C7020141   2.748   6.738   7.551  0.3463  0.5361 -0.0917
   15HTM    C7120142   2.467   6.326   7.620  0.6613  0.6312  0.0692
   15HTM    C7220143   2.521   6.362   7.500  0.3889  0.8823  0.0178
   15HTM    C7320144   2.453   6.471   7.436 -0.2169  0.5333  0.0495
   15HTM    C7420145   2.347   6.519   7.507 -0.4062  0.0162  0.1250
   15HTM     S820146   2.324   6.429   7.662  0.1703 -0.0709  0.1622
   16TAL    C7520147   2.473   6.509   7.292 -0.5557 -0.6899 -0.3425
   16TAL    C7620148   2.565   6.412   7.217 -0.6097 -0.3812 -0.3085
   16TAL    C7720149   2.689   6.490   7.161  0.8951 -0.8522 -0.0936
   16TAL    C7820150   2.752   6.455   7.032 -0.5455 -0.8906 -1.0471
   16TAL    C7920151   2.868   6.550   6.991  0.1986 -0.4535 -0.1810
   16TAL    C8020152   2.937   6.514   6.857 -0.7417  0.3270  0.3444
   17HTM    C8120153   2.261   6.635   7.479 -0.7376  0.2362 -0.0203
   17HTM    C8220154   2.133   6.629   7.431 -0.9099  0.6055  0.3808
   17HTM    C8320155   2.070   6.758   7.418 -0.6081  0.7836  0.6605
   17HTM    C8420156   2.150   6.862   7.456 -0.2057  0.5498  0.4725
   17HTM     S920157   2.311   6.805   7.512 -0.1766  0.0832 -0.0764
   18TAL    C8520158   1.926   6.753   7.369  0.0146 -0.1590  0.0595
   18TAL    C8620159   1.818   6.755   7.473  1.4516  0.3111 -0.3442
   18TAL    C8720160   1.710   6.834   7.408 -1.1787 -0.2747  0.5842
   18TAL    C8820161   1.589   6.869   7.496  0.1232  0.2701 -0.5842
   18TAL    C8920162   1.467   6.918   7.413  0.7566 -0.6001 -0.4149
   18TAL    C9020163   1.340   6.942   7.493 -0.2582 -0.3913 -0.2824
   19HTM    C9120164   2.121   7.004   7.446 -0.8307 -0.7366  0.3168
   19HTM    C9220165   2.215   7.100   7.465 -0.4880 -1.1832  0.9342
   19HTM    C9320166   2.166   7.234   7.448  0.1461 -0.9210  1.0959
   19HTM    C9420167   2.034   7.240   7.415  0.2870 -0.2742  0.6020
   19HTM    S1020168   1.961   7.075   7.403 -0.3756  0.0561 -0.1115
   20TAL    C9520169   2.264   7.351   7.478 -0.2967 -0.7770  0.9984
   20TAL    C9620170   2.295   7.386   7.628 -0.0114  1.1226  0.4960
   20TAL    C9720171   2.393   7.504   7.640  0.5699  0.7017 -0.6056
   20TAL    C9820172   2.411   7.573   7.779  0.4743 -0.5313  1.1575
   20TAL    C9920173   2.449   7.488   7.896 -0.2036  0.0200  0.8824
   20TAL   C10020174   2.606   7.492   7.879  0.1830  0.5763 -0.6073
   21HTM   C10120175   1.941   7.345   7.407  0.6908  0.2372  0.0775
   21HTM   C10220176   1.807   7.343   7.434  0.7651 -0.1100  0.4432
   21HTM   C10320177   1.740   7.467   7.407  0.3088 -0.3798  0.3047
   21HTM   C10420178   1.823   7.565   7.360 -0.1134 -0.2379 -0.1671
   21HTM    S1120179   1.993   7.507   7.346  0.0337  0.2507 -0.4750
   22TAL   C10520180   1.589   7.492   7.386  0.0547  0.5615  0.8546
   22TAL   C10620181   1.503   7.371   7.442 -0.9008  0.2904  0.1722
   22TAL   C10720182   1.384   7.319   7.362  0.8042  0.2643 -0.5281
   22TAL   C10820183   1.407   7.286   7.221 -0.6515 -0.1675  0.5726
   22TAL   C10920184   1.282   7.272   7.125 -0.7534 -0.4650  0.0344
   22TAL   C11020185   1.174   7.172   7.170  0.1251  0.3480 -0.2055
   23HTM   C11120186   1.802   7.707   7.307  0.5285 -0.5720  0.4668
   23HTM   C11220187   1.745   7.741   7.189  0.6295 -0.6837  0.3854
   23HTM   C11320188   1.722   7.883   7.174  0.5366 -0.7092  0.2801
   23HTM   C11420189   1.761   7.956   7.282  0.3648 -0.6169  0.2811
   23HTM    S1220190   1.831   7.852   7.411  0.3065 -0.4897  0.4163
   24TAL   C11520191   1.648   7.946   7.060  0.2079  0.2643 -1.0932
   24TAL   C11620192   1.733   7.937   6.929  0.6245 -1.0212  0.4252
   24TAL   C11720193   1.658   7.954   6.790 -0.6088  0.0193  0.3388
   24TAL   C11820194   1.527   7.881   6.777  0.4221  0.5483 -1.8746
   24TAL   C11920195   1.413   7.966   6.726 -0.4362  0.1141 -0.2012
   24TAL   C12020196   1.342   8.044   6.833  0.6357  0.1194  1.4488
   25HTM   C12120197   1.747   8.094   7.324 -0.6168  0.0979 -0.2527
   25HTM   C12220198   1.660   8.140   7.419 -1.3238  0.4187 -1.0357
   25HTM   C12320199   1.662   8.283   7.435 -1.2391  0.4487 -1.3033
   25HTM   C12420200   1.751   8.346   7.353 -0.4675  0.1507 -0.7242
   25HTM    S1320201   1.839   8.229   7.248  0.2173 -0.1935  0.2112
   26TAL   C12520202   1.587   8.333   7.562  0.6156 -1.6579  0.1997
   26TAL   C12620203   1.452   8.384   7.519  1.1453 -0.2242 -0.2357
   26TAL   C12720204   1.375   8.458   7.620 -0.7803  0.2818 -0.5486
   26TAL   C12820205   1.451   8.590   7.657 -0.4148  0.6252 -0.2692
   26TAL   C12920206   1.389   8.684   7.763 -0.0274 -0.2666 -0.9557
   26TAL   C13020207   1.249   8.724   7.728  0.1594  0.3703  1.4667
   27HTM   C13120208   1.756   8.492   7.337  0.0292  0.1349 -0.1992
   27HTM   C13220209   1.736   8.600   7.417  0.7678  0.1578 -0.0358
   27HTM   C13320210   1.737   8.726   7.347  1.4436  0.2494  0.1268
   27HTM   C13420211   1.758   8.714   7.213  1.2203  0.2965  0.0875
   27HTM    S1420212   1.778   8.541   7.165  0.1307  0.2278 -0.1600
   28TAL   C13520213   1.719   8.860   7.416 -0.4039 -0.5710  0.0721
   28TAL   C13620214   1.793   8.893   7.552  0.5982 -0.1149  0.4454
   28TAL   C13720215   1.804   9.026   7.626 -0.0323 -0.4004  0.4498
   28TAL   C13820216   1.660   9.047   7.679  0.1430 -0.3722  0.5878
   28TAL   C13920217   1.651   9.143   7.797  0.1813 -0.1001 -0.5607
   28TAL   C14020218   1.623   9.283   7.775 -0.5428 -1.3029 -0.7262
   29HTM   C14120219   1.796   8.811   7.115 -0.1526  0.0220 -0.1818
   29HTM   C14220220   1.888   8.782   7.018 -0.3417  0.1452 -0.3989
   29HTM   C14320221   1.910   8.891   6.926 -0.4295  0.3095 -0.2288
   29HTM   C14420222   1.836   9.001   6.953 -0.3075  0.3116  0.1180
   29HTM    S1520223   1.730   8.978   7.097 -0.0702  0.1049  0.2576
   30TAL   C14520224   2.025   8.879   6.821  0.3216  0.5197  0.2506
   30TAL   C14620225   2.100   8.743   6.803 -0.9550 -0.6637  0.0418
   30TAL   C14720226   2.046   8.613   6.732 -0.2561 -0.9812 -1.4273
   30TAL   C14820227   2.068   8.473   6.817 -0.7599 -0.8819  0.9120
   30TAL   C14920228   2.097   8.476   6.969 -0.9012  0.1502 -0.6177
   30TAL   C15020229   2.096   8.349   7.045  0.4853 -0.5024  0.9151
   31HTM   C15120230   1.819   9.112   6.860  0.3581  0.3748  0.2877
   31HTM   C15220231   1.718   9.201   6.880  0.3027  0.2904  0.3922
   31HTM   C15320232   1.727   9.319   6.797 -0.2332  0.0045 -0.0886
   31HTM   C15420233   1.836   9.318   6.714 -0.5865 -0.1293 -0.5597
   31HTM    S1620234   1.935   9.169   6.735 -0.2674  0.0976 -0.4319
   32TAL   C15520235   1.621   9.420   6.813  0.1717 -0.2774 -0.2218
   32TAL   C15620236   1.515   9.461   6.709  0.2056  0.1046  0.8641
   32TAL   C15720237   1.460   9.350   6.620 -0.2075 -0.1059 -0.7383
   32TAL   C15820238   1.340   9.275   6.688  1.1551 -0.9209 -0.2792
   32TAL   C15920239   1.213   9.346   6.739  0.1664 -1.7268  0.1602
   32TAL   C16020240   1.109   9.368   6.629  0.0657 -0.9816 -0.1547
   33HTM   C16120241   1.873   9.402   6.598  0.3736  0.0106 -0.1779
   33HTM   C16220242   1.966   9.387   6.500  0.1864  0.3920 -0.4169
   33HTM   C16320243   1.977   9.502   6.413 -0.2415  0.5848 -0.2218
   33HTM   C16420244   1.892   9.603   6.445 -0.3805  0.3504  0.1659
   33HTM    S1720245   1.790   9.562   6.588  0.0214 -0.1360  0.3159
   34TAL   C16520246   2.089   9.507   6.307 -0.2473  0.1258 -1.1647
   34TAL   C16620247   2.080   9.439   6.172 -0.7090 -0.4707 -0.3811
   34TAL   C16720248   1.961   9.514   6.090 -0.2366  1.2717 -0.4895
   34TAL   C16820249   2.003   9.564   5.949  0.1552  0.5227  0.5386
   34TAL   C16920250   2.112   9.668   5.941 -0.2256 -0.4602  0.6353
   34TAL   C17020251   2.188   9.669   5.816 -0.6921  0.7313  0.5541
   35HTM   C17120252   1.864   9.729   6.385  0.6209 -0.0409  0.8964
   35HTM   C17220253   1.745   9.778   6.341  0.4671 -0.1874  1.1424
   35HTM   C17320254   1.757   9.902   6.268  0.2066 -0.3619  0.7967
   35HTM   C17420255   1.885   9.947   6.257  0.1620 -0.3479  0.2872
   35HTM    S1820256   2.001   9.836   6.338  0.4476 -0.1117  0.2038
   36TAL   C17520257   1.628   9.978   6.205 -0.7618 -0.5471 -0.0699
   36TAL   C17620258   1.528   9.899   6.126 -0.7369  0.3449  0.5024
   36TAL   C17720259   1.405   9.970   6.071 -0.0169 -1.4391  0.6098
   36TAL   C17820260   1.294   9.877   6.057  1.2347  0.3661 -0.6210
   36TAL   C17920261   1.158   9.935   6.009 -0.3974  0.3273  0.8578
   36TAL   C18020262   1.154   9.985   5.861 -0.1885  0.3537 -0.3379
   37HTM   C18120263   1.946  10.066   6.194  0.6218 -0.4850 -0.0941
   37HTM   C18220264   2.005  10.173   6.254  0.5621 -0.5036 -0.0026
   37HTM   C18320265   2.048  10.275   6.162  0.2806 -0.2867  0.1026
   37HTM   C18420266   2.022  10.245   6.031  0.1257 -0.1026  0.0913
   37HTM    S1920267   1.940  10.085   6.014  0.3247 -0.1898 -0.0543
   38TAL   C18520268   2.123  10.402   6.189  0.2494 -1.3506 -0.7158
   38TAL   C18620269   2.224  10.398   6.299 -0.6770 -0.2078 -0.5879
   38TAL   C18720270   2.325  10.517   6.312 -0.3332  1.1765 -0.1725
   38TAL   C18820271   2.448  10.463   6.232 -0.4156 -0.0956 -0.1055
   38TAL   C18920272   2.508  10.583   6.153 -0.4948  0.4358  0.1568
   38TAL   C19020273   2.653  10.573   6.160  0.3320 -0.4120 -0.7713
   39HTM   C19120274   2.050  10.318   5.915 -0.6206 -0.2943 -0.0550
   39HTM   C19220275   2.142  10.295   5.818 -0.4352 -0.2126  0.0989
   39HTM   C19320276   2.158  10.403   5.725 -0.1859 -0.0948  0.2772
   39HTM   C19420277   2.078  10.510   5.752 -0.1813 -0.0868  0.2592
   39HTM    S2020278   1.975  10.482   5.897 -0.4937 -0.2284  0.0139
   40TAL   C19520279   2.257  10.385   5.609  0.1974 -0.7128 -0.6567
   40TAL   C19620280   2.247  10.275   5.499 -0.9759  0.3911 -0.1119
   40TAL   C19720281   2.199  10.140   5.533  0.2455  0.2259  0.6392
   40TAL   C19820282   2.131  10.064   5.412  0.3800 -0.4982 -0.1636
   40TAL   C19920283   2.025   9.963   5.448 -0.2075 -1.0259 -0.0565
   40TAL   C20020284   2.083   9.831   5.414 -0.8493 -0.0514 -0.7708
   41HTM   C20120285   2.034  10.612   5.657  0.4907  0.8393  0.2951
   41HTM   C20220286   1.908  10.653   5.623  0.5106  0.9249  0.3262
   41HTM   C20320287   1.907  10.763   5.531  0.5615  0.6551  0.0011
   41HTM   C20420288   2.031  10.806   5.493  0.5803  0.3639 -0.2779
   41HTM    S2120289   2.160  10.709   5.573  0.5350  0.4080 -0.1506
   42TAL   C20520290   1.785  10.817   5.463 -0.5349 -1.4085  0.5274
   42TAL   C20620291   1.650  10.845   5.529  1.2701 -0.3946 -1.1947
   42TAL   C20720292   1.649  10.935   5.658  0.2413 -0.9406 -0.8899
   42TAL   C20820293   1.700  11.086   5.671  0.2076  0.1794  0.2572
   42TAL   C20920294   1.659  11.188   5.557  1.1431  0.5654 -0.2127
   42TAL   C21020295   1.516  11.240   5.570 -0.0008  0.2427  0.1709
   43HTM   C21120296   2.071  10.927   5.429  0.7593  0.3736  0.2768
   43HTM   C21220297   2.176  11.006   5.466  1.3209  0.1328 -0.7184
   43HTM   C21320298   2.197  11.120   5.381  1.0979 -0.1937 -1.2156
   43HTM   C21420299   2.108  11.128   5.278  0.3663 -0.2018 -0.5998
   43HTM    S2220300   1.990  10.992   5.281 -0.1014  0.2054  0.6658
   44TAL   C21520301   2.301  11.218   5.430  0.0407 -0.4039  1.0065
   44TAL   C21620302   2.257  11.348   5.477 -0.8781 -0.1923 -1.0082
   44TAL   C21720303   2.336  11.469   5.421 -1.7983  0.1467 -0.2219
   44TAL   C21820304   2.274  11.609   5.438 -0.0891  0.6931 -0.3289
   44TAL   C21920305   2.149  11.644   5.358  0.7607 -0.7269 -1.1470
   44TAL   C22020306   2.071  11.771   5.382 -0.5836 -0.1162 -0.0747
   45HTM   C22120307   2.092  11.223   5.171  0.3332  0.5176  0.6467
   45HTM   C22220308   1.975  11.283   5.133  0.2784  0.7710  1.1983
   45HTM   C22320309   1.994  11.395   5.045  0.1066  0.7289  1.1064
   45HTM   C22420310   2.125  11.421   5.016  0.0304  0.4434  0.4849
   45HTM    S2320311   2.235  11.304   5.098  0.1709  0.2036 -0.0368
   46TAL   C22520312   1.875  11.471   4.993 -0.4456  0.5256  1.0672
   46TAL   C22620313   1.805  11.573   5.082  0.1464  0.1502  0.3229
   46TAL   C22720314   1.707  11.668   5.003 -1.2977 -0.0264 -0.6991
   46TAL   C22820315   1.617  11.747   5.095  0.5269  0.4761  0.8788
   46TAL   C22920316   1.654  11.853   5.196 -0.6850 -0.1287 -0.1029
   46TAL   C23020317   1.724  11.976   5.160 -0.7326  0.4432 -0.8389
   47HTM   C23120318   2.186  11.527   4.940  0.0086  0.3459 -0.2937
   47HTM   C23220319   2.129  11.583   4.829  0.4350 -0.1483 -0.7716
   47HTM   C23320320   2.205  11.692   4.773  0.6852 -0.4433 -1.0097
   47HTM   C23420321   2.320  11.719   4.842  0.4496 -0.1742 -0.7133
   47HTM    S2420322   2.341  11.608   4.983 -0.1109  0.4779 -0.1057
   48TAL   C23520323   2.130  11.758   4.662  0.1523 -0.7307 -0.4165
   48TAL   C23620324   2.219  11.815   4.547 -1.4114 -0.1429 -0.3853
   48TAL   C23720325   2.149  11.925   4.462  0.4979 -0.3050  0.0405
   48TAL   C23820326   2.244  11.980   4.358 -0.5478 -0.8027  0.1012
   48TAL   C23920327   2.383  12.042   4.388 -0.2661 -0.3637 -0.5201
   48TAL   C24020328   2.380  12.179   4.471  0.9029 -0.0457 -0.5761
    1HTM     C120329   8.284   2.385   8.145  0.9940  0.2610  0.0654
    1HTM     C220330   8.366   2.468   8.215  1.3673  0.0792 -0.1531
    1HTM     C320331   8.464   2.398   8.295  1.2810 -0.1429 -0.2384
    1HTM     C420332   8.456   2.262   8.286  0.8415 -0.1306 -0.0855
    1HTM     S120333   8.324   2.211   8.174  0.4999  0.1648  0.1810
    2TAL     C520334   8.575   2.465   8.381  0.5515 -0.0185 -0.3264
    2TAL     C620335   8.541   2.603   8.441  0.0490  0.4503 -0.1527
    2TAL     C720336   8.661   2.697   8.456 -0.2497  0.1874  0.5058
    2TAL     C820337   8.648   2.827   8.521  1.3930 -0.6014 -0.1420
    2TAL     C920338   8.537   2.867   8.615  0.6660  0.4184 -0.0158
    2TAL    C1020339   8.552   3.005   8.658  0.0165 -0.0112  0.1667
    3HTM    C1120340   8.550   2.173   8.338 -0.1728 -0.1609 -0.1620
    3HTM    C1220341   8.640   2.098   8.268 -0.1013 -0.2452  0.0186
    3HTM    C1320342   8.729   2.022   8.352 -0.2975 -0.2786  0.1998
    3HTM    C1420343   8.707   2.038   8.485 -0.5185 -0.2198  0.1573
    3HTM     S220344   8.571   2.153   8.516 -0.4959 -0.1168 -0.1168
    4TAL    C1520345   8.829   1.941   8.270  0.9306 -0.1698  0.4416
    4TAL    C1620346   8.772   1.796   8.236 -0.5241 -0.5221  1.1619
    4TAL    C1720347   8.684   1.781   8.116  0.2342 -0.1053  0.2749
    4TAL    C1820348   8.751   1.784   7.982 -0.4726 -1.1724  0.2977
    4TAL    C1920349   8.663   1.727   7.876 -0.3272 -0.5577 -0.2563
    4TAL    C2020350   8.713   1.778   7.733 -0.1082  0.3540 -1.1836
    5HTM    C2120351   8.774   1.993   8.605  0.3332 -0.0693 -0.7152
    5HTM    C2220352   8.788   2.066   8.719  0.5329  0.3553 -1.0052
    5HTM    C2320353   8.869   2.002   8.819  0.3157  0.5047 -0.7296
    5HTM    C2420354   8.918   1.881   8.781 -0.0496  0.1941 -0.2290
    5HTM     S320355   8.864   1.837   8.615 -0.1479 -0.3153 -0.0660
    6TAL    C2520356   8.881   2.062   8.953  1.1488  0.6849 -0.5879
    6TAL    C2620357   8.959   2.202   8.959  0.5588 -0.0310  0.4943
    6TAL    C2720358   9.086   2.197   9.044  0.2940 -1.5098  0.3565
    6TAL    C2820359   9.081   2.171   9.193 -0.2281 -1.1064 -1.3374
    6TAL    C2920360   9.205   2.152   9.277 -0.0139  0.4602  1.0012
    6TAL    C3020361   9.190   2.026   9.370 -1.2024  0.0635  1.2552
    7HTM    C3120362   9.002   1.783   8.848 -0.1453 -0.4277  0.2548
    7HTM    C3220363   9.007   1.650   8.821 -0.2546 -0.5245  0.6993
    7HTM    C3320364   9.099   1.577   8.905 -0.0412 -0.2604  0.6959
    7HTM    C3420365   9.165   1.655   8.995  0.2314  0.0379  0.2488
    7HTM     S420366   9.115   1.828   8.982  0.2391  0.0079 -0.2060
    8TAL    C3520367   9.120   1.436   8.874  0.3742  0.4528 -0.3682
    8TAL    C3620368   9.036   1.327   8.942  0.6338  0.0693  0.2847
    8TAL    C3720369   8.880   1.359   8.959  0.2390 -0.0934  0.8998
    8TAL    C3820370   8.807   1.231   8.948  0.2065  0.3788  0.7464
    8TAL    C3920371   8.658   1.252   8.961 -0.3432  0.1329 -1.5031
    8TAL    C4020372   8.578   1.134   8.925 -0.4714  0.1202  0.4199
    9HTM    C4120373   9.269   1.610   9.087  0.0793 -0.2919 -0.3207
    9HTM    C4220374   9.234   1.580   9.216 -0.1945 -0.1914 -0.3719
    9HTM    C4320375   9.333   1.505   9.287 -0.2370  0.0855 -0.0176
    9HTM    C4420376   9.445   1.477   9.214  0.0047  0.1963  0.3038
    9HTM     S520377   9.433   1.545   9.047  0.3065 -0.0425  0.1835
   10TAL    C4520378   9.320   1.459   9.437  1.5670 -0.4642  0.8971
   10TAL    C4620379   9.221   1.346   9.468 -0.1150 -0.7063  0.0421
   10TAL    C4720380   9.255   1.225   9.383  0.2271 -0.0339  0.3582
   10TAL    C4820381   9.154   1.112   9.419  0.3777 -0.1168  0.9399
   10TAL    C4920382   9.172   1.005   9.325 -0.2106  0.1806 -0.3598
   10TAL    C5020383   9.095   1.030   9.201  0.6863 -0.2337  0.6459
   11HTM    C5120384   9.574   1.448   9.260  0.1839 -0.3962  0.1520
   11HTM    C5220385   9.659   1.534   9.324  0.2999 -0.3934 -0.0050
   11HTM    C5320386   9.794   1.485   9.333  0.2995 -0.4286 -0.1762
   11HTM    C5420387   9.812   1.362   9.276  0.1831 -0.4582 -0.1502
   11HTM     S620388   9.659   1.298   9.206  0.0639 -0.4439  0.0952
   12TAL    C5520389   9.899   1.573   9.392 -0.1456 -0.4718 -0.0276
   12TAL    C5620390   9.950   1.698   9.323 -1.0560 -1.6950  0.4193
   12TAL    C5720391  10.086   1.751   9.369 -0.9857 -0.9580  0.2488
   12TAL    C5820392  10.141   1.877   9.304  0.2869 -0.2653  0.3383
   12TAL    C5920393  10.288   1.892   9.343 -0.3382 -0.6314 -0.2707
   12TAL    C6020394  10.381   1.974   9.254  1.1204 -0.4057  0.9262
   13HTM    C6120395   9.931   1.284   9.239  0.0481  0.0298  0.1261
   13HTM    C6220396   9.935   1.184   9.146  0.0893 -0.3872  0.5717
   13HTM    C6320397  10.063   1.118   9.138  0.1152 -0.3784  0.8683
   13HTM    C6420398  10.157   1.169   9.224  0.0936  0.0453  0.6485
   13HTM     S720399  10.089   1.304   9.323  0.0386  0.4694  0.0456
   14TAL    C6520400  10.084   1.016   9.023 -0.2030  0.4236  0.2815
   14TAL    C6620401  10.053   0.873   9.014  0.8207  0.9777  0.0011
   14TAL    C6720402  10.006   0.801   9.154 -0.5603 -0.5426 -0.1238
   14TAL    C6820403   9.877   0.729   9.165  0.7321 -0.5917 -0.8871
   14TAL    C6920404   9.740   0.816   9.190 -0.4466  0.3543 -0.4503
   14TAL    C7020405   9.686   0.901   9.078 -0.6747 -0.9680 -0.3565
   15HTM    C7120406  10.296   1.133   9.232  0.5553 -0.3059  0.2302
   15HTM    C7220407  10.357   1.043   9.314  0.9436  0.6225  0.9875
   15HTM    C7320408  10.501   1.043   9.302  0.9499  1.1624  1.0247
   15HTM    C7420409  10.548   1.133   9.211  0.5664  0.6457  0.2953
   15HTM     S820410  10.415   1.225   9.132  0.1644 -0.5724 -0.5010
   16TAL    C7520411  10.590   0.967   9.397  0.6012  0.2477 -0.5355
   16TAL    C7620412  10.525   0.885   9.527 -0.3916  1.0418  0.2876
   16TAL    C7720413  10.631   0.839   9.623  0.1960  0.5101  0.2622
   16TAL    C7820414  10.699   0.934   9.704  0.0540  0.1785  0.5549
   16TAL    C7920415  10.844   0.923   9.734  0.0205  0.1005 -1.1010
   16TAL    C8020416  10.858   0.799   9.833  0.1996  0.4616 -0.5310
   17HTM    C8120417  10.684   1.150   9.156 -0.1489 -0.5578  0.5406
   17HTM    C8220418  10.740   1.248   9.080 -0.5201 -0.4233  0.4375
   17HTM    C8320419  10.878   1.225   9.047 -0.5800 -0.1999  0.0057
   17HTM    C8420420  10.928   1.109   9.099 -0.2545 -0.1642 -0.2203
   17HTM     S920421  10.803   1.019   9.193  0.1561 -0.4118  0.0973
   18TAL    C8520422  10.959   1.303   8.945  1.0974  0.4273  1.0496
   18TAL    C8620423  10.878   1.327   8.807  0.0495 -0.6392  0.3904
   18TAL    C8720424  10.970   1.403   8.708  0.4350 -0.2587 -0.2969
   18TAL    C8820425  10.924   1.404   8.555 -0.9027  0.1229 -0.3061
   18TAL    C8920426  10.782   1.442   8.529 -0.6654  0.4971 -0.3112
   18TAL    C9020427  10.741   1.580   8.558  0.7337  1.1600  0.0756
   19HTM    C9120428  11.053   1.043   9.094  0.1958 -0.4955 -0.1603
   19HTM    C9220429  11.067   0.911   9.060  0.1522 -0.5538  0.0479
   19HTM    C9320430  11.202   0.873   9.031  0.1258 -0.6242  0.0181
   19HTM    C9420431  11.292   0.975   9.041  0.1494 -0.6196 -0.2126
   19HTM    S1020432  11.212   1.129   9.090  0.2072 -0.5252 -0.4118
   20TAL    C9520433  11.223   0.729   8.972  0.5883  0.1744 -0.3146
   20TAL    C9620434  11.365   0.674   8.954  0.0112 -0.5060 -1.5303
   20TAL    C9720435  11.380   0.519   8.968 -0.4025  0.2708  0.5782
   20TAL    C9820436  11.381   0.432   8.851 -0.3172  0.1170 -0.2772
   20TAL    C9920437  11.511   0.460   8.783 -0.7896  0.2718  0.2861
   20TAL   C10020438  11.549   0.365   8.669  0.1058 -0.0531  0.4375
   21HTM   C10120439  11.440   0.970   9.029  0.3272 -0.1676  0.4911
   21HTM   C10220440  11.531   0.946   9.127  0.5975 -0.1743  0.2401
   21HTM   C10320441  11.666   0.930   9.079  0.4869 -0.0340 -0.1161
   21HTM   C10420442  11.677   0.943   8.943  0.1323  0.0798 -0.1368
   21HTM    S1120443  11.517   0.976   8.867 -0.0912  0.0180  0.2958
   22TAL   C10520444  11.783   0.883   9.178  0.2924 -0.7445  0.6585
   22TAL   C10620445  11.825   0.973   9.295 -0.2980  0.7129  0.3912
   22TAL   C10720446  11.892   1.107   9.270  0.5903 -0.4090 -0.2830
   22TAL   C10820447  11.904   1.180   9.397 -0.8022  0.1191 -0.3452
   22TAL   C10920448  11.942   1.333   9.378 -0.9122  1.1461 -0.6070
   22TAL   C11020449  11.982   1.369   9.529  1.6371  0.7382  0.0867
   23HTM   C11120450  11.788   0.962   8.854  0.4437 -0.2066  0.2056
   23HTM   C11220451  11.790   0.941   8.720  0.3803 -0.5898  0.2635
   23HTM   C11320452  11.907   0.993   8.654  0.2409 -0.5703  0.0267
   23HTM   C11420453  11.994   1.054   8.739  0.1981 -0.1721 -0.2113
   23HTM    S1220454  11.935   1.051   8.909  0.3315  0.2120 -0.1547
   24TAL   C11520455  11.932   0.972   8.501 -0.6752  0.7976  1.1406
   24TAL   C11620456  11.862   0.849   8.437 -0.6032 -0.0676 -0.5033
   24TAL   C11720457  11.721   0.845   8.372 -0.2963 -0.3395 -0.9956
   24TAL   C11820458  11.660   0.706   8.402  0.3962  0.3628  0.5081
   24TAL   C11920459  11.538   0.670   8.312 -0.1161  0.5773 -0.4936
   24TAL   C12020460  11.509   0.519   8.296 -0.6584 -0.0711 -0.0851
   25HTM   C12120461  12.114   1.126   8.727 -0.2301 -0.2058 -0.3470
   25HTM   C12220462  12.205   1.129   8.828 -0.1222 -1.2009 -0.3922
   25HTM   C12320463  12.326   1.199   8.794  0.2325 -1.6779 -0.1330
   25HTM   C12420464  12.327   1.249   8.668  0.3952 -1.0467  0.1104
   25HTM    S1320465  12.174   1.212   8.580  0.1108  0.2091  0.0303
   26TAL   C12520466  12.426   1.210   8.906 -0.6135 -0.8267  0.1390
   26TAL   C12620467  12.497   1.082   8.939  0.9122 -0.3943 -0.1989
   26TAL   C12720468  12.561   1.068   9.077 -0.0982 -0.3655 -0.1888
   26TAL   C12820469  12.627   0.935   9.107 -0.5401 -1.2295 -0.0515
   26TAL   C12920470  12.598   0.866   9.239  0.2208 -0.0234  0.4871
   26TAL   C13020471  12.470   0.784   9.246 -0.4113  0.0591  0.7713
   27HTM   C13120472  12.422   1.331   8.595  0.3728 -0.5154 -0.0292
   27HTM   C13220473  12.400   1.394   8.476  0.1363 -0.5849 -0.0229
   27HTM   C13320474  12.512   1.472   8.430 -0.0618 -0.3688 -0.1435
   27HTM   C13420475  12.619   1.468   8.514  0.0238 -0.1346 -0.2421
   27HTM    S1420476  12.587   1.366   8.658  0.3637 -0.1690 -0.1893
   28TAL   C13520477  12.518   1.566   8.300 -0.1526 -0.3149  0.7449
   28TAL   C13620478  12.369   1.588   8.235 -0.5923  0.0577  1.0893
   28TAL   C13720479  12.355   1.722   8.162  0.1071  0.0086  0.6400
   28TAL   C13820480  12.222   1.737   8.077  0.1312  0.7420 -1.1438
   28TAL   C13920481  12.244   1.876   8.028  0.3758 -0.1813  0.0765
   28TAL   C14020482  12.112   1.937   7.976 -0.1834 -0.1669 -0.2354
   29HTM   C14120483  12.748   1.537   8.519 -0.4069  0.1477  0.2408
   29HTM   C14220484  12.856   1.495   8.591 -0.4790  0.0373  0.2851
   29HTM   C14320485  12.978   1.564   8.558 -0.2834 -0.4507 -0.0420
   29HTM   C14420486  12.963   1.659   8.462 -0.0621 -0.7123 -0.3358
   29HTM    S1520487  12.792   1.668   8.403 -0.0838 -0.3600 -0.2211
   30TAL   C14520488  13.107   1.532   8.634  0.5617 -0.1183  0.2406
   30TAL   C14620489  13.191   1.413   8.578 -0.5600  0.3775  0.4266
   30TAL   C14720490  13.343   1.390   8.615  0.9261 -2.1299  0.0126
   30TAL   C14820491  13.357   1.352   8.769 -0.0515  0.7469  0.7246
   30TAL   C14920492  13.499   1.296   8.794 -0.4006  0.0415 -0.2364
   30TAL   C15020493  13.537   1.160   8.729 -0.1551 -0.1464 -0.7963
   31HTM   C15120494  13.054   1.748   8.390 -0.4424  0.3521 -0.2725
   31HTM   C15220495  13.035   1.826   8.280 -0.1656  0.1698 -0.4520
   31HTM   C15320496  13.154   1.893   8.234 -0.0067 -0.0666 -0.3855
   31HTM   C15420497  13.265   1.866   8.310 -0.1623 -0.0644 -0.1557
   31HTM    S1620498  13.226   1.754   8.445 -0.5244  0.2386 -0.0041
   32TAL   C15520499  13.135   1.993   8.126 -1.0546 -0.0214  0.4708
   32TAL   C15620500  13.110   2.139   8.162 -0.5511  0.8600  0.5990
   32TAL   C15720501  13.174   2.225   8.064  0.7008  0.7650 -0.0474
   32TAL   C15820502  13.159   2.376   8.057  2.0575 -0.3998  0.3595
   32TAL   C15920503  13.022   2.438   8.005 -0.8205 -0.6762 -0.4658
   32TAL   C16020504  13.057   2.542   7.899  0.1578  0.0801 -2.1946
   33HTM   C16120505  13.399   1.940   8.307  0.1510  0.4201  0.3699
   33HTM   C16220506  13.411   2.076   8.307  0.0520  0.4380 -0.3295
   33HTM   C16320507  13.546   2.122   8.326  0.0672  0.6366 -0.9053
   33HTM   C16420508  13.637   2.022   8.339  0.1781  0.7703 -0.6450
   33HTM    S1720509  13.559   1.859   8.330  0.2723  0.6547  0.3555
   34TAL   C16520510  13.581   2.273   8.329 -0.2198  0.5319 -0.0141
   34TAL   C16620511  13.497   2.379   8.409 -0.8879  0.2202  0.4866
   34TAL   C16720512  13.507   2.532   8.381  0.2758 -0.0120 -0.0667
   34TAL   C16820513  13.641   2.607   8.411 -0.6898  0.4320  0.4034
   34TAL   C16920514  13.608   2.750   8.459  1.2018 -0.0774  0.7015
   34TAL   C17020515  13.613   2.780   8.616 -0.3314  1.1332  0.0138
   35HTM   C17120516  13.769   2.021   8.387 -0.3531 -0.1182  0.7613
   35HTM   C17220517  13.850   1.913   8.372 -0.3517 -0.1425  0.9370
   35HTM   C17320518  13.991   1.944   8.382 -0.3171  0.0144  0.1349
   35HTM   C17420519  14.016   2.076   8.405 -0.2922  0.1584 -0.6521
   35HTM    S1820520  13.864   2.172   8.416 -0.3106  0.1065 -0.4400
   36TAL   C17520521  14.105   1.837   8.389  0.6222 -0.0869 -0.1372
   36TAL   C17620522  14.175   1.786   8.260 -0.3227 -0.5743 -0.2034
   36TAL   C17720523  14.085   1.697   8.187 -1.1012  1.4363 -0.6134
   36TAL   C17820524  14.143   1.619   8.074 -0.2254  0.0448  0.1177
   36TAL   C17920525  14.031   1.556   7.995  0.4627  0.5814  0.2494
   36TAL   C18020526  13.998   1.609   7.853  0.4367  0.1465 -0.6041
   37HTM   C18120527  14.149   2.150   8.429  0.5656  0.0300  0.1452
   37HTM   C18220528  14.239   2.189   8.334  0.4352  0.2244  0.1011
   37HTM   C18320529  14.350   2.264   8.387  0.3742  0.3404  0.0658
   37HTM   C18420530  14.345   2.282   8.522  0.4579  0.2345  0.0831
   37HTM    S1920531  14.198   2.205   8.593  0.6218 -0.0220  0.1456
   38TAL   C18520532  14.456   2.315   8.284  0.1821  0.2183  0.2561
   38TAL   C18620533  14.419   2.422   8.188  0.1651  0.6398  1.4126
   38TAL   C18720534  14.540   2.460   8.094  0.2411 -0.4151  0.9009
   38TAL   C18820535  14.535   2.565   7.968 -1.2512  0.4826 -0.3241
   38TAL   C18920536  14.435   2.556   7.851 -0.1451  0.4250 -0.8622
   38TAL   C19020537  14.469   2.647   7.740  0.0691  0.0709 -0.0460
   39HTM   C19120538  14.437   2.337   8.619 -0.2890  0.1382  0.4023
   39HTM   C19220539  14.569   2.364   8.600 -0.3263  0.2415  0.2882
   39HTM   C19320540  14.637   2.407   8.720 -0.2321  0.1906  0.2532
   39HTM   C19420541  14.557   2.412   8.830 -0.1233  0.0486  0.3404
   39HTM    S2020542  14.388   2.363   8.791 -0.1312 -0.0326  0.4744
   40TAL   C19520543  14.781   2.441   8.705 -0.7857 -1.2222 -0.3111
   40TAL   C19620544  14.876   2.336   8.655  0.2337 -0.0626  0.1127
   40TAL   C19720545  14.855   2.270   8.516  0.6838 -0.6661 -0.2560
   40TAL   C19820546  14.851   2.380   8.395  1.0325  0.2386  0.5021
   40TAL   C19920547  14.952   2.490   8.387 -0.4073 -0.5027 -0.4680
   40TAL   C20020548  15.089   2.446   8.360 -0.4382  0.2662  0.3178
   41HTM   C20120549  14.603   2.424   8.967 -0.1298  0.0419  0.1625
   41HTM   C20220550  14.717   2.466   9.028  0.2114 -0.3106 -0.2193
   41HTM   C20320551  14.708   2.471   9.171  0.7856 -0.4982 -0.1712
   41HTM   C20420552  14.587   2.432   9.220  0.8825 -0.2886  0.2476
   41HTM    S2120553  14.474   2.386   9.087  0.2509  0.1653  0.6163
   42TAL   C20520554  14.836   2.463   9.255 -0.5565 -0.7927  0.2950
   42TAL   C20620555  14.840   2.515   9.399  0.9364  0.8099 -0.3824
   42TAL   C20720556  14.962   2.474   9.485 -0.5294  0.4939 -0.3147
   42TAL   C20820557  14.938   2.494   9.640  0.3375  0.5334 -0.0376
   42TAL   C20920558  15.049   2.500   9.744 -0.5728  0.9594  0.4426
   42TAL   C21020559  15.166   2.590   9.702  0.0210 -0.3308 -0.0170
   43HTM   C21120560  14.512   2.426   9.349 -0.1344  0.0954  0.1931
   43HTM   C21220561  14.440   2.526   9.408 -0.1718 -0.1119  0.5004
   43HTM   C21320562  14.383   2.488   9.535  0.1116 -0.4190  0.5403
   43HTM   C21420563  14.412   2.360   9.573  0.3651 -0.4458  0.2631
   43HTM    S2220564  14.514   2.277   9.450  0.2649 -0.0823 -0.0721
   44TAL   C21520565  14.330   2.611   9.613 -0.2641  0.8908 -0.1036
   44TAL   C21620566  14.448   2.681   9.694  0.5487 -0.5776  0.2665
   44TAL   C21720567  14.400   2.823   9.733  0.9661  0.5829  0.4319
   44TAL   C21820568  14.395   2.922   9.617  0.7807  0.4356  0.5498
   44TAL   C21920569  14.313   3.041   9.655  0.2655  0.3775 -0.0173
   44TAL   C22020570  14.356   3.150   9.751 -0.3312 -0.0077 -0.9812
   45HTM   C22120571  14.377   2.285   9.692  0.4856 -0.1955  0.1806
   45HTM   C22220572  14.424   2.161   9.724  0.0318 -0.3564  0.2303
   45HTM   C22320573  14.410   2.129   9.864 -0.6393 -0.4945  0.1395
   45HTM   C22420574  14.353   2.229   9.938 -0.6972 -0.4389  0.0207
   45HTM    S2320575  14.312   2.372   9.836  0.0977 -0.2059  0.0145
   46TAL   C22520576  14.470   1.997   9.928  0.9331 -0.3366  0.2997
   46TAL   C22620577  14.593   1.935   9.868 -0.4355  0.3501  0.9457
   46TAL   C22720578  14.647   1.806   9.932 -0.6367 -0.3219  0.2930
   46TAL   C22820579  14.792   1.750   9.887 -0.1733 -1.3789 -0.2998
   46TAL   C22920580  14.828   1.750   9.736  0.0110 -1.0654 -0.2621
   46TAL   C23020581  14.961   1.680   9.718  0.7266  1.0568  0.9491
   47HTM   C23120582  14.304   2.224  10.075 -0.5896  0.0729  0.0758
   47HTM   C23220583  14.199   2.149  10.120 -1.1116  0.8444  0.1838
   47HTM   C23320584  14.196   2.132  10.263 -1.0993  0.8838  0.1887
   47HTM   C23420585  14.299   2.194  10.327 -0.5682  0.1423  0.0844
   47HTM    S2420586  14.408   2.279  10.212 -0.0378 -0.6695 -0.0290
   48TAL   C23520587  14.086   2.056  10.335  0.6502  1.0756 -0.5824
   48TAL   C23620588  14.124   2.032  10.491  0.0402  0.6046  0.4009
   48TAL   C23720589  14.072   1.914  10.564 -0.1369  0.4033 -0.3320
   48TAL   C23820590  14.124   1.773  10.537 -0.3585  0.3469 -0.4899
   48TAL   C23920591  14.087   1.702  10.419 -0.1329  0.0348  0.7867
   48TAL   C24020592  14.159   1.573  10.376 -0.4790 -0.6326  0.1056
    1HTM     C120593   8.702   2.015   5.259 -0.3276  0.3063 -0.1140
    1HTM     C220594   8.572   2.052   5.243 -0.2031  0.4810 -0.7991
    1HTM     C320595   8.495   1.962   5.161  0.0515  0.4663 -1.0227
    1HTM     C420596   8.567   1.856   5.114  0.1214  0.2802 -0.5083
    1HTM     S120597   8.739   1.862   5.171 -0.1314  0.1080  0.3049
    2TAL     C520598   8.348   1.981   5.146 -0.2192 -0.0407  0.0339
    2TAL     C620599   8.286   2.108   5.216 -0.8867  0.1632 -0.4301
    2TAL     C720600   8.147   2.147   5.183  0.2640 -0.1874  0.8091
    2TAL     C820601   8.093   2.280   5.249 -0.4115 -0.3667  0.0076
    2TAL     C920602   8.103   2.287   5.400 -0.4108 -1.6007  1.0496
    2TAL    C1020603   8.055   2.426   5.438  0.7126 -0.7770  0.4139
    3HTM    C1120604   8.543   1.752   5.012 -0.5967 -0.1453  0.1566
    3HTM    C1220605   8.576   1.620   5.022 -1.7524 -0.4346  0.4303
    3HTM    C1320606   8.541   1.543   4.905 -1.7719 -0.2121  0.2878
    3HTM    C1420607   8.482   1.616   4.807 -0.6308  0.2469 -0.0947
    3HTM     S220608   8.465   1.790   4.854  0.5665  0.4352 -0.3060
    4TAL    C1520609   8.539   1.391   4.909 -0.5143  0.9550 -1.1911
    4TAL    C1620610   8.603   1.298   5.014 -0.5268  0.6792  0.4130
    4TAL    C1720611   8.750   1.302   5.028 -0.4633 -0.9505  1.0487
    4TAL    C1820612   8.809   1.307   5.171  0.3291  1.0924  0.3712
    4TAL    C1920613   8.719   1.346   5.285 -0.1099 -0.2770 -0.7263
    4TAL    C2020614   8.775   1.359   5.426 -0.3966  0.0633 -1.2808
    5HTM    C2120615   8.440   1.580   4.680  0.2018  0.0157  0.2149
    5HTM    C2220616   8.317   1.613   4.633  0.0772  0.1067  0.6016
    5HTM    C2320617   8.275   1.535   4.519 -0.3729  0.0791  0.7792
    5HTM    C2420618   8.368   1.443   4.478 -0.5916 -0.0328  0.5279
    5HTM     S320619   8.515   1.447   4.582 -0.2433 -0.1128  0.0439
    6TAL    C2520620   8.140   1.556   4.430 -0.1751 -0.6265 -0.2506
    6TAL    C2620621   8.063   1.693   4.447 -0.3370  0.5924  0.8531
    6TAL    C2720622   8.149   1.800   4.386 -0.3128  0.0160 -0.6488
    6TAL    C2820623   8.078   1.939   4.401 -0.3150 -0.0375 -0.4933
    6TAL    C2920624   8.165   2.053   4.355  1.5597 -0.3710  1.0078
    6TAL    C3020625   8.098   2.194   4.335 -0.5598 -0.4413  0.5819
    7HTM    C3120626   8.379   1.359   4.361 -0.3172 -0.0591  0.2888
    7HTM    C3220627   8.308   1.346   4.246 -0.2241 -0.4497  0.2738
    7HTM    C3320628   8.365   1.252   4.153  0.3054 -0.1438  0.2877
    7HTM    C3420629   8.481   1.195   4.197  0.6165  0.4801  0.3135
    7HTM     S420630   8.526   1.254   4.361  0.2616  0.7315  0.3219
    8TAL    C3520631   8.306   1.249   4.014 -0.8119  0.3214  0.0460
    8TAL    C3620632   8.312   1.367   3.925  0.6685 -0.4489  0.2566
    8TAL    C3720633   8.424   1.368   3.821 -0.8521 -1.8028  0.9459
    8TAL    C3820634   8.465   1.507   3.761  0.3464  0.1542  0.2421
    8TAL    C3920635   8.341   1.559   3.686 -1.2472  0.2032  0.5433
    8TAL    C4020636   8.333   1.702   3.629  0.1527 -0.3934 -0.9401
    9HTM    C4120637   8.578   1.104   4.138  1.1105  0.7132  0.1966
    9HTM    C4220638   8.558   1.016   4.036  0.5500  0.9640  0.0815
    9HTM    C4320639   8.662   0.917   4.023 -0.0837  0.2898 -0.0232
    9HTM    C4420640   8.761   0.930   4.116 -0.0066 -0.4749  0.0122
    9HTM     S520641   8.730   1.068   4.227  0.8791 -0.4025  0.1816
   10TAL    C4520642   8.677   0.809   3.909 -0.4555 -0.1752 -0.2955
   10TAL    C4620643   8.581   0.827   3.787 -0.3760 -0.5053  0.2893
   10TAL    C4720644   8.621   0.754   3.664  0.4085 -1.0506  0.7191
   10TAL    C4820645   8.503   0.747   3.554 -0.2530 -0.1142 -0.1616
   10TAL    C4920646   8.493   0.881   3.480 -0.6585 -0.1636 -0.1001
   10TAL    C5020647   8.347   0.914   3.447 -0.3070 -0.2814  0.0099
   11HTM    C5120648   8.887   0.858   4.111 -0.3485 -0.0730  0.7276
   11HTM    C5220649   8.897   0.723   4.131 -0.5684 -0.0040  1.3469
   11HTM    C5320650   9.024   0.682   4.184 -0.4153 -0.0264  0.9671
   11HTM    C5420651   9.111   0.784   4.205 -0.0790 -0.1126  0.0582
   11HTM     S620652   9.038   0.943   4.158  0.0718 -0.1725 -0.3921
   12TAL    C5520653   9.045   0.539   4.220  0.6722  0.5702  0.2949
   12TAL    C5620654   9.003   0.423   4.124  0.2344  0.1687  0.1963
   12TAL    C5720655   8.954   0.291   4.183 -0.0847 -0.5367 -0.2684
   12TAL    C5820656   8.890   0.180   4.097  0.5768 -0.5778 -1.1818
   12TAL    C5920657   8.976   0.106   3.981  0.5704 -1.0874  0.0003
   12TAL    C6020658   8.879   0.010   3.909 -0.5171 -0.0223 -0.6757
   13HTM    C6120659   9.244   0.774   4.261 -0.0687  0.4646 -0.1876
   13HTM    C6220660   9.358   0.804   4.193  0.1938  0.6064  0.3046
   13HTM    C6320661   9.478   0.773   4.265 -0.0780  0.4196  0.6847
   13HTM    C6420662   9.456   0.720   4.388 -0.5480  0.1353  0.4821
   13HTM     S720663   9.280   0.704   4.423 -0.6846  0.0811 -0.2095
   14TAL    C6520664   9.608   0.814   4.194 -0.4943 -0.5590 -0.1277
   14TAL    C6620665   9.677   0.716   4.108 -0.5731  0.0085  0.1404
   14TAL    C6720666   9.617   0.689   3.976 -0.4596  0.2153  0.5462
   14TAL    C6820667   9.604   0.808   3.872 -0.9296  0.6902 -0.8285
   14TAL    C6920668   9.505   0.771   3.760 -0.5341 -0.4051  0.0987
   14TAL    C7020669   9.476   0.897   3.658  0.4326 -0.5826 -0.1197
   15HTM    C7120670   9.555   0.685   4.485  0.3218 -0.3862  0.2224
   15HTM    C7220671   9.586   0.564   4.541  0.3402 -0.1377  0.7602
   15HTM    C7320672   9.678   0.573   4.651  0.1466  0.3888  0.8870
   15HTM    C7420673   9.718   0.700   4.679 -0.0192  0.5418  0.4460
   15HTM     S820674   9.642   0.820   4.567  0.0567  0.0288 -0.1683
   16TAL    C7520675   9.722   0.437   4.715 -0.5341 -0.3058 -0.9388
   16TAL    C7620676   9.618   0.367   4.802  0.5671  0.7350 -0.4641
   16TAL    C7720677   9.667   0.237   4.892  0.5463  0.0575 -1.1308
   16TAL    C7820678   9.797   0.223   4.982 -1.8445 -0.9499  1.1439
   16TAL    C7920679   9.793   0.117   5.088 -0.6092  0.0727 -0.3801
   16TAL    C8020680   9.897   0.141   5.208  1.2436 -0.4311  0.2225
   17HTM    C8120681   9.812   0.747   4.782  0.2524  0.0242 -0.1589
   17HTM    C8220682   9.888   0.860   4.783 -0.3561  0.4395  0.0879
   17HTM    C8320683   9.961   0.880   4.905 -0.5770  0.6433  0.1864
   17HTM    C8420684   9.940   0.782   4.998 -0.1369  0.3834  0.0148
   17HTM     S920685   9.827   0.656   4.937  0.5963 -0.1429 -0.2871
   18TAL    C8520686  10.046   1.005   4.931 -0.2592  0.0674  0.3543
   18TAL    C8620687  10.093   1.086   4.813  0.0436  0.1492  0.4815
   18TAL    C8720688  10.238   1.127   4.840  0.8595  0.5339 -0.4928
   18TAL    C8820689  10.314   1.222   4.754  0.7038  0.1211 -0.7164
   18TAL    C8920690  10.286   1.229   4.606 -1.1089  0.3682  0.1457
   18TAL    C9020691  10.318   1.355   4.529  0.2089  0.8498 -0.6154
   19HTM    C9120692  10.001   0.763   5.132  0.0625 -0.0414  0.2300
   19HTM    C9220693  10.045   0.855   5.223  0.5015 -0.1461  0.1311
   19HTM    C9320694  10.100   0.798   5.342  0.6465 -0.2826 -0.0006
   19HTM    C9420695  10.099   0.662   5.344  0.3181 -0.2820 -0.0021
   19HTM    S1020696  10.028   0.595   5.192 -0.2038 -0.1076  0.1640
   20TAL    C9520697  10.166   0.881   5.456 -0.1082  0.1142  0.5617
   20TAL    C9620698  10.239   1.008   5.407  1.1562  1.0726  0.6728
   20TAL    C9720699  10.329   1.065   5.509  0.0050 -0.8156  0.4695
   20TAL    C9820700  10.428   1.171   5.455 -0.3633  0.5792 -0.5612
   20TAL    C9920701  10.383   1.307   5.413  1.0270 -0.3511  0.2996
   20TAL   C10020702  10.408   1.372   5.272  0.0776 -1.0956 -1.4560
   21HTM   C10120703  10.146   0.560   5.435  0.4135 -0.0422 -0.1868
   21HTM   C10220704  10.125   0.425   5.430  0.5659 -0.0727 -0.0302
   21HTM   C10320705  10.189   0.352   5.536  0.1229  0.1899  0.4271
   21HTM   C10420706  10.259   0.431   5.623 -0.3672  0.4207  0.6192
   21HTM    S1120707  10.249   0.605   5.576 -0.3068  0.3235  0.2344
   22TAL   C10520708  10.163   0.204   5.551  0.3714  0.9313  0.4541
   22TAL   C10620709  10.039   0.147   5.616 -0.9170  0.4272  0.3796
   22TAL   C10720710   9.908   0.167   5.550 -0.3699  0.5850 -0.8677
   22TAL   C10820711   9.797   0.097   5.640 -0.4609  0.0179  0.1045
   22TAL   C10920712   9.677   0.064   5.565 -0.5390  0.0899  1.0709
   22TAL   C11020713   9.562   0.005   5.624  0.6355 -0.3972 -0.5341
   23HTM   C11120714  10.350   0.394   5.732  0.4430 -0.0972 -0.3266
   23HTM   C11220715  10.397   0.473   5.833  0.2927 -0.0333 -0.3067
   23HTM   C11320716  10.468   0.401   5.935 -0.1202 -0.0117  0.0017
   23HTM   C11420717  10.475   0.267   5.912 -0.2848 -0.0591  0.2170
   23HTM    S1220718  10.393   0.221   5.758  0.0717 -0.1354  0.0455
   24TAL   C11520719  10.536   0.462   6.052 -0.1200  0.0692  0.5950
   24TAL   C11620720  10.542   0.612   6.064  0.1286 -1.1898 -1.2205
   24TAL   C11720721  10.603   0.676   6.198 -0.7269 -0.2341  1.2364
   24TAL   C11820722  10.512   0.669   6.314  0.2489  0.0073  0.6360
   24TAL   C11920723  10.573   0.733   6.434 -0.4222  0.1731 -1.3366
   24TAL   C12020724  10.492   0.735   6.562 -0.0865  0.6075 -0.1693
   25HTM   C12120725  10.525   0.150   5.987 -0.8750  0.0504 -0.5140
   25HTM   C12220726  10.531   0.144   6.123 -1.1139  0.6385 -0.4721
   25HTM   C12320727  10.570   0.015   6.174 -0.8097  0.9620  0.1417
   25HTM   C12420728  10.593  -0.078   6.077 -0.3390  0.6203  0.5678
   25HTM    S1320729  10.567  -0.009   5.912 -0.2425 -0.1422  0.2241
   26TAL   C12520730  10.610  -0.003   6.325  0.0631 -0.9997  0.1130
   26TAL   C12620731  10.730   0.086   6.361 -0.9476  0.6636 -0.2978
   26TAL   C12720732  10.819   0.021   6.483  0.4187 -0.3299 -0.2904
   26TAL   C12820733  10.793   0.080   6.627 -0.5135  0.9102  0.4095
   26TAL   C12920734  10.916   0.042   6.711  0.8799 -0.3821 -0.2666
   26TAL   C13020735  11.062   0.076   6.661  0.0999 -0.4017  0.1936
   27HTM   C13120736  10.642  -0.220   6.093 -0.2950 -0.2316 -0.1701
   27HTM   C13220737  10.591  -0.324   6.165  0.0070 -0.3476 -0.1241
   27HTM   C13320738  10.665  -0.447   6.148  0.3639 -0.1445 -0.0691
   27HTM   C13420739  10.771  -0.436   6.063  0.3341  0.1267 -0.0735
   27HTM    S1420740  10.787  -0.268   5.998 -0.1508  0.1460 -0.1478
   28TAL   C13520741  10.610  -0.589   6.205 -0.6076 -0.4600  0.7919
   28TAL   C13620742  10.458  -0.599   6.227 -0.7171 -0.3535  0.2781
   28TAL   C13720743  10.409  -0.695   6.332 -1.0439  0.5744 -0.2907
   28TAL   C13820744  10.492  -0.718   6.468  0.5903 -0.2703  0.4991
   28TAL   C13920745  10.524  -0.592   6.547 -0.4144  0.5284 -0.2539
   28TAL   C14020746  10.411  -0.500   6.591  0.0206  0.0046  1.5655
   29HTM   C14120747  10.857  -0.543   6.018  0.3627 -0.6920 -0.0244
   29HTM   C14220748  10.938  -0.620   6.097  0.2703 -1.0321 -0.2533
   29HTM   C14320749  10.996  -0.733   6.029  0.1892 -0.8581 -0.6169
   29HTM   C14420750  10.959  -0.743   5.898  0.2198 -0.3855 -0.6651
   29HTM    S1520751  10.848  -0.609   5.850  0.3543 -0.1213 -0.2521
   30TAL   C14520752  11.090  -0.813   6.105 -0.2358  0.8113  0.4720
   30TAL   C14620753  11.038  -0.906   6.223 -0.0820 -1.5084 -0.1852
   30TAL   C14720754  11.002  -0.828   6.349 -1.5736  0.1603  0.4265
   30TAL   C14820755  10.915  -0.908   6.448 -0.1648  0.2071 -0.8077
   30TAL   C14920756  10.948  -1.059   6.478 -0.4580 -0.9602  0.1049
   30TAL   C15020757  10.879  -1.166   6.393 -0.8637 -0.7410  0.0861
   31HTM   C15120758  10.982  -0.851   5.801  0.3032 -0.5661 -0.1758
   31HTM   C15220759  10.891  -0.915   5.723  0.4166 -0.2477 -0.5777
   31HTM   C15320760  10.947  -1.021   5.644  0.4867 -0.0956 -0.7312
   31HTM   C15420761  11.081  -1.037   5.661  0.4268 -0.2987 -0.4469
   31HTM    S1620762  11.148  -0.919   5.780  0.2761 -0.7003  0.0410
   32TAL   C15520763  10.863  -1.106   5.553 -0.4352 -0.4319 -0.4842
   32TAL   C15620764  10.791  -1.219   5.633  0.2316 -1.0201 -0.0263
   32TAL   C15720765  10.669  -1.275   5.549  0.8891 -0.3999 -0.7040
   32TAL   C15820766  10.523  -1.234   5.587  0.0538  0.4497 -0.2469
   32TAL   C15920767  10.478  -1.204   5.734 -0.4228 -0.4584  1.2847
   32TAL   C16020768  10.466  -1.326   5.829  0.0141 -0.1000 -0.2375
   33HTM   C16120769  11.177  -1.116   5.578  0.3536 -0.1663  0.7610
   33HTM   C16220770  11.293  -1.075   5.521  0.3424 -0.0489  0.8217
   33HTM   C16320771  11.348  -1.170   5.427  0.2138  0.2282  0.4590
   33HTM   C16420772  11.274  -1.283   5.414  0.1270  0.3225  0.1214
   33HTM    S1720773  11.127  -1.279   5.519  0.2015  0.0659  0.2365
   34TAL   C16520774  11.492  -1.143   5.368 -0.2789 -0.9094  0.3437
   34TAL   C16620775  11.528  -0.984   5.349  0.3545  1.4794  0.6286
   34TAL   C16720776  11.656  -0.929   5.277 -0.3979  1.1214  0.2186
   34TAL   C16820777  11.714  -1.015   5.157 -0.1732 -0.0976 -0.6515
   34TAL   C16920778  11.764  -1.159   5.182 -0.1157 -0.3850  0.7112
   34TAL   C17020779  11.893  -1.188   5.265 -0.0476 -0.1534  0.1434
   35HTM   C17120780  11.292  -1.397   5.334 -0.0568 -0.9021 -0.0784
   35HTM   C17220781  11.283  -1.523   5.386  0.5619 -1.0328 -0.2776
   35HTM   C17320782  11.344  -1.624   5.303  1.2006 -0.5872 -0.3633
   35HTM   C17420783  11.399  -1.575   5.188  1.0690 -0.1163 -0.2295
   35HTM    S1820784  11.378  -1.396   5.176  0.1207 -0.1999  0.0173
   36TAL   C17520785  11.355  -1.765   5.345  0.8071  0.8749  1.5903
   36TAL   C17620786  11.467  -1.784   5.457  0.6566 -0.0621  0.5506
   36TAL   C17720787  11.535  -1.918   5.441 -0.0870 -0.0045 -1.1262
   36TAL   C17820788  11.673  -1.922   5.381 -0.5788  0.2600  0.3488
   36TAL   C17920789  11.745  -2.055   5.375  0.7912  0.4205 -0.3183
   36TAL   C18020790  11.841  -2.056   5.257 -0.8131 -0.1839 -0.2705
   37HTM   C18120791  11.463  -1.625   5.077 -0.0582  0.6988 -0.5454
   37HTM   C18220792  11.582  -1.584   5.025 -0.1321  0.5426 -0.8399
   37HTM   C18320793  11.640  -1.679   4.933 -0.3941  0.3848 -0.8457
   37HTM   C18420794  11.565  -1.791   4.915 -0.5200  0.4210 -0.5555
   37HTM    S1920795  11.414  -1.787   5.014 -0.3158  0.6588 -0.2503
   38TAL   C18520796  11.760  -1.638   4.847  0.5628  0.6437 -0.7543
   38TAL   C18620797  11.730  -1.525   4.749  0.2475  0.8884 -0.3502
   38TAL   C18720798  11.837  -1.503   4.631  0.0240 -0.4523  0.5677
   38TAL   C18820799  11.990  -1.495   4.646 -0.9683 -0.2804 -0.6549
   38TAL   C18920800  12.092  -1.529   4.533  0.5759 -0.2278  0.1616
   38TAL   C19020801  12.073  -1.444   4.409 -1.6666 -0.0204 -0.9290
   39HTM   C19120802  11.602  -1.907   4.837  0.3910 -0.2202 -0.0353
   39HTM   C19220803  11.624  -2.038   4.870  0.3716 -0.2172 -0.0101
   39HTM   C19320804  11.648  -2.123   4.756  0.0540 -0.3000 -0.0191
   39HTM   C19420805  11.645  -2.057   4.637 -0.1687 -0.3664 -0.0511
   39HTM    S2020806  11.611  -1.881   4.659  0.0067 -0.3289 -0.0725
   40TAL   C19520807  11.685  -2.266   4.785 -0.1758  0.3870  0.0474
   40TAL   C19620808  11.583  -2.369   4.836 -0.1027  0.2033  0.2820
   40TAL   C19720809  11.634  -2.503   4.858  0.4344 -0.1845  0.3599
   40TAL   C19820810  11.545  -2.624   4.900 -0.8959  0.0706  0.9958
   40TAL   C19920811  11.455  -2.578   5.015  0.2244 -0.1752  0.5690
   40TAL   C20020812  11.329  -2.651   5.056 -0.8432  0.3046  0.0352
   41HTM   C20120813  11.653  -2.101   4.498 -0.0302 -0.1345 -0.2584
   41HTM   C20220814  11.645  -2.023   4.386  0.0762 -0.0116 -0.1806
   41HTM   C20320815  11.687  -2.090   4.266  0.2892  0.1522 -0.1996
   41HTM   C20420816  11.726  -2.219   4.286  0.3452  0.1545 -0.2917
   41HTM    S2120817  11.713  -2.266   4.460  0.1316 -0.0519 -0.3622
   42TAL   C20520818  11.665  -2.014   4.138 -0.6057  0.6922 -0.0373
   42TAL   C20620819  11.523  -1.958   4.094  0.3658 -0.4033 -0.1386
   42TAL   C20720820  11.400  -2.052   4.120 -0.3371 -0.1883  0.0553
   42TAL   C20820821  11.271  -1.971   4.129 -0.2338  0.0497 -0.1502
   42TAL   C20920822  11.171  -2.082   4.099  0.5557 -0.2409  0.6634
   42TAL   C21020823  11.038  -2.016   4.039  0.2615 -0.4115  0.5685
   43HTM   C21120824  11.785  -2.318   4.200  0.5592 -0.0551  0.5699
   43HTM   C21220825  11.822  -2.287   4.073  0.1380 -0.0556  0.4435
   43HTM   C21320826  11.918  -2.378   4.016 -0.1672 -0.1459  0.0657
   43HTM   C21420827  11.954  -2.479   4.100  0.0215 -0.2147 -0.0958
   43HTM    S2220828  11.869  -2.467   4.258  0.6036 -0.1700  0.2192
   44TAL   C21520829  11.979  -2.348   3.881  0.2450  0.2217 -0.4469
   44TAL   C21620830  11.897  -2.253   3.791  0.2448  0.6443  0.8478
   44TAL   C21720831  11.935  -2.284   3.646  0.2818 -0.2158  0.3068
   44TAL   C21820832  11.803  -2.272   3.560  0.4575 -0.4085  0.1302
   44TAL   C21920833  11.817  -2.330   3.426  0.0769  0.4124  1.1042
   44TAL   C22020834  11.813  -2.488   3.421  0.5200 -0.7530 -0.5054
   45HTM   C22120835  12.030  -2.603   4.061  0.5445 -0.3378  0.2926
   45HTM   C22220836  12.037  -2.714   4.141  1.9475 -0.1291  0.5075
   45HTM   C22320837  12.105  -2.825   4.079  2.1785  0.1763  0.2002
   45HTM   C22420838  12.149  -2.800   3.952  0.9515  0.2003 -0.2492
   45HTM    S2320839  12.108  -2.631   3.901 -0.6029 -0.1634 -0.3195
   46TAL   C22520840  12.096  -2.962   4.151 -0.5447 -0.9114 -0.6216
   46TAL   C22620841  12.161  -2.960   4.294  0.6267 -0.4733  0.2045
   46TAL   C22720842  12.306  -2.904   4.322  0.4343  0.3633 -0.7852
   46TAL   C22820843  12.395  -3.026   4.365 -0.1124 -0.4311 -0.2962
   46TAL   C22920844  12.545  -2.998   4.407  0.6247  0.3319  1.0413
   46TAL   C23020845  12.585  -2.974   4.548 -1.2681 -0.0177 -0.2592
   47HTM   C23120846  12.221  -2.889   3.859 -1.3680 -0.7241 -0.1601
   47HTM   C23220847  12.298  -2.998   3.887 -1.2083 -0.5889 -0.0658
   47HTM   C23320848  12.352  -3.063   3.771 -0.3347 -0.0602  0.0346
   47HTM   C23420849  12.318  -3.003   3.653  0.1718  0.2080  0.0170
   47HTM    S2420850  12.212  -2.859   3.681 -0.4199 -0.1897 -0.1292
   48TAL   C23520851  12.430  -3.190   3.780 -0.6386 -0.7896  0.6548
   48TAL   C23620852  12.363  -3.293   3.858  0.5137  1.5676 -0.2059
   48TAL   C23720853  12.331  -3.435   3.808  0.7200  0.1995  1.5906
   48TAL   C23820854  12.244  -3.442   3.679 -0.0602  0.5495  0.8676
   48TAL   C23920855  12.290  -3.385   3.535 -0.9779 -0.1526 -1.1064
   48TAL   C24020856  12.414  -3.465   3.491  0.6361 -0.7855  0.2255
    1HTM     C120857   1.658   2.402   0.697  0.0766  0.0536  0.6671
    1HTM     C220858   1.696   2.282   0.645 -0.1045 -0.1293  0.9541
    1HTM     C320859   1.782   2.293   0.530 -0.0401 -0.5341  0.9608
    1HTM     C420860   1.809   2.422   0.494  0.1900 -0.6599  0.6789
    1HTM     S120861   1.727   2.540   0.603  0.3446 -0.2739  0.3808
    2TAL     C520862   1.824   2.168   0.474 -0.1841  0.7128 -0.6373
    2TAL     C620863   1.966   2.124   0.505  0.3558  0.1079  0.6680
    2TAL     C720864   2.006   2.072   0.640 -0.1801 -0.0618  0.0078
    2TAL     C820865   2.086   1.937   0.668 -0.0031 -0.8476  0.0538
    2TAL     C920866   2.201   1.905   0.570 -0.8614 -0.4293  0.2234
    2TAL    C1020867   2.199   1.749   0.582 -0.0072 -0.1172  0.7609
    3HTM    C1120868   1.881   2.467   0.374 -0.5739 -0.1394  0.1512
    3HTM    C1220869   1.893   2.596   0.331 -0.3706 -0.0705  0.4087
    3HTM    C1320870   1.959   2.608   0.204 -0.1352  0.1002  0.5460
    3HTM    C1420871   1.998   2.489   0.150 -0.1591  0.1614  0.3931
    3HTM     S220872   1.953   2.351   0.256 -0.4831  0.0069  0.0613
    4TAL    C1520873   1.992   2.745   0.155  0.4784 -0.5550  0.3254
    4TAL    C1620874   1.864   2.830   0.126  0.0473 -1.3669  0.2162
    4TAL    C1720875   1.798   2.809  -0.008 -0.8102 -0.0686  0.4666
    4TAL    C1820876   1.736   2.945  -0.056 -0.0596 -0.3818  0.5282
    4TAL    C1920877   1.721   2.964  -0.205  0.3670  1.2975 -0.0200
    4TAL    C2020878   1.723   3.115  -0.223  0.6103 -0.1626 -0.6034
    5HTM    C2120879   2.093   2.457   0.041  0.0672 -0.1232  0.3816
    5HTM    C2220880   2.154   2.335   0.024  0.0528 -0.1125  0.2482
    5HTM    C2320881   2.274   2.341  -0.054  0.0181 -0.0503  0.1988
    5HTM    C2420882   2.306   2.466  -0.098  0.0059 -0.0135  0.2947
    5HTM     S320883   2.185   2.588  -0.043  0.0376 -0.0550  0.4560
    6TAL    C2520884   2.350   2.217  -0.092  0.1419 -0.5819  0.1520
    6TAL    C2620885   2.400   2.103   0.002  0.5116  0.7146  0.1914
    6TAL    C2720886   2.480   2.146   0.116 -0.7233 -0.2698 -0.1746
    6TAL    C2820887   2.486   2.022   0.209 -0.1984  0.8668  0.0988
    6TAL    C2920888   2.598   2.047   0.321  0.3094  0.1639 -0.3820
    6TAL    C3020889   2.696   1.927   0.317 -0.1275  0.2810 -0.2509
    7HTM    C3120890   2.419   2.510  -0.180 -0.5295 -1.0730  0.1156
    7HTM    C3220891   2.482   2.629  -0.164 -0.7418 -1.0830  1.1623
    7HTM    C3320892   2.594   2.648  -0.252 -0.3266 -0.3996  1.8122
    7HTM    C3420893   2.617   2.542  -0.336  0.2025  0.1316  1.2616
    7HTM     S420894   2.497   2.410  -0.309  0.2174 -0.1926 -0.1319
    8TAL    C3520895   2.679   2.777  -0.267 -0.7002 -0.1431  0.5399
    8TAL    C3620896   2.628   2.905  -0.218 -0.4977 -0.5513 -0.8842
    8TAL    C3720897   2.479   2.938  -0.243 -0.2746  0.2560  0.1930
    8TAL    C3820898   2.417   2.978  -0.113  0.0774 -0.0711 -0.0887
    8TAL    C3920899   2.276   3.036  -0.138 -0.0584  0.8795  0.1450
    8TAL    C4020900   2.261   3.144  -0.041  0.4131 -0.3497 -0.1147
    9HTM    C4120901   2.688   2.520  -0.459  0.0718 -0.2885 -0.1358
    9HTM    C4220902   2.643   2.452  -0.568  0.3103 -0.6366 -0.0224
    9HTM    C4320903   2.724   2.472  -0.686  0.2366 -0.5395 -0.0575
    9HTM    C4420904   2.831   2.554  -0.665 -0.0579 -0.1174 -0.1978
    9HTM     S520905   2.837   2.614  -0.495 -0.2669  0.1927 -0.2971
   10TAL    C4520906   2.672   2.406  -0.810 -0.3174  0.6680 -0.8988
   10TAL    C4620907   2.528   2.415  -0.841  0.5033  0.5200  0.8197
   10TAL    C4720908   2.518   2.316  -0.961  0.4662  0.1025 -0.2074
   10TAL    C4820909   2.390   2.325  -1.049 -0.2315  0.7574  0.3822
   10TAL    C4920910   2.346   2.458  -1.120 -0.1187 -0.0212  0.6274
   10TAL    C5020911   2.232   2.452  -1.222 -0.4995 -0.0055 -0.0012
   11HTM    C5120912   2.950   2.587  -0.749 -0.4182  0.3210 -0.0062
   11HTM    C5220913   3.013   2.544  -0.862 -0.9168  0.4328 -0.3314
   11HTM    C5320914   3.121   2.629  -0.905 -0.9005  0.3067 -0.5438
   11HTM    C5420915   3.141   2.737  -0.825 -0.3895  0.0987 -0.3805
   11HTM     S620916   3.024   2.740  -0.687  0.1147  0.0455  0.0574
   12TAL    C5520917   3.201   2.591  -1.022 -1.1764 -0.9064  0.2484
   12TAL    C5620918   3.242   2.444  -1.038 -0.9153 -0.0362  0.1466
   12TAL    C5720919   3.315   2.444  -1.173 -0.6657 -0.3900  0.7415
   12TAL    C5820920   3.314   2.310  -1.249  0.1810 -1.6338 -0.1153
   12TAL    C5920921   3.338   2.179  -1.185  0.4707  0.3641 -0.5034
   12TAL    C6020922   3.448   2.163  -1.088 -1.0519 -0.8711  0.2241
   13HTM    C6120923   3.232   2.850  -0.835 -0.1546  0.1322 -0.0827
   13HTM    C6220924   3.196   2.979  -0.861 -0.2474  0.0796 -0.2151
   13HTM    C6320925   3.308   3.065  -0.891 -0.3029  0.1454 -0.2315
   13HTM    C6420926   3.428   3.002  -0.888 -0.2521  0.2483 -0.1114
   13HTM     S720927   3.411   2.827  -0.846 -0.1296  0.2701  0.0326
   14TAL    C6520928   3.275   3.208  -0.919  0.0746 -0.1849 -0.2579
   14TAL    C6620929   3.202   3.245  -1.047 -0.6179  0.6756  0.9827
   14TAL    C6720930   3.125   3.374  -1.058 -0.7641  0.0658  1.1470
   14TAL    C6820931   3.054   3.379  -1.201 -0.3742 -0.2098 -0.1979
   14TAL    C6920932   3.139   3.350  -1.325  0.4838  0.1525 -0.2742
   14TAL    C7020933   3.251   3.445  -1.354 -0.3101  0.7540 -0.2934
   15HTM    C7120934   3.561   3.049  -0.901 -0.4014  0.6102 -0.0316
   15HTM    C7220935   3.667   3.026  -0.819 -0.5124  0.4733  0.0739
   15HTM    C7320936   3.791   3.078  -0.869 -0.2577 -0.3319 -0.1545
   15HTM    C7420937   3.780   3.140  -0.990  0.0475 -0.8089 -0.4345
   15HTM     S820938   3.611   3.138  -1.050  0.0369 -0.2741 -0.4312
   16TAL    C7520939   3.915   3.083  -0.785  1.4572 -0.1739 -0.1512
   16TAL    C7620940   3.981   2.952  -0.752 -0.5111 -0.0996 -0.6073
   16TAL    C7720941   3.920   2.818  -0.694  0.1862  0.0645  0.7169
   16TAL    C7820942   4.013   2.748  -0.590  0.3935  1.1101  0.1597
   16TAL    C7920943   4.021   2.785  -0.440 -0.0159 -0.0768  0.7714
   16TAL    C8020944   4.168   2.762  -0.395 -0.8889  0.3172  0.4059
   17HTM    C8120945   3.877   3.201  -1.081  0.9003  0.3749  0.6793
   17HTM    C8220946   4.008   3.165  -1.092  1.0105  0.9234  0.1233
   17HTM    C8320947   4.077   3.231  -1.200  0.2303  1.0774 -0.2949
   17HTM    C8420948   3.998   3.317  -1.271 -0.4746  0.6465 -0.0577
   17HTM     S920949   3.830   3.322  -1.206 -0.2060  0.0077  0.7188
   18TAL    C8520950   4.224   3.200  -1.231 -0.4547 -0.6786  0.5906
   18TAL    C8620951   4.292   3.087  -1.167 -0.1814  0.6647 -0.0188
   18TAL    C8720952   4.436   3.085  -1.185 -0.1483 -0.1782 -0.5592
   18TAL    C8820953   4.512   3.071  -1.320  0.4846  0.8159  0.4797
   18TAL    C8920954   4.482   2.928  -1.373 -0.3715  0.0868 -0.0672
   18TAL    C9020955   4.603   2.901  -1.464  1.1737  0.2944 -0.5853
   19HTM    C9120956   4.047   3.399  -1.384  0.8747 -0.0033  0.4717
   19HTM    C9220957   4.058   3.535  -1.373  0.8715  0.0072  0.3517
   19HTM    C9320958   4.137   3.595  -1.476  0.3898 -0.0150 -0.0362
   19HTM    C9420959   4.186   3.506  -1.567  0.0258 -0.0425 -0.2113
   19HTM    S1020960   4.136   3.337  -1.528  0.2651 -0.0423  0.1019
   20TAL    C9520961   4.154   3.744  -1.480 -0.7644  0.2799 -0.5458
   20TAL    C9620962   4.032   3.829  -1.450 -1.0095  1.1179 -0.6162
   20TAL    C9720963   4.083   3.955  -1.397  1.2605 -0.7020  1.2720
   20TAL    C9820964   3.970   4.044  -1.333  0.2378 -0.5944 -0.3189
   20TAL    C9920965   3.972   4.179  -1.402  0.3355  0.2138  0.7846
   20TAL   C10020966   3.847   4.272  -1.374  0.0411  0.5935 -0.5373
   21HTM   C10120967   4.269   3.526  -1.687 -0.1159  0.0988 -0.4176
   21HTM   C10220968   4.266   3.463  -1.808  0.1613 -0.2760 -0.2326
   21HTM   C10320969   4.365   3.511  -1.901  0.2452 -0.4281 -0.2223
   21HTM   C10420970   4.444   3.610  -1.851  0.0321 -0.1694 -0.3997
   21HTM    S1120971   4.398   3.652  -1.682 -0.2936  0.2901 -0.5943
   22TAL   C10520972   4.373   3.450  -2.040  0.5475  0.1592 -0.2065
   22TAL   C10620973   4.250   3.417  -2.115  0.0265 -0.6049 -0.2265
   22TAL   C10720974   4.265   3.339  -2.245 -0.3437  0.2671  0.4008
   22TAL   C10820975   4.166   3.227  -2.256 -0.1455  0.6119  1.7354
   22TAL   C10920976   4.170   3.115  -2.368  0.0481  0.1894  0.3005
   22TAL   C11020977   4.200   3.147  -2.524  0.0954 -0.4056  0.0085
   23HTM   C11120978   4.546   3.689  -1.926 -0.4385 -0.2691  0.0365
   23HTM   C11220979   4.658   3.752  -1.879 -0.6647  0.0214  0.1910
   23HTM   C11320980   4.735   3.816  -1.982 -0.7230  0.2812  0.3066
   23HTM   C11420981   4.683   3.801  -2.107 -0.5412  0.1888  0.2406
   23HTM    S1220982   4.531   3.705  -2.105 -0.2803 -0.2369  0.0252
   24TAL   C11520983   4.876   3.868  -1.948 -0.5523 -0.2006 -0.0476
   24TAL   C11620984   4.917   3.945  -1.826  0.2896 -0.4238  0.0803
   24TAL   C11720985   5.060   3.975  -1.850 -0.5268  0.7375 -0.6876
   24TAL   C11820986   5.144   3.980  -1.715  0.7441  0.4507 -0.3728
   24TAL   C11920987   5.291   3.982  -1.741  1.1340 -0.4075  0.0589
   24TAL   C12020988   5.352   3.858  -1.799  0.2662  0.4716  1.3817
   25HTM   C12120989   4.733   3.855  -2.232  0.2486 -0.6026 -0.2526
   25HTM   C12220990   4.860   3.876  -2.277  0.1513 -0.0613 -0.2939
   25HTM   C12320991   4.867   3.915  -2.415 -0.0933  0.6221 -0.1200
   25HTM   C12420992   4.746   3.924  -2.476 -0.1825  0.6017  0.0534
   25HTM    S1320993   4.611   3.884  -2.362  0.0372 -0.2890  0.0108
   26TAL   C12520994   5.013   3.941  -2.481  1.3033  0.0427 -0.8056
   26TAL   C12620995   5.142   3.866  -2.444  0.1361 -0.2421 -0.5227
   26TAL   C12720996   5.237   3.948  -2.519 -1.2460 -0.4884  1.2932
   26TAL   C12820997   5.377   3.882  -2.493 -0.2783  0.2997  0.0296
   26TAL   C12920998   5.497   3.971  -2.487 -0.2707  0.4581  1.0093
   26TAL   C13020999   5.510   4.082  -2.384 -0.8635  0.1297  0.3044
   27HTM   C13121000   4.711   3.947  -2.614  0.3311  0.0507 -0.3845
   27HTM   C13221001   4.754   4.042  -2.701  0.2630  0.0815 -0.3846
   27HTM   C13321002   4.690   4.037  -2.830  0.1181  0.1653 -0.3170
   27HTM   C13421003   4.598   3.937  -2.841  0.0759  0.1984 -0.2652
   27HTM    S1421004   4.585   3.841  -2.689  0.2165  0.1258 -0.2982
   28TAL   C13521005   4.713   4.140  -2.943  0.9075  0.0207  0.6787
   28TAL   C13621006   4.840   4.217  -2.950 -0.8455 -1.1551 -0.8211
   28TAL   C13721007   4.976   4.124  -2.978  1.0881 -1.0130 -0.1147
   28TAL   C13821008   5.022   4.131  -3.119 -0.7939  0.0475  0.3068
   28TAL   C13921009   5.034   4.259  -3.184 -0.2814  0.2188  0.1604
   28TAL   C14021010   5.102   4.233  -3.322  0.2660  0.3036  0.1348
   29HTM   C14121011   4.507   3.907  -2.942  0.2129 -0.3250  0.5208
   29HTM   C14221012   4.384   3.964  -2.954  0.0865 -0.5883  0.5423
   29HTM   C14321013   4.313   3.924  -3.073  0.2196 -0.6129  0.4706
   29HTM   C14421014   4.382   3.837  -3.152  0.4475 -0.3682  0.3948
   29HTM    S1521015   4.543   3.797  -3.081  0.5123 -0.0857  0.4076
   30TAL   C14521016   4.171   3.982  -3.095  0.4106  0.2471  0.2462
   30TAL   C14621017   4.043   3.909  -3.037 -0.0542  1.6727  0.2708
   30TAL   C14721018   4.015   3.764  -3.047 -0.1056 -0.4594  0.3983
   30TAL   C14821019   3.880   3.708  -2.986  0.2087  0.2407  0.4991
   30TAL   C14921020   3.758   3.749  -3.071 -0.6832 -0.0771 -1.2734
   30TAL   C15021021   3.643   3.650  -3.069 -0.2520 -0.4425 -0.4038
   31HTM   C15121022   4.346   3.770  -3.275  0.0567 -0.7683  0.2829
   31HTM   C15221023   4.226   3.762  -3.341 -0.0460 -0.5400  0.4424
   31HTM   C15321024   4.235   3.703  -3.472 -0.2010  0.1790  0.0960
   31HTM   C15421025   4.362   3.665  -3.506 -0.2165  0.4989 -0.3275
   31HTM    S1621026   4.480   3.702  -3.375 -0.0352 -0.0876 -0.3218
   32TAL   C15521027   4.112   3.714  -3.574  0.2279  1.3147 -0.0113
   32TAL   C15621028   4.035   3.584  -3.604 -0.6084  0.1860  0.7110
   32TAL   C15721029   3.979   3.513  -3.481 -0.8696  0.0850 -0.0184
   32TAL   C15821030   3.904   3.382  -3.534 -0.8452 -0.9837 -0.2604
   32TAL   C15921031   3.878   3.283  -3.422 -0.2210 -0.3396  0.1717
   32TAL   C16021032   3.837   3.303  -3.278  0.7082  0.0308  0.4526
   33HTM   C16121033   4.411   3.588  -3.616 -0.1759 -0.4259 -0.2102
   33HTM   C16221034   4.492   3.478  -3.611 -0.0448 -0.3332 -0.3130
   33HTM   C16321035   4.539   3.436  -3.741 -0.0156 -0.1721 -0.3557
   33HTM   C16421036   4.493   3.513  -3.844 -0.1245 -0.1418 -0.2853
   33HTM    S1721037   4.387   3.646  -3.785 -0.2736 -0.3160 -0.1589
   34TAL   C16521038   4.614   3.305  -3.741  1.2427  0.5579 -0.5302
   34TAL   C16621039   4.756   3.321  -3.692  0.7143 -0.6540 -0.8576
   34TAL   C16721040   4.839   3.186  -3.684  0.8766 -0.5861 -0.7471
   34TAL   C16821041   4.878   3.126  -3.813 -0.7526  0.0523 -0.0702
   34TAL   C16921042   4.776   3.031  -3.871  0.2027  0.5680  0.5163
   34TAL   C17021043   4.825   2.951  -3.994  0.8264 -0.4040  0.1286
   35HTM   C17121044   4.530   3.503  -3.987 -0.0517  0.1054  0.2063
   35HTM   C17221045   4.586   3.583  -4.082  0.3241 -0.1993  0.1634
   35HTM   C17321046   4.590   3.525  -4.213  0.5177 -0.4842  0.2960
   35HTM   C17421047   4.538   3.399  -4.219  0.2894 -0.3969  0.4402
   35HTM    S1821048   4.478   3.345  -4.058 -0.1915  0.0556  0.4195
   36TAL   C17521049   4.623   3.619  -4.330  0.4004 -0.2025 -0.4986
   36TAL   C17621050   4.766   3.613  -4.392  0.6290  0.1807  0.5850
   36TAL   C17721051   4.879   3.656  -4.291  0.4427 -0.3965  0.8681
   36TAL   C17821052   4.893   3.790  -4.209  0.2418  0.9204 -0.0352
   36TAL   C17921053   4.855   3.906  -4.306  0.2338  0.2649  0.0208
   36TAL   C18021054   4.711   3.966  -4.284  0.6421  0.3252 -0.7446
   37HTM   C18121055   4.538   3.308  -4.338 -0.5847 -0.2270 -0.4634
   37HTM   C18221056   4.451   3.311  -4.443 -0.5951 -0.5352 -0.4661
   37HTM   C18321057   4.452   3.191  -4.522 -0.3855 -0.6524 -0.2900
   37HTM   C18421058   4.539   3.096  -4.478 -0.2152 -0.4335 -0.1530
   37HTM    S1921059   4.628   3.152  -4.331 -0.3072 -0.0595 -0.2364
   38TAL   C18521060   4.360   3.157  -4.635  0.4707  0.1896 -0.0461
   38TAL   C18621061   4.217   3.212  -4.635  0.1132  0.1435 -0.3615
   38TAL   C18721062   4.125   3.154  -4.746  0.5148  0.2087 -0.1294
   38TAL   C18821063   4.113   3.007  -4.710 -0.0054  1.0193 -0.1146
   38TAL   C18921064   4.030   2.919  -4.804  0.4816  0.1420 -0.1177
   38TAL   C19021065   4.044   2.769  -4.776 -0.2738 -0.7322  0.6381
   39HTM   C19121066   4.580   2.966  -4.526  0.2554  0.7884  0.0169
   39HTM   C19221067   4.512   2.851  -4.495  0.1475  0.8261 -0.0813
   39HTM   C19321068   4.552   2.737  -4.573  0.0614  0.8479 -0.1576
   39HTM   C19421069   4.651   2.764  -4.663  0.1037  0.8269 -0.1176
   39HTM    S2021070   4.701   2.937  -4.656  0.2567  0.7774  0.0205
   40TAL   C19521071   4.474   2.596  -4.563 -0.6956 -0.0035  1.0044
   40TAL   C19621072   4.405   2.559  -4.438  1.2067 -0.3063 -0.7642
   40TAL   C19721073   4.477   2.556  -4.302  0.9536  0.4625 -0.2377
   40TAL   C19821074   4.622   2.499  -4.294 -0.0813 -0.0431  0.0883
   40TAL   C19921075   4.639   2.458  -4.150 -0.2815 -0.2371 -0.4218
   40TAL   C20021076   4.771   2.508  -4.113 -0.5350  0.3813 -0.5081
   41HTM   C20121077   4.730   2.664  -4.726  0.0986 -0.2572 -0.3505
   41HTM   C20221078   4.703   2.609  -4.848 -0.2326 -0.6905 -0.0888
   41HTM   C20321079   4.797   2.508  -4.888 -0.2875 -0.7669 -0.0241
   41HTM   C20421080   4.895   2.485  -4.796  0.0018 -0.3919 -0.2366
   41HTM    S2121081   4.877   2.591  -4.651  0.3690  0.0905 -0.5371
   42TAL   C20521082   4.757   2.416  -5.005  0.4601 -0.6358 -0.5175
   42TAL   C20621083   4.616   2.357  -5.013 -0.6972 -1.2309  0.2997
   42TAL   C20721084   4.573   2.291  -4.890 -0.0080  0.2416 -0.2667
   42TAL   C20821085   4.439   2.233  -4.939 -0.4167  0.0723 -0.3328
   42TAL   C20921086   4.406   2.100  -4.890 -0.0408 -0.4369 -0.4333
   42TAL   C21021087   4.263   2.082  -4.922 -0.0364 -0.6094  0.7565
   43HTM   C21121088   5.019   2.416  -4.829  0.2652  0.1958 -0.5768
   43HTM   C21221089   5.092   2.354  -4.732 -0.0538  0.1922 -0.3384
   43HTM   C21321090   5.205   2.281  -4.781 -0.0204  0.0030  0.0101
   43HTM   C21421091   5.219   2.287  -4.917  0.3241 -0.1378  0.0371
   43HTM    S2221092   5.089   2.386  -4.993  0.6353 -0.0414 -0.3784
   44TAL   C21521093   5.287   2.219  -4.675 -0.0571 -0.6764  0.8273
   44TAL   C21621094   5.414   2.292  -4.660 -0.4097 -0.2029 -0.0745
   44TAL   C21721095   5.463   2.234  -4.529  0.3080 -0.7426  0.2378
   44TAL   C21821096   5.584   2.299  -4.504 -0.2458 -0.0862  0.2929
   44TAL   C21921097   5.656   2.236  -4.380 -0.1651  0.8667  0.1304
   44TAL   C22021098   5.712   2.318  -4.271  0.4230  0.1075  0.9296
   45HTM   C22121099   5.311   2.226  -5.008  0.0478  0.5433 -0.4589
   45HTM   C22221100   5.429   2.268  -5.059 -0.1544  0.4370 -1.0310
   45HTM   C22321101   5.496   2.170  -5.140 -0.2282  0.0638 -0.6487
   45HTM   C22421102   5.428   2.052  -5.151 -0.0821 -0.1145  0.2147
   45HTM    S2321103   5.273   2.057  -5.059  0.1619  0.1775  0.6153
   46TAL   C22521104   5.642   2.212  -5.193 -0.5604 -0.2818  0.4987
   46TAL   C22621105   5.645   2.251  -5.343  0.8008  0.6056 -0.5355
   46TAL   C22721106   5.770   2.332  -5.375  0.3105  0.0143 -0.1613
   46TAL   C22821107   5.734   2.455  -5.446 -0.0666 -0.9217  1.2004
   46TAL   C22921108   5.874   2.515  -5.502 -0.7703 -1.1217  0.6167
   46TAL   C23021109   5.864   2.653  -5.578  0.5538  0.8061 -0.0735
   47HTM   C23121110   5.460   1.947  -5.245  0.0242 -0.0596  0.0663
   47HTM   C23221111   5.582   1.908  -5.292 -0.0031 -0.2659  0.1653
   47HTM   C23321112   5.576   1.795  -5.381 -0.1177 -0.2735  0.1818
   47HTM   C23421113   5.450   1.748  -5.403 -0.1777 -0.0731  0.0953
   47HTM    S2421114   5.327   1.844  -5.311 -0.0935  0.1425 -0.0145
   48TAL   C23521115   5.704   1.751  -5.450  1.2513  0.4911 -0.5561
   48TAL   C23621116   5.702   1.591  -5.488 -0.2259 -0.7499  0.5084
   48TAL   C23721117   5.750   1.501  -5.375  0.4564  0.1817 -0.2194
   48TAL   C23821118   5.887   1.505  -5.314 -1.2449 -0.3353 -0.5407
   48TAL   C23921119   5.903   1.469  -5.178  0.3901  0.2643 -0.9640
   48TAL   C24021120   5.863   1.583  -5.073 -0.3486 -0.3555 -0.3819
    1HTM     C121121   1.731   7.223   3.971 -0.6659 -0.3685 -0.4827
    1HTM     C221122   1.663   7.320   4.039 -0.9418 -0.2406 -0.9301
    1HTM     C321123   1.588   7.271   4.151 -0.8880  0.0453 -0.7653
    1HTM     C421124   1.597   7.136   4.168 -0.5710  0.1355 -0.1925
    1HTM     S121125   1.703   7.060   4.043 -0.3139 -0.1357  0.1866
    2TAL     C521126   1.516   7.356   4.242 -1.0598  0.1817 -1.0747
    2TAL     C621127   1.572   7.366   4.386 -0.8554  0.4291 -0.2359
    2TAL     C721128   1.489   7.480   4.447  0.3454  0.4088 -0.2990
    2TAL     C821129   1.543   7.533   4.579  0.3798  0.5186 -0.7938
    2TAL     C921130   1.466   7.658   4.621  0.2846  0.6465 -0.5091
    2TAL    C1021131   1.470   7.705   4.766 -0.5579  0.4554  0.8271
    3HTM    C1121132   1.536   7.038   4.264 -0.1916 -0.6081  0.4294
    3HTM    C1221133   1.409   6.991   4.282 -0.0570 -1.0132  0.3535
    3HTM    C1321134   1.397   6.895   4.387  0.2367 -1.2662  0.1601
    3HTM    C1421135   1.514   6.867   4.451  0.3261 -1.0540  0.0883
    3HTM     S221136   1.651   6.962   4.381  0.0440 -0.5141  0.2609
    4TAL    C1521137   1.265   6.820   4.408  0.5032 -0.0149  0.6630
    4TAL    C1621138   1.147   6.856   4.326  0.0114  0.5395 -0.1427
    4TAL    C1721139   1.092   6.747   4.230  0.1109  0.2978 -0.6327
    4TAL    C1821140   0.989   6.814   4.141 -0.9294  0.4984  0.5002
    4TAL    C1921141   0.905   6.719   4.055  0.7410  0.7112 -0.1393
    4TAL    C2021142   0.823   6.805   3.950 -0.3809  0.6514  0.3131
    5HTM    C2121143   1.548   6.782   4.557 -0.5168  0.0780 -0.2255
    5HTM    C2221144   1.548   6.816   4.689 -1.0527 -0.0336 -0.1888
    5HTM    C2321145   1.589   6.709   4.776 -0.9735  0.0223 -0.1563
    5HTM    C2421146   1.619   6.593   4.711 -0.3772  0.1766 -0.1679
    5HTM     S321147   1.598   6.611   4.532  0.1345  0.2639 -0.2217
    6TAL    C2521148   1.610   6.749   4.922 -1.0404  0.4481 -0.3280
    6TAL    C2621149   1.511   6.673   5.011  0.1855 -0.0243  1.6826
    6TAL    C2721150   1.361   6.675   4.970  0.2660  0.3549  0.5079
    6TAL    C2821151   1.293   6.536   4.973 -0.1766 -0.8331 -0.1226
    6TAL    C2921152   1.165   6.537   4.878 -0.4550  0.9405 -0.7140
    6TAL    C3021153   1.118   6.391   4.868  0.0188  0.0712 -0.3154
    7HTM    C3121154   1.678   6.462   4.752  0.2227  0.2123 -0.8737
    7HTM    C3221155   1.781   6.440   4.839  0.3999  0.4574 -1.0179
    7HTM    C3321156   1.815   6.301   4.854  0.2293  0.4681 -0.4750
    7HTM    C3421157   1.739   6.217   4.778 -0.0780  0.2312  0.0833
    7HTM     S421158   1.617   6.307   4.681 -0.1766 -0.0258 -0.0343
    8TAL    C3521159   1.916   6.242   4.947 -0.0031  0.5103  0.3724
    8TAL    C3621160   2.017   6.320   5.033  0.0401  0.1178 -0.3934
    8TAL    C3721161   1.974   6.300   5.173 -0.5881 -0.7366  0.4494
    8TAL    C3821162   2.085   6.285   5.267  0.2677  0.1101  0.4221
    8TAL    C3921163   2.003   6.261   5.399 -0.0248 -0.5464  0.5432
    8TAL    C4021164   2.077   6.214   5.517  0.0306 -0.5590 -0.0476
    9HTM    C4121165   1.736   6.066   4.765  0.1193  0.1336  0.1102
    9HTM    C4221166   1.631   5.981   4.751  0.0769  0.0917  0.6366
    9HTM    C4321167   1.668   5.842   4.753  0.1404  0.1060  0.4821
    9HTM    C4421168   1.802   5.821   4.769  0.2313  0.1590 -0.1618
    9HTM     S521169   1.892   5.977   4.782  0.2438  0.1952 -0.6266
   10TAL    C4521170   1.554   5.740   4.735 -0.0127  0.1454  0.5725
   10TAL    C4621171   1.498   5.676   4.866 -0.8451 -0.2965  0.5184
   10TAL    C4721172   1.373   5.593   4.836  0.4597 -0.6433 -0.4814
   10TAL    C4821173   1.284   5.571   4.959  0.1541 -0.0919 -0.0335
   10TAL    C4921174   1.150   5.493   4.951 -0.8810  0.7041 -0.0590
   10TAL    C5021175   1.181   5.347   4.902  0.1141 -0.9967  0.1838
   11HTM    C5121176   1.873   5.712   4.734  0.0829 -0.0546  0.3629
   11HTM    C5221177   1.927   5.613   4.811 -0.0831 -0.4781 -0.0553
   11HTM    C5321178   1.990   5.508   4.735 -0.1475 -0.1985 -0.5007
   11HTM    C5421179   1.984   5.527   4.600 -0.0305  0.4382 -0.4222
   11HTM     S621180   1.898   5.680   4.558  0.1716  0.7362  0.2256
   12TAL    C5521181   2.076   5.414   4.810 -1.2423  0.8612 -0.9139
   12TAL    C5621182   2.027   5.337   4.937 -0.5580 -0.4643 -0.0447
   12TAL    C5721183   2.117   5.237   4.998  0.1645  0.9804 -0.9367
   12TAL    C5821184   2.048   5.141   5.090 -0.1358  0.3907 -0.1631
   12TAL    C5921185   2.149   5.042   5.142  0.3109 -0.0585 -0.3230
   12TAL    C6021186   2.090   4.958   5.259 -0.8159 -0.4271  0.2426
   13HTM    C6121187   2.034   5.439   4.491 -0.4486 -0.4129  0.4005
   13HTM    C6221188   2.033   5.303   4.499  0.0426 -0.4350  0.1315
   13HTM    C6321189   2.062   5.237   4.374  0.1858 -0.0859 -0.0204
   13HTM    C6421190   2.085   5.324   4.271 -0.1962  0.2023  0.1326
   13HTM     S721191   2.071   5.496   4.324 -0.7708  0.0542  0.4831
   14TAL    C6521192   2.040   5.090   4.366 -0.6278 -0.0885 -0.0172
   14TAL    C6621193   1.902   5.044   4.330 -0.9698  0.7201 -0.2387
   14TAL    C6721194   1.909   4.923   4.228  0.0268 -0.7754 -0.0415
   14TAL    C6821195   1.783   4.848   4.190  0.4614  0.8384  0.5167
   14TAL    C6921196   1.683   4.804   4.293 -0.1594  0.6853 -0.5785
   14TAL    C7021197   1.557   4.738   4.229 -0.3198 -0.0229  0.4886
   15HTM    C7121198   2.095   5.291   4.127 -0.1703 -0.2100 -0.1012
   15HTM    C7221199   2.055   5.374   4.026  0.0924 -0.0148 -0.0476
   15HTM    C7321200   2.108   5.338   3.897  0.5007  0.2879  0.0318
   15HTM    C7421201   2.189   5.228   3.899  0.5493  0.3234  0.0390
   15HTM     S821202   2.204   5.161   4.066  0.0795 -0.0254 -0.0550
   16TAL    C7521203   2.066   5.424   3.776 -0.4526 -0.4958 -0.0553
   16TAL    C7621204   1.920   5.414   3.736  0.3129 -0.3866  1.1007
   16TAL    C7721205   1.910   5.510   3.612  1.1957  0.2924  0.9349
   16TAL    C7821206   1.765   5.524   3.566  1.7788  0.0777 -0.8696
   16TAL    C7921207   1.714   5.615   3.453 -0.3429  0.0078  0.1946
   16TAL    C8021208   1.798   5.749   3.425  1.1404 -0.6769  0.4200
   17HTM    C8121209   2.258   5.167   3.782  0.4974  0.1275 -0.0310
   17HTM    C8221210   2.211   5.099   3.673  0.6766  0.4405 -0.3088
   17HTM    C8321211   2.306   5.088   3.566  0.8072  0.8767 -0.2439
   17HTM    C8421212   2.426   5.147   3.592  0.7276  0.8963  0.0836
   17HTM     S921213   2.428   5.222   3.756  0.4796  0.3611  0.3372
   18TAL    C8521214   2.254   5.034   3.429 -0.1439 -1.2354 -1.0405
   18TAL    C8621215   2.118   5.119   3.393  0.3241  0.8812 -0.4649
   18TAL    C8721216   2.139   5.251   3.322 -0.3059 -0.2595 -0.4822
   18TAL    C8821217   1.986   5.272   3.291 -0.9530  0.8753  0.1642
   18TAL    C8921218   1.939   5.398   3.217  0.4348 -0.0993 -0.9390
   18TAL    C9021219   1.820   5.380   3.122  0.5885 -0.0615 -0.0969
   19HTM    C9121220   2.541   5.184   3.516 -0.2601  0.3461 -0.2514
   19HTM    C9221221   2.587   5.311   3.525 -0.2454  0.3675 -0.6008
   19HTM    C9321222   2.693   5.341   3.432 -0.2454  0.1032 -0.6877
   19HTM    C9421223   2.727   5.236   3.352 -0.2601 -0.1198 -0.4046
   19HTM    S1021224   2.628   5.090   3.388 -0.2753 -0.0125 -0.0032
   20TAL    C9521225   2.753   5.483   3.403  0.0063  0.1970  0.1210
   20TAL    C9621226   2.650   5.600   3.391 -0.2925 -0.2380 -0.4216
   20TAL    C9721227   2.568   5.558   3.273  1.1890 -0.2191  0.5354
   20TAL    C9821228   2.435   5.637   3.275 -0.7083  0.4335  0.2010
   20TAL    C9921229   2.334   5.600   3.387 -1.3929  0.0635 -0.3651
   20TAL   C10021230   2.200   5.630   3.322 -0.6466  0.3116 -0.6490
   21HTM   C10121231   2.823   5.210   3.250 -0.3299 -0.8158 -0.2287
   21HTM   C10221232   2.958   5.212   3.268 -0.3747 -1.6356  0.2855
   21HTM   C10321233   3.033   5.185   3.148 -0.0795 -1.5030  0.4382
   21HTM   C10421234   2.955   5.163   3.039  0.1905 -0.5821  0.0404
   21HTM    S1121235   2.779   5.174   3.079  0.0919  0.1951 -0.5625
   22TAL   C10521236   3.182   5.192   3.158  0.6636  0.6154 -0.5531
   22TAL   C10621237   3.253   5.058   3.204  0.3797  0.2701  0.8500
   22TAL   C10721238   3.407   5.039   3.186  0.4812  0.3496  0.4666
   22TAL   C10821239   3.483   5.113   3.283  0.1185 -0.3506 -0.1007
   22TAL   C10921240   3.625   5.075   3.313 -0.0010  0.7540 -0.9849
   22TAL   C11021241   3.691   5.194   3.369 -0.0312 -1.0578  0.1878
   23HTM   C11121242   2.985   5.133   2.899 -0.4313 -0.0901 -0.4259
   23HTM   C11221243   2.912   5.164   2.788 -0.2962 -0.5414 -0.6458
   23HTM   C11321244   2.983   5.143   2.664 -0.0946 -0.9116 -0.4699
   23HTM   C11421245   3.110   5.096   2.681 -0.0759 -0.7426 -0.1162
   23HTM    S1221246   3.150   5.074   2.856 -0.3134 -0.0976  0.0236
   24TAL   C11521247   2.906   5.169   2.539  0.0693 -0.3104  0.3626
   24TAL   C11621248   2.851   5.034   2.492  0.6205 -0.0778  0.4162
   24TAL   C11721249   2.741   5.045   2.386 -0.1486  0.7254  0.4055
   24TAL   C11821250   2.609   5.069   2.458 -1.4477  0.3989  0.7593
   24TAL   C11921251   2.499   5.126   2.374  0.4192  0.0905  0.3711
   24TAL   C12021252   2.483   5.282   2.354 -0.0577 -0.7323 -0.1554
   25HTM   C12121253   3.212   5.064   2.578 -0.1475 -0.0012  0.0507
   25HTM   C12221254   3.339   5.112   2.580 -0.0448 -0.2906  0.4627
   25HTM   C12321255   3.410   5.096   2.456  0.3164 -0.4250  0.6793
   25HTM   C12421256   3.335   5.037   2.358  0.4893 -0.2380  0.4323
   25HTM    S1321257   3.169   4.996   2.416  0.2070  0.1251 -0.0971
   26TAL   C12521258   3.554   5.156   2.450  0.3200  0.5390 -0.0185
   26TAL   C12621259   3.547   5.299   2.399 -0.3948 -0.6694  0.7027
   26TAL   C12721260   3.690   5.346   2.368 -0.1583  1.1957 -0.7636
   26TAL   C12821261   3.700   5.495   2.329 -0.0617 -0.3150 -0.0335
   26TAL   C12921262   3.663   5.525   2.187 -0.3635 -0.2068 -0.6131
   26TAL   C13021263   3.670   5.671   2.167 -0.7452 -0.2962 -0.8239
   27HTM   C13121264   3.397   4.977   2.238  0.4207 -0.0422 -0.1768
   27HTM   C13221265   3.508   5.015   2.170  0.1392 -0.0247 -0.6320
   27HTM   C13321266   3.539   4.930   2.058 -0.1745 -0.1518 -0.6240
   27HTM   C13421267   3.452   4.827   2.041 -0.1321 -0.2663 -0.1627
   27HTM    S1421268   3.322   4.830   2.167  0.3107 -0.2221  0.3012
   28TAL   C13521269   3.679   4.934   1.982  0.0529  0.6683 -0.0952
   28TAL   C13621270   3.702   4.986   1.842  0.3589 -1.2640  0.4868
   28TAL   C13721271   3.740   5.135   1.855  0.7236 -0.4954  1.2151
   28TAL   C13821272   3.813   5.190   1.737  0.4694 -0.0365  0.5691
   28TAL   C13921273   3.910   5.312   1.766  0.5007  0.0511  0.2201
   28TAL   C14021274   3.962   5.329   1.908 -0.3094  0.3986  0.8200
   29HTM   C14121275   3.441   4.735   1.934 -0.0245  0.2721  0.1412
   29HTM   C14221276   3.432   4.762   1.801  0.1519  0.0416  0.0818
   29HTM   C14321277   3.405   4.645   1.720  0.3438 -0.1115  0.2379
   29HTM   C14421278   3.394   4.530   1.792  0.3137  0.0024  0.4163
   29HTM    S1521279   3.417   4.560   1.969  0.0384  0.3140  0.4010
   30TAL   C14521280   3.352   4.667   1.580 -1.4266  1.0838  0.1030
   30TAL   C14621281   3.419   4.775   1.492  0.6906  0.1271  0.5583
   30TAL   C14721282   3.572   4.765   1.470 -0.1359 -0.6435  0.2153
   30TAL   C14821283   3.622   4.888   1.390 -0.6217 -1.0264  1.3458
   30TAL   C14921284   3.563   4.915   1.252  0.2104 -0.0074  0.5688
   30TAL   C15021285   3.529   4.796   1.159 -0.6956  0.6552  0.4658
   31HTM   C15121286   3.345   4.398   1.755 -0.2225 -0.1642 -0.6733
   31HTM   C15221287   3.375   4.317   1.650 -1.4227  0.0407 -1.2014
   31HTM   C15321288   3.311   4.188   1.656 -1.8537  0.2546 -1.0669
   31HTM   C15421289   3.233   4.170   1.766 -0.9820  0.2129 -0.4363
   31HTM    S1621290   3.234   4.316   1.872  0.4619 -0.1024  0.0402
   32TAL   C15521291   3.333   4.086   1.545  0.5334 -0.0875  0.9305
   32TAL   C15621292   3.235   4.090   1.430  1.2191 -0.0513  1.1352
   32TAL   C15721293   3.194   4.215   1.362  0.0291 -0.0418  0.7430
   32TAL   C15821294   3.085   4.165   1.259 -0.5752 -0.3865  0.2893
   32TAL   C15921295   3.118   4.222   1.122  0.1479 -0.4500  0.0595
   32TAL   C16021296   3.113   4.109   1.023  0.2319 -0.7764  0.1079
   33HTM   C16121297   3.175   4.046   1.817 -0.2133 -0.0698 -0.0005
   33HTM   C16221298   3.241   3.971   1.910 -0.2412  0.0874  0.1482
   33HTM   C16321299   3.194   3.835   1.919 -0.0045  0.0017  0.1106
   33HTM   C16421300   3.092   3.807   1.833  0.2039 -0.2208 -0.0669
   33HTM    S1721301   3.047   3.950   1.734  0.1167 -0.3403 -0.2012
   34TAL   C16521302   3.265   3.736   2.009  0.1937  0.7385 -1.1285
   34TAL   C16621303   3.261   3.759   2.167  0.8323  0.6696 -0.2666
   34TAL   C16721304   3.337   3.875   2.232  0.4686 -0.4729  0.3181
   34TAL   C16821305   3.489   3.871   2.193  0.7381 -1.0492  0.5761
   34TAL   C16921306   3.561   3.997   2.224 -0.3249 -0.8985 -0.7442
   34TAL   C17021307   3.685   4.036   2.137  0.8168 -0.0151  0.4103
   35HTM   C17121308   3.001   3.694   1.822  0.0131 -0.3476 -0.6408
   35HTM   C17221309   3.052   3.568   1.806 -0.3157 -0.5319 -0.2815
   35HTM   C17321310   2.951   3.465   1.798 -0.5772 -0.3313  0.3111
   35HTM   C17421311   2.824   3.512   1.808 -0.4478  0.0059  0.4036
   35HTM    S1821312   2.820   3.692   1.828  0.0180  0.0970 -0.2556
   36TAL   C17521313   2.999   3.322   1.806  1.1974  0.7302  0.4039
   36TAL   C17621314   3.069   3.274   1.683  0.6304 -0.5037 -0.9077
   36TAL   C17721315   3.160   3.164   1.734  0.3118 -0.6685 -0.0639
   36TAL   C17821316   3.268   3.120   1.642  0.2568  1.3888  0.3928
   36TAL   C17921317   3.338   2.986   1.691 -1.2574 -0.5580 -0.5701
   36TAL   C18021318   3.446   2.946   1.590 -0.1863 -0.8500  0.1579
   37HTM   C18121319   2.697   3.436   1.813 -0.6290  0.4929  0.2610
   37HTM   C18221320   2.611   3.442   1.919 -0.7763  0.3374  0.1498
   37HTM   C18321321   2.508   3.341   1.915 -0.6319  0.1954 -0.0202
   37HTM   C18421322   2.516   3.258   1.807 -0.3743  0.2428 -0.0386
   37HTM    S1921323   2.655   3.302   1.700 -0.2937  0.4720  0.1589
   38TAL   C18521324   2.440   3.304   2.037  0.1631 -0.0362 -0.6863
   38TAL   C18621325   2.523   3.273   2.166 -0.2255 -0.1534  0.3631
   38TAL   C18721326   2.457   3.236   2.295 -0.3952 -0.8629  0.1550
   38TAL   C18821327   2.380   3.346   2.374 -1.0835 -0.6705 -0.7335
   38TAL   C18921328   2.228   3.337   2.379  0.2718 -0.2098  0.3089
   38TAL   C19021329   2.150   3.461   2.415 -0.1967 -0.1238  0.1725
   39HTM   C19121330   2.433   3.144   1.758  0.0467 -0.2473  0.4858
   39HTM   C19221331   2.477   3.025   1.707  0.0229 -0.4262  0.8698
   39HTM   C19321332   2.371   2.930   1.683 -0.0517 -0.3188  0.7683
   39HTM   C19421333   2.247   2.976   1.717 -0.0847 -0.0579  0.3070
   39HTM    S2021334   2.254   3.145   1.781 -0.0238  0.0733 -0.0377
   40TAL   C19521335   2.396   2.787   1.630  0.1778 -0.1544  0.0190
   40TAL   C19621336   2.528   2.733   1.580  0.9869  0.0683  0.3477
   40TAL   C19721337   2.506   2.601   1.498  1.1694 -0.2018  0.8862
   40TAL   C19821338   2.615   2.569   1.406 -0.6177 -0.3824 -0.6299
   40TAL   C19921339   2.597   2.452   1.306 -1.2648  0.6920  0.1554
   40TAL   C20021340   2.558   2.315   1.342  0.4916 -0.3499  0.2112
   41HTM   C20121341   2.116   2.914   1.730  0.0415 -0.2654  0.4594
   41HTM   C20221342   2.072   2.867   1.850  0.2307 -0.8359  0.3127
   41HTM   C20321343   1.949   2.792   1.841  0.2837 -0.9028  0.1333
   41HTM   C20421344   1.900   2.782   1.714  0.1350 -0.3831  0.1433
   41HTM    S2121345   2.005   2.867   1.595 -0.0853  0.2357  0.3818
   42TAL   C20521346   1.892   2.744   1.981 -0.0996  0.3831 -0.4531
   42TAL   C20621347   1.837   2.831   2.087 -0.1321  0.1588 -0.3958
   42TAL   C20721348   1.704   2.895   2.067  0.4757  0.7201  0.4980
   42TAL   C20821349   1.577   2.825   2.119  0.3143 -0.6069  0.5329
   42TAL   C20921350   1.561   2.879   2.264 -0.1505 -0.4153  0.2277
   42TAL   C21021351   1.431   2.842   2.325  0.3452  0.8562  0.3104
   43HTM   C21121352   1.782   2.711   1.669 -0.2727 -0.2742  0.0688
   43HTM   C21221353   1.736   2.690   1.542 -0.1251 -0.0147 -0.0317
   43HTM   C21321354   1.601   2.639   1.538 -0.0856 -0.1001 -0.2904
   43HTM   C21421355   1.545   2.622   1.661 -0.2031 -0.4246 -0.3872
   43HTM    S2221356   1.658   2.669   1.793 -0.3740 -0.6494 -0.1573
   44TAL   C21521357   1.561   2.603   1.391  0.1444  0.8863 -1.6319
   44TAL   C21621358   1.594   2.466   1.321  0.3882  0.2014 -0.9750
   44TAL   C21721359   1.731   2.452   1.271 -0.1237  0.6852 -0.1792
   44TAL   C21821360   1.749   2.425   1.123  0.2846 -0.4250  0.3569
   44TAL   C21921361   1.895   2.430   1.068  0.2898  0.5529 -0.4013
   44TAL   C22021362   1.918   2.441   0.915  0.7496  0.4748  0.1196
   45HTM   C22121363   1.417   2.554   1.708 -0.0661  0.6074  0.1298
   45HTM   C22221364   1.368   2.436   1.662  0.0068  0.6382 -0.0293
   45HTM   C22321365   1.270   2.377   1.749  0.2088  0.3474  0.0028
   45HTM   C22421366   1.245   2.449   1.861  0.2900  0.0950  0.1864
   45HTM    S2321367   1.344   2.600   1.866  0.1162  0.2057  0.3341
   46TAL   C22521368   1.194   2.248   1.698 -1.1747  0.0034 -0.2171
   46TAL   C22621369   1.124   2.263   1.571  0.4544 -0.2896  1.2841
   46TAL   C22721370   0.969   2.270   1.571 -0.4947 -0.5113 -1.2230
   46TAL   C22821371   0.936   2.316   1.429  0.2569  0.0308  0.7295
   46TAL   C22921372   0.790   2.351   1.420 -1.2399  0.7541  0.2346
   46TAL   C23021373   0.737   2.363   1.273 -0.1057 -0.2444 -0.5008
   47HTM   C23121374   1.166   2.416   1.977 -0.3954  0.3456 -0.2997
   47HTM   C23221375   1.164   2.490   2.091 -0.4567  0.6231 -0.4798
   47HTM   C23321376   1.057   2.456   2.181 -0.2058  0.4950 -0.2277
   47HTM   C23421377   0.977   2.355   2.136  0.0467  0.1198  0.1446
   47HTM    S2421378   1.031   2.295   1.975 -0.0132 -0.1026  0.2063
   48TAL   C23521379   1.017   2.526   2.315 -0.2563  0.0920  0.7633
   48TAL   C23621380   1.009   2.672   2.324  1.0641 -0.2245 -0.4158
   48TAL   C23721381   0.964   2.743   2.456  0.3607 -0.2010  0.3812
   48TAL   C23821382   0.950   2.895   2.420  0.4708 -0.5018  0.3270
   48TAL   C23921383   1.076   2.969   2.398  0.0464 -0.7137 -0.1413
   48TAL   C24021384   1.039   3.110   2.374 -0.8135 -0.2025  0.6279
    1HTM     C121385   1.580   7.575   7.843 -0.6400 -0.1645 -0.2711
    1HTM     C221386   1.582   7.695   7.780 -1.0954 -0.1512 -0.2643
    1HTM     C321387   1.626   7.804   7.863 -0.9214 -0.0921 -0.4330
    1HTM     C421388   1.659   7.766   7.990 -0.3332 -0.0609 -0.5687
    1HTM     S121389   1.635   7.589   8.014  0.0494 -0.1035 -0.4929
    2TAL     C521390   1.616   7.956   7.819  0.0282  0.0386  0.0466
    2TAL     C621391   1.503   7.979   7.706 -0.0254 -0.4118  0.7225
    2TAL     C721392   1.365   7.946   7.757 -0.2080 -0.0540  0.3285
    2TAL     C821393   1.250   7.921   7.660  0.6582 -0.4809  0.2908
    2TAL     C921394   1.235   8.023   7.553 -0.4423  0.2911  0.6619
    2TAL    C1021395   1.281   7.971   7.420 -0.7930  0.6638 -0.5643
    3HTM    C1121396   1.702   7.840   8.105  0.1840 -0.4543 -0.0254
    3HTM    C1221397   1.774   7.956   8.114 -0.4905  0.0072 -0.3734
    3HTM    C1321398   1.796   8.000   8.249 -0.9595  0.6974 -0.5097
    3HTM    C1421399   1.741   7.918   8.344 -0.6426  0.7620 -0.2657
    3HTM     S221400   1.656   7.778   8.268  0.2799 -0.0499  0.1586
    4TAL    C1521401   1.902   8.104   8.272 -0.4895  0.2930 -0.0913
    4TAL    C1621402   2.050   8.096   8.209  1.1958 -0.4698 -0.2314
    4TAL    C1721403   2.116   7.963   8.223 -0.4387 -0.3783  0.7450
    4TAL    C1821404   2.271   7.944   8.176  0.0760  0.9768 -0.0638
    4TAL    C1921405   2.309   7.791   8.168 -0.0149 -1.3469  0.2539
    4TAL    C2021406   2.463   7.740   8.165  0.1429  0.0824  0.1427
    5HTM    C2121407   1.743   7.920   8.486  0.3633 -0.1753 -0.0390
    5HTM    C2221408   1.791   8.012   8.575  0.5432 -0.0255 -0.2902
    5HTM    C2321409   1.762   7.981   8.712  0.4608  0.4196 -0.2041
    5HTM    C2421410   1.692   7.866   8.729  0.2181  0.6090  0.1124
    5HTM     S321411   1.656   7.786   8.571  0.0736  0.2370  0.3288
    6TAL    C2521412   1.814   8.065   8.833 -0.4232  0.3468  1.0291
    6TAL    C2621413   1.959   8.116   8.808  0.6233 -0.3202 -0.9692
    6TAL    C2721414   2.027   8.212   8.907  0.4079  0.6733  0.2001
    6TAL    C2821415   2.031   8.156   9.053 -0.2348 -0.4218  0.3386
    6TAL    C2921416   2.166   8.158   9.119  0.9824  0.1622  0.6060
    6TAL    C3021417   2.173   8.159   9.264  0.0710  1.6885 -1.3349
    7HTM    C3121418   1.631   7.804   8.844  0.1785 -0.4667 -0.2145
    7HTM    C3221419   1.499   7.776   8.866  0.1245 -0.5143 -0.5770
    7HTM    C3321420   1.477   7.676   8.967 -0.1203 -0.3644 -0.4778
    7HTM    C3421421   1.592   7.626   9.021 -0.2529 -0.2028 -0.0394
    7HTM     S421422   1.738   7.704   8.948 -0.0775 -0.2270  0.2837
    8TAL    C3521423   1.339   7.625   9.005 -0.5632 -0.0578  0.6245
    8TAL    C3621424   1.274   7.493   8.943  0.1982 -0.5318 -0.8956
    8TAL    C3721425   1.285   7.481   8.790  0.3101 -0.1093  0.5409
    8TAL    C3821426   1.146   7.444   8.718  1.1614  0.9162  0.9072
    8TAL    C3921427   1.045   7.547   8.662 -0.3114 -1.0611 -0.5692
    8TAL    C4021428   0.910   7.476   8.637 -0.0997 -0.5924 -0.2268
    9HTM    C4121429   1.627   7.534   9.128 -0.0523  0.1678 -0.2889
    9HTM    C4221430   1.731   7.558   9.212  0.5755 -0.3530 -0.8914
    9HTM    C4321431   1.748   7.456   9.313  0.6056 -0.4029 -0.9465
    9HTM    C4421432   1.657   7.355   9.305  0.0008  0.0801 -0.3862
    9HTM     S521433   1.542   7.380   9.169 -0.6588  0.6394  0.2599
   10TAL    C4521434   1.852   7.469   9.424 -0.3951 -0.8053  0.4565
   10TAL    C4621435   1.867   7.607   9.490  0.4062  0.1251  0.2731
   10TAL    C4721436   1.984   7.617   9.595 -0.1457  0.2264  0.1420
   10TAL    C4821437   1.986   7.557   9.745  0.4640 -0.8464  0.0450
   10TAL    C4921438   1.999   7.408   9.766  0.2673  0.2857  0.7811
   10TAL    C5021439   2.150   7.374   9.742 -0.6995 -0.1483 -0.8455
   11HTM    C5121440   1.657   7.229   9.386  0.4411  0.2251  0.1748
   11HTM    C5221441   1.744   7.125   9.368  0.3536  0.1750  0.0336
   11HTM    C5321442   1.725   7.018   9.462  0.0575 -0.0792 -0.3097
   11HTM    C5421443   1.624   7.040   9.551 -0.0807 -0.2227 -0.4307
   11HTM     S621444   1.544   7.199   9.523  0.1541 -0.0469 -0.1175
   12TAL    C5521445   1.822   6.907   9.469 -0.4921 -0.7238  1.2644
   12TAL    C5621446   1.809   6.777   9.537  1.3210  0.0155  0.5165
   12TAL    C5721447   1.942   6.700   9.564  1.1502 -0.8609  1.1057
   12TAL    C5821448   2.031   6.772   9.663  0.1887 -0.5019 -0.4920
   12TAL    C5921449   2.144   6.690   9.731  0.2545  0.5041  0.7972
   12TAL    C6021450   2.081   6.633   9.860 -1.1778  0.0792  0.2511
   13HTM    C6121451   1.548   6.965   9.651  0.2248 -0.3231  0.1995
   13HTM    C6221452   1.462   6.860   9.638  0.5504 -0.6298  0.4623
   13HTM    C6321453   1.392   6.826   9.759  0.5025 -0.4045  0.4992
   13HTM    C6421454   1.425   6.904   9.865  0.1405  0.0737  0.2651
   13HTM     S721455   1.548   7.029   9.820 -0.1705  0.2785 -0.0228
   14TAL    C6521456   1.286   6.709   9.760 -0.4067 -0.9343  0.3609
   14TAL    C6621457   1.326   6.558   9.755  0.9601  0.8029  1.3095
   14TAL    C6721458   1.403   6.495   9.631 -1.0945 -0.4480  0.1410
   14TAL    C6821459   1.553   6.516   9.634  0.0475 -0.0552  1.3502
   14TAL    C6921460   1.620   6.395   9.709  0.7557 -0.8392 -0.0030
   14TAL    C7021461   1.768   6.413   9.732 -0.0644  0.9960 -0.3833
   15HTM    C7121462   1.402   6.899  10.013 -0.3398 -0.4059 -0.0560
   15HTM    C7221463   1.333   6.990  10.088 -0.6255 -0.5670 -0.1199
   15HTM    C7321464   1.306   6.947  10.222 -0.2954 -0.4706 -0.0212
   15HTM    C7421465   1.355   6.822  10.250  0.2420 -0.2364  0.1179
   15HTM     S821466   1.438   6.750  10.107  0.3739 -0.1181  0.1352
   16TAL    C7521467   1.231   7.054  10.307  0.5602  0.3116  1.1836
   16TAL    C7621468   1.099   7.120  10.274 -0.3263  1.5755  0.2432
   16TAL    C7721469   0.981   7.025  10.268 -0.5920  1.3756  0.1279
   16TAL    C7821470   0.852   7.096  10.241  0.5047  0.4924  0.6931
   16TAL    C7921471   0.809   7.101  10.097 -0.0730  0.6957  0.0612
   16TAL    C8021472   0.663   7.092  10.066  0.0762  0.8246  0.9184
   17HTM    C8121473   1.339   6.733  10.363  0.2912 -0.1598 -0.1948
   17HTM    C8221474   1.432   6.683  10.449 -0.0352 -0.3229  0.0709
   17HTM    C8321475   1.381   6.582  10.538 -0.4754 -0.1984 -0.0352
   17HTM    C8421476   1.249   6.555  10.521 -0.4848  0.0598 -0.3818
   17HTM     S921477   1.178   6.655  10.389  0.0661  0.1663 -0.6028
   18TAL    C8521478   1.459   6.509  10.639 -0.4324 -0.2296  0.2449
   18TAL    C8621479   1.606   6.505  10.663 -0.2216 -0.0099  1.4153
   18TAL    C8721480   1.686   6.448  10.546 -0.1263 -0.2475 -0.3815
   18TAL    C8821481   1.664   6.303  10.511 -0.6102  0.2034 -0.5328
   18TAL    C8921482   1.693   6.195  10.614  0.2371 -0.5530 -0.0240
   18TAL    C9021483   1.831   6.189  10.677  0.1334  0.2310  0.3962
   19HTM    C9121484   1.175   6.456  10.599 -0.0176  0.1644  0.0279
   19HTM    C9221485   1.114   6.344  10.552 -0.0322  0.1633  0.0493
   19HTM    C9321486   1.051   6.265  10.655 -0.1783  0.2736  0.0452
   19HTM    C9421487   1.065   6.317  10.780 -0.2752  0.3587  0.0208
   19HTM    S1021488   1.159   6.471  10.778 -0.1886  0.3058  0.0008
   20TAL    C9521489   0.948   6.152  10.629 -0.4426  0.8545  0.3861
   20TAL    C9621490   0.835   6.207  10.536  0.0501  1.2884 -0.8467
   20TAL    C9721491   0.807   6.110  10.417  0.9265 -0.4068  0.0832
   20TAL    C9821492   0.705   6.164  10.304 -0.5029  0.1954 -0.3588
   20TAL    C9921493   0.670   6.090  10.180 -0.3507  0.0532 -0.1248
   20TAL   C10021494   0.578   6.152  10.077  0.1459 -0.2605 -0.0952
   21HTM   C10121495   1.015   6.264  10.913  0.2994 -0.0531  0.8320
   21HTM   C10221496   1.034   6.141  10.970  0.1769 -0.0514  0.8787
   21HTM   C10321497   0.972   6.126  11.099 -0.0941 -0.0436  0.7504
   21HTM   C10421498   0.905   6.238  11.141 -0.1782 -0.0395  0.6059
   21HTM    S1121499   0.915   6.371  11.019  0.0803 -0.0452  0.6208
   22TAL   C10521500   0.989   5.998  11.179  0.0421 -0.1316 -0.5169
   22TAL   C10621501   0.923   5.866  11.138 -0.1844  0.0196 -0.2425
   22TAL   C10721502   0.776   5.852  11.125  0.3860 -0.0525 -0.0799
   22TAL   C10821503   0.755   5.712  11.084  0.0487 -0.8350  0.0871
   22TAL   C10921504   0.627   5.693  11.008 -0.7856  0.4015 -0.0468
   22TAL   C11021505   0.600   5.545  10.973  0.1885 -0.6045  0.0347
   23HTM   C11121506   0.812   6.260  11.245 -0.0968 -0.1676  0.4914
   23HTM   C11221507   0.779   6.178  11.348 -0.2850  0.1704  0.7031
   23HTM   C11321508   0.678   6.232  11.435 -0.2357  0.5802  0.5086
   23HTM   C11421509   0.634   6.356  11.398 -0.0100  0.5548  0.1488
   23HTM    S1221510   0.718   6.414  11.249  0.1592  0.0068  0.0265
   24TAL   C11521511   0.629   6.151  11.549  0.0378 -0.4804  0.1647
   24TAL   C11621512   0.720   6.064  11.645  0.3755 -0.7021  0.7493
   24TAL   C11721513   0.637   5.973  11.736 -1.2196  0.5489  0.4563
   24TAL   C11821514   0.704   5.914  11.862  0.4891  0.2583 -0.6911
   24TAL   C11921515   0.601   5.819  11.935  0.6573 -0.4789  0.0487
   24TAL   C12021516   0.607   5.828  12.096  0.1320 -0.0249  1.4868
   25HTM   C12121517   0.548   6.458  11.459  0.3670  0.4653  0.2599
   25HTM   C12221518   0.510   6.576  11.404 -0.1159  0.1963  0.0018
   25HTM   C12321519   0.397   6.637  11.470 -0.4516 -0.1777 -0.2158
   25HTM   C12421520   0.350   6.565  11.575 -0.2246 -0.1941 -0.1237
   25HTM    S1321521   0.444   6.413  11.599  0.4358  0.2652  0.2480
   26TAL   C12521522   0.335   6.739  11.374  0.0699  0.2141 -0.0126
   26TAL   C12621523   0.250   6.849  11.432  0.0324 -0.5581 -0.1257
   26TAL   C12721524   0.183   6.940  11.316 -0.3387  0.6473 -0.5402
   26TAL   C12821525   0.127   7.075  11.368  1.5040  0.2138  0.3752
   26TAL   C12921526  -0.014   7.053  11.449 -0.6105 -1.0612 -0.0531
   26TAL   C13021527  -0.135   7.071  11.370  0.3378  0.3183  1.5305
   27HTM   C13121528   0.274   6.613  11.691  0.0304  0.0668  0.5546
   27HTM   C13221529   0.315   6.670  11.807 -0.0486 -0.0614  0.6453
   27HTM   C13321530   0.206   6.712  11.892 -0.1059  0.0429  0.5201
   27HTM   C13421531   0.083   6.687  11.839 -0.0705  0.2506  0.3338
   27HTM    S1421532   0.095   6.607  11.678  0.0387  0.3313  0.3019
   28TAL   C13521533   0.224   6.802  12.009 -0.9090 -0.9532  0.1610
   28TAL   C13621534   0.304   6.774  12.133  0.1197 -0.9548 -0.2937
   28TAL   C13721535   0.440   6.723  12.118  0.6699 -1.1883 -0.4224
   28TAL   C13821536   0.531   6.844  12.092  0.1780  0.2969  0.4591
   28TAL   C13921537   0.674   6.803  12.094  0.2938  0.1069 -0.2288
   28TAL   C14021538   0.741   6.768  11.968 -0.5470 -0.5210  0.9166
   29HTM   C14121539  -0.056   6.728  11.879 -0.2488 -0.3431 -0.3221
   29HTM   C14221540  -0.148   6.783  11.795 -0.4909 -0.1609  0.0564
   29HTM   C14321541  -0.256   6.850  11.863 -0.0746  0.0682  0.5078
   29HTM   C14421542  -0.247   6.845  11.998  0.4847  0.0611  0.4735
   29HTM    S1521543  -0.099   6.756  12.052  0.5298 -0.2381 -0.1362
   30TAL   C14521544  -0.362   6.934  11.784  0.1752 -0.0834  0.1436
   30TAL   C14621545  -0.326   7.067  11.706  0.1901  0.8027  0.0519
   30TAL   C14721546  -0.217   7.162  11.745  0.1503 -0.5844  0.1932
   30TAL   C14821547  -0.268   7.271  11.832  0.0135  0.2035 -0.2640
   30TAL   C14921548  -0.371   7.370  11.775 -0.4015  0.2460  0.1400
   30TAL   C15021549  -0.387   7.484  11.872  0.3174  0.8949 -0.2252
   31HTM   C15121550  -0.331   6.901  12.106  0.5006 -0.6450 -0.1332
   31HTM   C15221551  -0.467   6.903  12.122  0.3886 -0.1357 -1.0067
   31HTM   C15321552  -0.509   6.969  12.243 -0.1862  0.4938 -1.5349
   31HTM   C15421553  -0.406   7.017  12.319 -0.5126  0.4641 -1.0643
   31HTM    S1621554  -0.247   6.982  12.243 -0.1159 -0.3673  0.0917
   32TAL   C15521555  -0.662   6.980  12.273 -1.3646  0.4738  0.9195
   32TAL   C15621556  -0.702   7.064  12.388 -0.2662 -0.4403  0.4335
   32TAL   C15721557  -0.811   7.173  12.368  0.1658  0.6021 -0.1695
   32TAL   C15821558  -0.810   7.251  12.239 -0.0369 -0.0358  1.0964
   32TAL   C15921559  -0.686   7.337  12.229  1.0064 -0.8807  0.6268
   32TAL   C16021560  -0.713   7.471  12.144 -0.2391 -0.7633  0.3884
   33HTM   C16121561  -0.396   7.090  12.446  0.6727 -0.7340 -0.3842
   33HTM   C16221562  -0.379   7.055  12.577  0.6478 -1.0881 -0.4722
   33HTM   C16321563  -0.400   7.164  12.668  0.2337 -1.4263 -0.1528
   33HTM   C16421564  -0.432   7.282  12.607 -0.0575 -1.3299  0.1789
   33HTM    S1721565  -0.438   7.264  12.428  0.1707 -0.8003  0.1130
   34TAL   C16521566  -0.393   7.137  12.816  1.0990  0.2352  0.0464
   34TAL   C16621567  -0.421   6.991  12.876 -0.8172 -0.6576  1.1822
   34TAL   C16721568  -0.323   6.876  12.847 -0.5477  0.1298  0.4069
   34TAL   C16821569  -0.172   6.891  12.878  0.2831 -0.9359  0.2606
   34TAL   C16921570  -0.069   6.790  12.840 -0.3890  0.9077  0.0824
   34TAL   C17021571  -0.115   6.648  12.892  0.7569 -0.3844  1.0432
   35HTM   C17121572  -0.453   7.416  12.653  0.0268  0.2615 -0.1994
   35HTM   C17221573  -0.463   7.533  12.583  0.1044  0.3568 -0.0536
   35HTM   C17321574  -0.484   7.649  12.665  0.1338  0.2613  0.0886
   35HTM   C17421575  -0.491   7.621  12.799  0.0785  0.0932  0.0513
   35HTM    S1821576  -0.470   7.444  12.831 -0.0152  0.0419 -0.1680
   36TAL   C17521577  -0.481   7.791  12.605 -0.9248  0.9449  1.0267
   36TAL   C17621578  -0.591   7.826  12.513 -1.5812 -1.0575  0.4367
   36TAL   C17721579  -0.548   7.933  12.407  0.3010  0.5769  0.6167
   36TAL   C17821580  -0.658   7.964  12.309  0.0502  0.2837 -0.1985
   36TAL   C17921581  -0.729   7.847  12.249  0.8341  0.5169  1.2077
   36TAL   C18021582  -0.846   7.917  12.177 -0.8611 -1.0271  0.6017
   37HTM   C18121583  -0.513   7.708  12.920  0.2133  0.4024 -0.0187
   37HTM   C18221584  -0.482   7.838  12.943  0.5245  0.2129  0.6784
   37HTM   C18321585  -0.517   7.884  13.075  0.5898 -0.3895  0.9087
   37HTM   C18421586  -0.575   7.788  13.153  0.3284 -0.6591  0.3872
   37HTM    S1921587  -0.590   7.631  13.064 -0.0235 -0.1697 -0.4415
   38TAL   C18521588  -0.516   8.034  13.106 -1.0893 -0.7172  1.2096
   38TAL   C18621589  -0.385   8.099  13.081 -0.1797 -0.6132  0.1777
   38TAL   C18721590  -0.296   8.097  13.205  1.1739 -0.9089 -0.8267
   38TAL   C18821591  -0.350   8.158  13.336  0.7915  0.7177 -0.3381
   38TAL   C18921592  -0.247   8.138  13.439  0.8279  0.6302  0.1007
   38TAL   C19021593  -0.299   8.150  13.597 -0.6546  0.5395  0.0968
   39HTM   C19121594  -0.629   7.779  13.288 -0.0206 -0.2143 -0.2681
   39HTM   C19221595  -0.596   7.857  13.395  0.4945 -0.2480 -0.3963
   39HTM   C19321596  -0.658   7.815  13.518  0.6802  0.0161 -0.2112
   39HTM   C19421597  -0.738   7.705  13.505  0.3069  0.2508  0.0583
   39HTM    S2021598  -0.741   7.646  13.335 -0.3131  0.1562  0.0994
   40TAL   C19521599  -0.627   7.883  13.649  0.3583  0.0585 -0.0360
   40TAL   C19621600  -0.682   8.021  13.679  0.8269  1.1850 -0.2459
   40TAL   C19721601  -0.610   8.072  13.805  0.5623  0.0046  0.0033
   40TAL   C19821602  -0.672   8.185  13.889  0.0338 -1.1036 -0.2558
   40TAL   C19921603  -0.588   8.282  13.968  0.1936  0.0821  0.3352
   40TAL   C20021604  -0.614   8.281  14.115 -0.2915  0.7589  0.6873
   41HTM   C20121605  -0.824   7.647  13.602  0.3287  0.6900  0.8246
   41HTM   C20221606  -0.958   7.625  13.593  0.2959  0.9536  0.6551
   41HTM   C20321607  -1.015   7.562  13.710  0.1748  0.3006  0.2509
   41HTM   C20421608  -0.923   7.536  13.807  0.1150 -0.4608  0.1123
   41HTM    S2121609  -0.758   7.589  13.760  0.2083 -0.4118  0.4840
   42TAL   C20521610  -1.161   7.535  13.707 -0.1563  0.3883  0.3759
   42TAL   C20621611  -1.242   7.638  13.790  0.3180  0.5579  0.1584
   42TAL   C20721612  -1.252   7.783  13.733 -0.1367 -0.3087 -1.2839
   42TAL   C20821613  -1.262   7.890  13.839 -0.7045  0.2699  0.5639
   42TAL   C20921614  -1.128   7.962  13.872 -0.8010  0.2260 -0.4086
   42TAL   C21021615  -1.035   7.996  13.764 -0.9099  0.0085  0.0169
   43HTM   C21121616  -0.941   7.483  13.942 -0.2092  0.5763  0.6930
   43HTM   C21221617  -0.858   7.488  14.051 -0.2701  0.7106  0.7340
   43HTM   C21321618  -0.916   7.431  14.170 -0.0486  0.1534  0.5798
   43HTM   C21421619  -1.042   7.383  14.152  0.1805 -0.4056  0.4211
   43HTM    S2221620  -1.099   7.406  13.982  0.1346 -0.2705  0.4544
   44TAL   C21521621  -0.858   7.443  14.315  0.9872  0.9543  0.2437
   44TAL   C21621622  -0.778   7.569  14.342  0.2672  0.3660 -0.4378
   44TAL   C21721623  -0.733   7.597  14.476  0.4366  0.8676 -0.9009
   44TAL   C21821624  -0.837   7.636  14.585  0.7652 -0.4761  0.7341
   44TAL   C21921625  -0.775   7.635  14.725 -1.0370  0.9494  0.4237
   44TAL   C22021626  -0.729   7.500  14.800 -0.9245  0.5858 -0.3884
   45HTM   C22121627  -1.131   7.307  14.237 -0.2337  0.1544  0.4427
   45HTM   C22221628  -1.147   7.311  14.373 -0.3502  0.0304  0.4328
   45HTM   C22321629  -1.253   7.227  14.421 -0.1528 -0.2968  0.3018
   45HTM   C22421630  -1.318   7.158  14.322  0.1139 -0.4223  0.2119
   45HTM    S2321631  -1.249   7.195  14.160  0.1372 -0.1349  0.2862
   46TAL   C22521632  -1.282   7.234  14.575 -0.2012  1.2103  1.4508
   46TAL   C22621633  -1.186   7.312  14.671  0.4160  0.8108  0.1348
   46TAL   C22721634  -1.273   7.390  14.773 -0.9105  0.2465  0.1499
   46TAL   C22821635  -1.351   7.329  14.893 -0.0002 -0.0668  0.2601
   46TAL   C22921636  -1.468   7.236  14.860 -1.5516  0.0675 -0.1658
   46TAL   C23021637  -1.574   7.235  14.964 -0.4046 -0.3213  0.5396
   47HTM   C23121638  -1.419   7.061  14.323 -0.6557  0.3225  0.0225
   47HTM   C23221639  -1.526   7.041  14.405 -1.0989  0.5953 -0.4761
   47HTM   C23321640  -1.614   6.935  14.361 -0.9189  0.5158 -0.6481
   47HTM   C23421641  -1.574   6.874  14.246 -0.3379  0.1820 -0.2808
   47HTM    S2421642  -1.421   6.947  14.183  0.0295 -0.0592  0.3156
   48TAL   C23521643  -1.744   6.894  14.429 -0.7518  0.5291  1.2302
   48TAL   C23621644  -1.779   6.929  14.574  0.3065 -0.5259 -0.1035
   48TAL   C23721645  -1.808   7.086  14.606 -0.9392  0.1729  0.4720
   48TAL   C23821646  -1.845   7.118  14.753  0.0290  0.2451  0.9037
   48TAL   C23921647  -1.844   7.266  14.763  0.7748 -0.3093 -0.6167
   48TAL   C24021648  -1.927   7.304  14.884  0.5670 -1.0770  0.8792
    1HTM     C121649   8.784   4.005   7.080 -0.6425  0.3356 -0.6453
    1HTM     C221650   8.752   3.991   6.948 -0.2713  0.6221 -0.7688
    1HTM     C321651   8.853   3.923   6.871 -0.1872  0.5184 -0.5693
    1HTM     C421652   8.962   3.885   6.944 -0.4946  0.1528 -0.2937
    1HTM     S121653   8.945   3.933   7.118 -0.9169 -0.0908 -0.2645
    2TAL     C521654   8.836   3.890   6.727  0.9107 -0.6403  0.5955
    2TAL     C621655   8.712   3.810   6.673 -0.0753 -0.5261 -0.5864
    2TAL     C721656   8.668   3.864   6.527  0.9281  0.0292 -0.6027
    2TAL     C821657   8.757   3.846   6.405 -0.4496 -1.0996 -0.2847
    2TAL     C921658   8.803   3.709   6.378 -0.2376  0.4422 -0.6993
    2TAL    C1021659   8.825   3.694   6.238 -0.4403 -0.9118  0.3100
    3HTM    C1121660   9.091   3.822   6.893 -0.0967 -0.1199  0.0116
    3HTM    C1221661   9.196   3.898   6.850  0.1533 -0.0482  0.7204
    3HTM    C1321662   9.306   3.820   6.799  0.3536  0.0429  1.0067
    3HTM    C1421663   9.285   3.686   6.803  0.2564  0.0406  0.5163
    3HTM     S221664   9.123   3.646   6.872 -0.0983 -0.0776 -0.3518
    4TAL    C1521665   9.422   3.885   6.718  0.0441 -0.4942  0.0219
    4TAL    C1621666   9.379   3.993   6.621 -0.2144 -1.0790 -0.5554
    4TAL    C1721667   9.501   4.041   6.539  0.0725 -0.6200  1.4611
    4TAL    C1821668   9.486   4.158   6.438  0.6162 -1.1234  1.2059
    4TAL    C1921669   9.615   4.238   6.438 -0.4779 -0.1128 -0.4581
    4TAL    C2021670   9.617   4.390   6.398 -0.0813  0.3451 -0.5546
    5HTM    C2121671   9.368   3.581   6.746 -0.1452  0.1338 -0.0726
    5HTM    C2221672   9.463   3.506   6.809 -0.5982 -0.3811  0.0139
    5HTM    C2321673   9.544   3.428   6.720 -0.8485 -0.7145  0.0764
    5HTM    C2421674   9.511   3.443   6.588 -0.5866 -0.4539  0.0374
    5HTM     S321675   9.374   3.558   6.567  0.0008  0.2380 -0.0822
    6TAL    C2521676   9.639   3.322   6.768  0.0500 -0.0797  0.0722
    6TAL    C2621677   9.581   3.200   6.850  0.0874  0.8805  0.6295
    6TAL    C2721678   9.596   3.204   6.998  0.0862  0.0443  0.2150
    6TAL    C2821679   9.741   3.210   7.034  0.0337 -0.4592 -0.5433
    6TAL    C2921680   9.775   3.167   7.174  0.2626 -1.1521  0.5599
    6TAL    C3021681   9.921   3.188   7.185  0.7776  0.5571 -1.0088
    7HTM    C3121682   9.570   3.401   6.467 -0.7647 -0.5982  0.3735
    7HTM    C3221683   9.548   3.474   6.354 -1.9634 -0.8274  0.4261
    7HTM    C3321684   9.608   3.417   6.236 -1.9948 -0.3510  0.1727
    7HTM    C3421685   9.675   3.300   6.260 -0.8198  0.2413 -0.0731
    7HTM     S421686   9.668   3.253   6.434  0.4272  0.2434 -0.0033
    8TAL    C3521687   9.603   3.491   6.099 -0.7231 -0.3225 -1.1033
    8TAL    C3621688   9.664   3.635   6.100 -0.4542 -0.4755  0.8033
    8TAL    C3721689   9.631   3.698   5.969 -0.6184 -0.5611 -0.1653
    8TAL    C3821690   9.486   3.707   5.938  0.7701  0.5222 -0.6166
    8TAL    C3921691   9.438   3.772   5.810  0.0543  0.0316 -0.7715
    8TAL    C4021692   9.472   3.677   5.693  1.0879  0.0698 -0.5385
    9HTM    C4121693   9.743   3.199   6.183 -0.1562 -0.0204 -0.3093
    9HTM    C4221694   9.790   3.077   6.222  0.0570  0.0911 -0.2124
    9HTM    C4321695   9.854   3.003   6.117  0.3078  0.1748 -0.1203
    9HTM    C4421696   9.856   3.069   5.997  0.2858  0.1272 -0.1468
    9HTM     S521697   9.777   3.230   6.009 -0.0560 -0.0283 -0.2916
   10TAL    C4521698   9.887   2.852   6.145  1.3473 -0.5442  0.9022
   10TAL    C4621699   9.998   2.811   6.245  0.5476  0.3858  1.0057
   10TAL    C4721700  10.001   2.656   6.247 -0.0671 -0.0250 -0.6430
   10TAL    C4821701  10.135   2.583   6.293  0.2003 -1.2455 -0.5596
   10TAL    C4921702  10.196   2.618   6.437 -0.9217 -0.1203  1.0478
   10TAL    C5021703  10.101   2.629   6.551  0.7985  0.4113 -0.4803
   11HTM    C5121704   9.908   3.024   5.861  0.3457 -0.2690  0.3722
   11HTM    C5221705   9.902   3.097   5.746  0.2352 -0.0774  0.4963
   11HTM    C5321706   9.935   3.020   5.628 -0.0351  0.0756  0.3197
   11HTM    C5421707   9.966   2.890   5.654 -0.1306  0.0009  0.0609
   11HTM     S621708   9.955   2.853   5.830  0.1153 -0.2708  0.0198
   12TAL    C5521709   9.924   3.066   5.483 -0.5660  0.3834  0.1106
   12TAL    C5621710   9.880   3.205   5.474 -1.1987  0.2193  0.3713
   12TAL    C5721711   9.813   3.247   5.344 -0.1388 -0.2647 -0.4628
   12TAL    C5821712   9.789   3.397   5.367  0.5447 -0.4626 -0.7201
   12TAL    C5921713   9.649   3.450   5.328 -0.2461  0.0049 -0.5192
   12TAL    C6021714   9.624   3.578   5.394  0.4880 -1.0351 -0.1857
   13HTM    C6121715  10.017   2.779   5.569 -0.6899  0.1557  0.1916
   13HTM    C6221716  10.071   2.789   5.444  0.0368  0.3514  0.5105
   13HTM    C6321717  10.087   2.662   5.378  0.5156  0.4445  0.4376
   13HTM    C6421718  10.045   2.556   5.453  0.1541  0.3199  0.0631
   13HTM     S721719   9.981   2.608   5.613 -0.8267  0.0733 -0.2289
   14TAL    C6521720  10.139   2.643   5.238  0.0732 -0.3902 -0.4091
   14TAL    C6621721  10.068   2.727   5.131 -0.6550 -0.1114 -1.5018
   14TAL    C6721722  10.132   2.750   5.005 -0.1215 -0.2261  0.6286
   14TAL    C6821723  10.067   2.837   4.896  0.3538  0.3333  0.4434
   14TAL    C6921724  10.168   2.899   4.797 -0.2558 -0.7477 -0.3985
   14TAL    C7021725  10.256   2.794   4.736 -0.8097  0.1125 -0.8494
   15HTM    C7121726  10.049   2.415   5.439  0.0384 -0.0465 -0.0223
   15HTM    C7221727  10.025   2.341   5.327  0.1817  0.0281 -0.1026
   15HTM    C7321728  10.034   2.199   5.348 -0.0710  0.0073 -0.1332
   15HTM    C7421729  10.064   2.165   5.477 -0.4070 -0.0832 -0.0760
   15HTM     S821730  10.084   2.311   5.581 -0.4306 -0.1497  0.0217
   16TAL    C7521731  10.030   2.099   5.235 -0.2441 -0.6589  0.4803
   16TAL    C7621732  10.157   2.012   5.196 -0.8122 -0.3072 -0.6460
   16TAL    C7721733  10.290   2.094   5.181 -0.1122 -0.1268  0.5470
   16TAL    C7821734  10.387   2.037   5.077  1.0914 -2.2657 -0.1252
   16TAL    C7921735  10.514   2.127   5.066 -0.0121 -0.7147 -0.3688
   16TAL    C8021736  10.609   2.156   5.182 -0.1010  0.2867 -0.3537
   17HTM    C8121737  10.086   2.033   5.535 -0.3473  0.3528  0.4161
   17HTM    C8221738  10.194   1.982   5.601 -0.5813  0.6788  1.0722
   17HTM    C8321739  10.182   1.843   5.634 -0.4853  0.7162  1.2693
   17HTM    C8421740  10.064   1.787   5.593 -0.1782  0.4187  0.7637
   17HTM     S921741   9.959   1.907   5.510  0.0151  0.0654 -0.0067
   18TAL    C8521742  10.308   1.759   5.667 -0.0285  0.1934 -0.1432
   18TAL    C8621743  10.442   1.787   5.584  0.4404  0.2303  0.1387
   18TAL    C8721744  10.552   1.685   5.557 -1.1876 -0.5288 -0.7854
   18TAL    C8821745  10.670   1.750   5.479  0.3201 -0.0557 -0.3365
   18TAL    C8921746  10.660   1.828   5.348  0.4005  0.1685 -0.4806
   18TAL    C9021747  10.575   1.781   5.236  0.3842  0.0328  0.0846
   19HTM    C9121748   9.997   1.657   5.617  0.0443 -0.3605  0.0515
   19HTM    C9221749   9.883   1.614   5.555 -0.0254 -0.3608  0.1806
   19HTM    C9321750   9.845   1.480   5.591  0.0591 -0.3895  0.1622
   19HTM    C9421751   9.930   1.420   5.679  0.1932 -0.4111  0.0192
   19HTM    S1021752  10.066   1.530   5.725  0.2234 -0.3967 -0.1043
   20TAL    C9521753   9.716   1.442   5.528  0.4123  1.0100 -0.0708
   20TAL    C9621754   9.599   1.546   5.543  0.3951 -0.0637  0.1218
   20TAL    C9721755   9.458   1.495   5.512  0.2157  1.3361  0.8616
   20TAL    C9821756   9.346   1.588   5.546  0.5905  0.9058 -1.0768
   20TAL    C9921757   9.215   1.526   5.507 -0.3764 -0.5627 -0.2849
   20TAL   C10021758   9.106   1.629   5.527  0.2221  0.3543  0.4008
   21HTM   C10121759   9.913   1.301   5.759 -0.1305 -0.1714  0.1809
   21HTM   C10221760   9.903   1.170   5.723 -0.0665 -0.3299  0.7207
   21HTM   C10321761   9.919   1.079   5.833  0.2247  0.1210  1.0620
   21HTM   C10421762   9.942   1.140   5.953  0.3826  0.6231  0.7822
   21HTM    S1121763   9.944   1.319   5.936  0.1743  0.5652  0.0604
   22TAL   C10521764   9.950   0.930   5.798  0.6672 -0.2401  0.9549
   22TAL   C10621765   9.835   0.834   5.759  1.0947 -0.0819 -0.8192
   22TAL   C10721766   9.899   0.726   5.672  1.4832  0.1980  1.1417
   22TAL   C10821767   9.770   0.665   5.605 -0.5661 -0.5864 -0.2540
   22TAL   C10921768   9.769   0.514   5.607  0.2848  0.8531  0.1749
   22TAL   C11021769   9.677   0.458   5.506  0.0864 -0.6188  0.1084
   23HTM   C11121770   9.996   1.085   6.076 -0.5383 -0.0477  0.1218
   23HTM   C11221771  10.072   0.972   6.088 -0.3281  0.0713 -0.0923
   23HTM   C11321772  10.093   0.930   6.224  0.4495  0.3241 -0.1272
   23HTM   C11421773  10.033   1.011   6.316  0.8324  0.3977  0.0602
   23HTM    S1221774   9.945   1.147   6.238  0.2357  0.1517  0.2971
   24TAL   C11521775  10.184   0.809   6.233 -0.8247  0.4977  1.1114
   24TAL   C11621776  10.150   0.702   6.338 -1.1734 -1.0093 -0.7774
   24TAL   C11721777  10.026   0.615   6.341 -0.9972 -1.2895  0.3251
   24TAL   C11821778   9.991   0.544   6.198  0.7133 -1.5834 -0.0984
   24TAL   C11921779  10.011   0.395   6.192 -0.9964 -0.6367 -0.6439
   24TAL   C12021780  10.155   0.346   6.188  0.8508 -0.2399 -0.3610
   25HTM   C12121781  10.025   1.027   6.463  0.3668 -0.0948 -0.2175
   25HTM   C12221782  10.085   1.130   6.529  0.6804 -0.2558 -0.2480
   25HTM   C12321783  10.061   1.131   6.671  0.4314  0.0288 -0.2899
   25HTM   C12421784   9.982   1.028   6.713 -0.0721  0.4066 -0.2916
   25HTM    S1321785   9.932   0.922   6.576 -0.2724  0.4326 -0.2397
   26TAL   C12521786  10.094   1.261   6.754  0.3760  0.5361  0.0009
   26TAL   C12621787  10.233   1.284   6.810 -0.1199 -0.2371  0.7033
   26TAL   C12721788  10.351   1.274   6.707 -0.2409 -1.6432 -0.0396
   26TAL   C12821789  10.481   1.193   6.746  0.7478  0.1311 -0.1434
   26TAL   C12921790  10.442   1.042   6.746 -0.1314 -0.7904 -0.4701
   26TAL   C13021791  10.413   0.994   6.893  0.1997 -0.9476  0.4891
   27HTM   C13121792   9.918   0.987   6.832 -0.2278  0.2006  0.2315
   27HTM   C13221793   9.934   0.867   6.894 -0.4251  0.0998  0.0873
   27HTM   C13321794   9.843   0.846   7.004 -0.4511  0.1225  0.0701
   27HTM   C13421795   9.758   0.950   7.026 -0.2736  0.2404  0.2016
   27HTM    S1421796   9.786   1.084   6.908 -0.0581  0.3328  0.3582
   28TAL   C13521797   9.842   0.719   7.090 -0.0025 -0.1051 -0.8775
   28TAL   C13621798   9.978   0.645   7.114  0.5682 -0.0507 -0.3654
   28TAL   C13721799   9.961   0.515   7.195 -0.1115 -0.0089  0.0529
   28TAL   C13821800  10.044   0.403   7.131  0.3331 -0.0740  0.3751
   28TAL   C13921801   9.993   0.333   7.002  0.3731 -0.5256  0.3457
   28TAL   C14021802  10.097   0.219   6.966  0.3335 -0.2553  0.0013
   29HTM   C14121803   9.658   0.988   7.122 -0.1308 -0.5480 -0.4001
   29HTM   C14221804   9.639   1.105   7.191 -0.1192  0.0004 -1.2975
   29HTM   C14321805   9.519   1.106   7.270 -0.3221  0.7871 -1.5968
   29HTM   C14421806   9.447   0.991   7.262 -0.4886  0.8385 -0.9279
   29HTM    S1521807   9.525   0.870   7.153 -0.4014 -0.1099  0.1405
   30TAL   C14521808   9.495   1.210   7.384  0.1853  0.7960  0.5990
   30TAL   C14621809   9.624   1.239   7.461 -0.4823  0.5496 -0.3010
   30TAL   C14721810   9.631   1.330   7.587 -0.1772 -0.3145  0.5608
   30TAL   C14821811   9.676   1.474   7.549  0.7024  0.3044  0.5231
   30TAL   C14921812   9.637   1.587   7.630  0.4824  0.7047  0.4486
   30TAL   C15021813   9.681   1.692   7.532  0.0591  0.3480  0.4303
   31HTM   C15121814   9.296   0.958   7.302 -0.2590  0.1943  0.5142
   31HTM   C15221815   9.238   0.974   7.424 -0.4194 -0.6608  0.5605
   31HTM   C15321816   9.095   0.958   7.423 -0.3920 -0.9133  0.3176
   31HTM   C15421817   9.044   0.931   7.299 -0.2099 -0.2508  0.0859
   31HTM    S1621818   9.174   0.922   7.174 -0.0583  0.7513  0.1574
   32TAL   C15521819   9.006   0.956   7.546 -1.2390 -0.4243  0.2518
   32TAL   C15621820   9.064   0.965   7.697  0.5612  0.6470 -0.2504
   32TAL   C15721821   8.954   0.926   7.795  0.2476  0.0314  0.5693
   32TAL   C15821822   8.964   0.982   7.928 -1.1413  0.0791 -0.0227
   32TAL   C15921823   9.097   1.028   7.991  0.2234 -0.8276 -0.1547
   32TAL   C16021824   9.073   1.053   8.142 -0.3654 -0.4296 -0.2220
   33HTM   C16121825   8.922   0.896   7.240 -0.0739 -0.1899 -0.3609
   33HTM   C16221826   8.869   0.944   7.124  0.1464 -0.1906 -0.4634
   33HTM   C16321827   8.758   0.866   7.074  0.0198  0.0058 -0.4896
   33HTM   C16421828   8.727   0.759   7.153 -0.2973  0.1562 -0.4074
   33HTM    S1721829   8.836   0.748   7.296 -0.4614  0.0608 -0.2891
   34TAL   C16521830   8.667   0.910   6.952 -1.2517 -0.0312 -1.2490
   34TAL   C16621831   8.711   1.024   6.871 -0.4999 -0.1947 -0.0241
   34TAL   C16721832   8.805   0.982   6.766 -0.8431 -1.0619 -0.7362
   34TAL   C16821833   8.942   1.060   6.770 -0.2026 -0.3528 -1.9513
   34TAL   C16921834   8.946   1.206   6.817 -0.3369 -0.8177 -0.6605
   34TAL   C17021835   9.086   1.280   6.836 -0.3410 -0.2341 -0.6530
   35HTM   C17121836   8.619   0.659   7.140  0.3890 -0.3170  0.1528
   35HTM   C17221837   8.520   0.634   7.230  1.0254 -1.0567  0.6753
   35HTM   C17321838   8.421   0.541   7.182  1.0271 -1.1612  0.8729
   35HTM   C17421839   8.444   0.496   7.056  0.3919 -0.5011  0.5008
   35HTM    S1821840   8.595   0.567   6.987 -0.2622  0.3099 -0.1325
   36TAL   C17521841   8.277   0.519   7.244 -0.2681  0.3914  0.9840
   36TAL   C17621842   8.251   0.375   7.289 -0.4374  0.5499 -0.3412
   36TAL   C17721843   8.355   0.291   7.376  0.2315 -0.0085  0.1799
   36TAL   C17821844   8.451   0.365   7.476 -0.4371 -0.0149  0.1563
   36TAL   C17921845   8.374   0.420   7.596 -0.0587 -0.8297 -0.4834
   36TAL   C18021846   8.441   0.349   7.718 -0.5549 -0.4236  0.1227
   37HTM   C18121847   8.374   0.395   6.974 -0.3013 -0.1140  0.7163
   37HTM   C18221848   8.426   0.274   6.936 -0.6921 -0.5932  1.6476
   37HTM   C18321849   8.343   0.203   6.842 -0.7677 -0.9072  1.9499
   37HTM   C18421850   8.228   0.269   6.809 -0.4350 -0.6673  1.2489
   37HTM    S1921851   8.216   0.428   6.893  0.0036 -0.0213  0.1442
   38TAL   C18521852   8.375   0.060   6.791 -0.5753  0.5132  0.7403
   38TAL   C18621853   8.456  -0.031   6.882  0.3901  0.1434 -0.1149
   38TAL   C18721854   8.405  -0.031   7.028 -0.0505  0.0319  0.4488
   38TAL   C18821855   8.510  -0.086   7.113 -0.9440 -0.0623 -1.0994
   38TAL   C18921856   8.485  -0.070   7.266 -0.1461 -0.1052 -0.6306
   38TAL   C19021857   8.587  -0.163   7.341  1.4330 -0.1019  0.3298
   39HTM   C19121858   8.122   0.239   6.713  0.7033  0.8712 -0.2737
   39HTM   C19221859   7.995   0.204   6.747  0.7700  1.0614  0.1829
   39HTM   C19321860   7.909   0.179   6.634  0.4531  0.7407  0.4876
   39HTM   C19421861   7.971   0.197   6.514  0.1451  0.3060  0.2632
   39HTM    S2021862   8.143   0.245   6.534  0.2317  0.2676 -0.3552
   40TAL   C19521863   7.768   0.130   6.673 -0.8727  0.0940  0.4042
   40TAL   C19621864   7.676   0.195   6.779 -0.9648  0.8798 -0.2120
   40TAL   C19721865   7.636   0.313   6.704  0.5087  0.6828  0.6614
   40TAL   C19821866   7.546   0.420   6.770 -0.0275  1.1272 -0.3829
   40TAL   C19921867   7.400   0.389   6.800 -0.5707 -0.0543 -0.2476
   40TAL   C20021868   7.314   0.380   6.674  0.5264 -0.2912  1.1436
   41HTM   C20121869   7.919   0.194   6.381  0.4553  0.0656 -0.2014
   41HTM   C20221870   7.913   0.299   6.295  0.3223  0.1339 -0.1101
   41HTM   C20321871   7.842   0.270   6.173  0.0240  0.2693  0.0288
   41HTM   C20421872   7.794   0.143   6.166 -0.0703  0.3041  0.0435
   41HTM    S2121873   7.835   0.049   6.315  0.2124  0.1676 -0.1182
   42TAL   C20521874   7.830   0.373   6.064 -0.5836  0.2172 -0.5378
   42TAL   C20621875   7.779   0.512   6.100  0.5439  0.3495 -0.4791
   42TAL   C20721876   7.780   0.614   5.982  0.0175 -0.3938  0.3465
   42TAL   C20821877   7.722   0.564   5.849  0.0876 -0.4734  0.0450
   42TAL   C20921878   7.715   0.659   5.734 -0.2232  0.8490 -0.5645
   42TAL   C21021879   7.695   0.580   5.604 -0.6638  0.5310 -0.3941
   43HTM   C21121880   7.702   0.078   6.070 -0.2558 -0.1610  0.5691
   43HTM   C21221881   7.619   0.134   5.977 -0.4367 -0.0196  0.8121
   43HTM   C21321882   7.526   0.041   5.919 -0.3102 -0.0124  0.5952
   43HTM   C21421883   7.537  -0.086   5.967 -0.0326 -0.1484  0.1870
   43HTM    S2221884   7.668  -0.098   6.091  0.0912 -0.2973  0.0436
   44TAL   C21521885   7.448   0.093   5.791 -0.2871 -0.3924 -1.2057
   44TAL   C21621886   7.538   0.147   5.679  0.3107 -0.3821 -0.0140
   44TAL   C21721887   7.536   0.055   5.550  0.0009  0.2562 -0.2768
   44TAL   C21821888   7.568  -0.099   5.563 -0.3135 -0.4068 -0.6595
   44TAL   C21921889   7.570  -0.135   5.419  0.2019  1.2224  0.0200
   44TAL   C22021890   7.584  -0.290   5.439 -0.0445  0.7788  0.2361
   45HTM   C22121891   7.479  -0.213   5.923  0.7130 -0.4981 -0.0052
   45HTM   C22221892   7.555  -0.326   5.928  0.2230 -0.8333 -0.0515
   45HTM   C22321893   7.491  -0.441   5.867 -0.3015 -0.5531 -0.0459
   45HTM   C22421894   7.368  -0.415   5.817 -0.2116 -0.0042  0.0048
   45HTM    S2321895   7.321  -0.242   5.842  0.5485  0.2034  0.0494
   46TAL   C22521896   7.582  -0.560   5.829  0.9496 -0.7201  0.8634
   46TAL   C22621897   7.528  -0.699   5.845 -0.0624  0.1279  0.4586
   46TAL   C22721898   7.636  -0.787   5.899  0.2920 -0.9368  0.3416
   46TAL   C22821899   7.630  -0.840   6.045  0.2039 -0.1430  1.0049
   46TAL   C22921900   7.517  -0.938   6.067 -0.7321 -0.2013 -0.4109
   46TAL   C23021901   7.506  -0.942   6.216 -1.2115  0.3755  0.1189
   47HTM   C23121902   7.264  -0.501   5.756 -0.1439  0.3391 -0.0176
   47HTM   C23221903   7.286  -0.600   5.665  0.2605  0.3388  0.0736
   47HTM   C23321904   7.167  -0.674   5.631  0.5524 -0.1578  0.1160
   47HTM   C23421905   7.055  -0.631   5.696  0.3705 -0.5363  0.0570
   47HTM    S2421906   7.091  -0.493   5.807 -0.1879 -0.2928 -0.0575
   48TAL   C23521907   7.192  -0.777   5.521 -0.4444 -0.8231 -0.6240
   48TAL   C23621908   7.078  -0.862   5.484  0.6002 -0.5367 -0.8400
   48TAL   C23721909   7.088  -0.896   5.331  0.0490  0.1475  0.4641
   48TAL   C23821910   7.043  -1.029   5.279  0.5615  0.4982  0.1920
   48TAL   C23921911   7.124  -1.139   5.348 -0.0784 -0.1700 -0.0320
   48TAL   C24021912   7.035  -1.252   5.398  0.6090  0.3332 -0.5761
    1HTM     C121913   0.681   5.098   5.042  0.0171 -0.9409 -0.4368
    1HTM     C221914   0.584   5.166   5.109 -0.2038 -0.5460 -1.1375
    1HTM     C321915   0.520   5.090   5.213 -0.5339  0.0485 -0.8899
    1HTM     C421916   0.568   4.963   5.224 -0.5649  0.1069 -0.0003
    1HTM     S121917   0.699   4.930   5.105 -0.1763 -0.5897  0.5983
    2TAL     C521918   0.419   5.145   5.312 -0.7628  0.0077 -0.3510
    2TAL     C621919   0.279   5.162   5.252 -0.4582 -0.5716  0.1424
    2TAL     C721920   0.203   5.240   5.357 -0.2386  0.5874 -0.0710
    2TAL     C821921   0.069   5.280   5.309  0.0030 -0.4867 -0.1982
    2TAL     C921922   0.001   5.381   5.405 -1.0513  0.1343  0.0452
    2TAL    C1021923   0.049   5.516   5.403  0.4062  0.0738 -0.9226
    3HTM    C1121924   0.525   4.846   5.311  0.1136 -0.0934 -0.4229
    3HTM    C1221925   0.620   4.765   5.367  0.2393  0.0305 -0.4530
    3HTM    C1321926   0.572   4.692   5.482  0.4918  0.2773 -0.1884
    3HTM    C1421927   0.442   4.717   5.513  0.5585  0.3415  0.0437
    3HTM     S221928   0.368   4.836   5.399  0.3057  0.0932 -0.0549
    4TAL    C1521929   0.653   4.598   5.572 -0.1491 -0.2933  0.1513
    4TAL    C1621930   0.787   4.633   5.627 -0.9447  0.0296 -0.6552
    4TAL    C1721931   0.763   4.726   5.749 -0.2839  0.0824  1.0373
    4TAL    C1821932   0.693   4.657   5.870 -0.7121  0.1830  0.5529
    4TAL    C1921933   0.780   4.617   5.985  0.2397 -0.0156 -0.4016
    4TAL    C2021934   0.693   4.530   6.075 -0.6938 -0.4183 -0.4085
    5HTM    C2121935   0.357   4.682   5.622  0.2977  0.5410 -0.3406
    5HTM    C2221936   0.318   4.555   5.652 -0.0815  0.5764 -0.6530
    5HTM    C2321937   0.273   4.539   5.788 -0.2339  0.3995 -0.7232
    5HTM    C2421938   0.277   4.654   5.861  0.0291  0.2293 -0.4640
    5HTM     S321939   0.339   4.792   5.763  0.4932  0.2797 -0.1087
    6TAL    C2521940   0.239   4.409   5.856 -0.5231 -0.1598  0.0417
    6TAL    C2621941   0.131   4.314   5.812  0.2766  0.0284 -0.2092
    6TAL    C2721942   0.104   4.202   5.908  0.2005  0.2677  0.6836
    6TAL    C2821943   0.188   4.084   5.893  0.5128 -0.3040 -0.1172
    6TAL    C2921944   0.170   3.969   5.992  1.1390 -0.6435 -0.2725
    6TAL    C3021945   0.266   3.854   5.973 -0.0748  0.1328  0.7317
    7HTM    C3121946   0.227   4.695   5.985 -0.3883 -0.6195 -0.0007
    7HTM    C3221947   0.117   4.773   6.005 -0.3458 -0.5094 -0.1951
    7HTM    C3321948   0.076   4.781   6.143 -0.2557 -0.0283 -0.1912
    7HTM    C3421949   0.154   4.708   6.228 -0.2294  0.2288  0.0060
    7HTM     S421950   0.287   4.624   6.140 -0.3172 -0.1198  0.2040
    8TAL    C3521951  -0.023   4.883   6.208  1.0125  0.6375  0.8831
    8TAL    C3621952  -0.176   4.862   6.201  1.0101  0.7538 -0.2743
    8TAL    C3721953  -0.229   4.833   6.067 -1.2675  0.3627  1.1402
    8TAL    C3821954  -0.238   4.957   5.973 -0.4858 -0.0327 -0.2760
    8TAL    C3921955  -0.327   4.928   5.857  0.8527 -0.1805  1.0545
    8TAL    C4021956  -0.340   5.036   5.732  0.2921 -0.6140  0.0931
    9HTM    C4121957   0.167   4.706   6.370 -0.1726  0.3250 -0.2030
    9HTM    C4221958   0.133   4.601   6.451 -0.5802  0.3750 -0.3042
    9HTM    C4321959   0.147   4.630   6.591 -0.5957  0.2282 -0.2723
    9HTM    C4421960   0.192   4.756   6.617 -0.1999  0.0661 -0.1467
    9HTM     S521961   0.220   4.849   6.465  0.2263  0.0867 -0.0581
   10TAL    C4521962   0.101   4.534   6.702 -0.8433  0.8970  0.5084
   10TAL    C4621963   0.116   4.382   6.678  0.1871  0.3164  0.3903
   10TAL    C4721964   0.078   4.302   6.807 -0.0223 -0.7186  1.0794
   10TAL    C4821965   0.186   4.305   6.910 -1.0328  1.4167  1.4565
   10TAL    C4921966   0.336   4.284   6.865 -0.2944  0.0146 -0.6130
   10TAL    C5021967   0.433   4.280   6.983  0.2093 -0.0516  0.2770
   11HTM    C5121968   0.191   4.828   6.740  0.0168 -0.0328  0.2139
   11HTM    C5221969   0.216   4.782   6.866 -0.2627  0.0725  0.3079
   11HTM    C5321970   0.237   4.887   6.963 -0.2078  0.1493  0.2126
   11HTM    C5421971   0.229   5.012   6.910  0.1137  0.1025  0.0460
   11HTM     S621972   0.193   5.008   6.733  0.3739 -0.0432 -0.0040
   12TAL    C5521973   0.268   4.860   7.109 -0.5249  0.6777  0.4079
   12TAL    C5621974   0.405   4.797   7.146 -0.1240  0.1654 -0.0561
   12TAL    C5721975   0.518   4.875   7.088  0.1685  0.0864  0.2991
   12TAL    C5821976   0.646   4.790   7.094 -0.1584  0.4873  0.6780
   12TAL    C5921977   0.662   4.686   6.979 -0.6898 -0.3016 -0.2020
   12TAL    C6021978   0.641   4.748   6.849 -0.2935  0.3835  0.5691
   13HTM    C6121979   0.238   5.146   6.964  0.2774  0.2206 -0.3421
   13HTM    C6221980   0.190   5.257   6.902  1.1027  0.3026 -0.8651
   13HTM    C6321981   0.220   5.380   6.972  1.2179  0.3222 -0.9493
   13HTM    C6421982   0.291   5.362   7.087  0.4805  0.2552 -0.4905
   13HTM     S721983   0.325   5.187   7.117 -0.4237  0.1616  0.0878
   14TAL    C6521984   0.144   5.503   6.936 -0.0578  0.0361 -0.1791
   14TAL    C6621985  -0.005   5.527   6.901 -0.5144 -0.4349  1.3589
   14TAL    C6721986  -0.109   5.462   6.988  0.8732 -0.7170 -0.2527
   14TAL    C6821987  -0.252   5.496   6.943 -0.9715  0.2701  0.4902
   14TAL    C6921988  -0.362   5.528   7.044  0.4517  1.0115 -0.8729
   14TAL    C7021989  -0.407   5.425   7.151 -0.1096 -0.8543 -1.1007
   15HTM    C7121990   0.350   5.468   7.174 -0.3931  0.1660  0.1963
   15HTM    C7221991   0.422   5.576   7.132 -0.7520  0.4894  0.4109
   15HTM    C7321992   0.502   5.636   7.235 -0.6613  0.3225  0.4371
   15HTM    C7421993   0.493   5.573   7.356 -0.2332 -0.1284  0.2422
   15HTM     S821994   0.380   5.432   7.348  0.0910 -0.3788  0.0087
   16TAL    C7521995   0.597   5.757   7.225  0.8912 -0.1986 -0.5593
   16TAL    C7621996   0.628   5.854   7.105  0.3311  0.0676 -1.3966
   16TAL    C7721997   0.716   5.979   7.138 -0.0517 -0.0317 -0.0416
   16TAL    C7821998   0.863   5.969   7.113 -0.9973 -0.0580 -0.2020
   16TAL    C7921999   0.952   6.090   7.125 -1.0072  0.7857 -0.2639
   16TAL    C8022000   1.101   6.057   7.135 -0.0684 -0.7200 -0.3818
   17HTM    C8122001   0.544   5.604   7.490 -0.1785 -1.2577 -0.3957
   17HTM    C8222002   0.456   5.614   7.594 -0.3401 -0.9806 -0.5548
   17HTM    C8322003   0.514   5.672   7.713 -0.5969 -0.4164 -0.6976
   17HTM    C8422004   0.646   5.706   7.699 -0.6310 -0.2632 -0.6475
   17HTM     S922005   0.707   5.668   7.534 -0.3392 -0.8239 -0.4143
   18TAL    C8522006   0.448   5.683   7.851  0.5898 -0.2839  0.5017
   18TAL    C8622007   0.302   5.687   7.890  0.4491  0.2767 -0.0371
   18TAL    C8722008   0.260   5.553   7.952 -0.1763 -0.0472 -0.1917
   18TAL    C8822009   0.117   5.564   7.998  0.2299 -0.3459  0.6977
   18TAL    C8922010  -0.014   5.610   7.911 -0.6127 -0.1411  0.2285
   18TAL    C9022011  -0.120   5.643   8.018  0.4501  0.2523  0.1218
   19HTM    C9122012   0.749   5.762   7.791 -0.1970 -0.0659 -0.1804
   19HTM    C9222013   0.729   5.833   7.906 -0.1309  0.3923 -0.4488
   19HTM    C9322014   0.850   5.879   7.968 -0.0817  0.3980 -0.5492
   19HTM    C9422015   0.963   5.842   7.900 -0.1103 -0.0558 -0.3575
   19HTM    S1022016   0.924   5.747   7.752 -0.2023 -0.5293 -0.0327
   20TAL    C9522017   0.847   5.985   8.087 -0.8802  0.0407  0.1671
   20TAL    C9622018   0.753   5.990   8.211  0.0258  0.2924 -0.3174
   20TAL    C9722019   0.769   6.120   8.277 -0.8506  0.2943  0.4191
   20TAL    C9822020   0.898   6.135   8.364 -0.4871 -0.6976  0.1322
   20TAL    C9922021   0.923   6.037   8.468  0.1160  0.1236  0.1531
   20TAL   C10022022   1.046   6.082   8.536 -1.1801  0.8248  0.7617
   21HTM   C10122023   1.099   5.852   7.941 -0.2174 -0.0765  0.2121
   21HTM   C10222024   1.178   5.742   7.960 -0.3437 -0.0998  0.6120
   21HTM   C10322025   1.307   5.772   8.016 -0.3736 -0.0645  0.6623
   21HTM   C10422026   1.327   5.905   8.039 -0.2700 -0.0147  0.3009
   21HTM    S1122027   1.183   6.003   7.992 -0.1256 -0.0081 -0.1344
   22TAL   C10522028   1.413   5.661   8.019 -0.4506  1.0682 -0.4078
   22TAL   C10622029   1.429   5.575   7.890 -0.1794 -1.2039  0.3712
   22TAL   C10722030   1.540   5.474   7.896 -0.4823  0.6052 -0.8151
   22TAL   C10822031   1.686   5.508   7.881 -0.7195  0.0183 -0.5056
   22TAL   C10922032   1.718   5.598   7.774 -0.1706 -0.2068 -0.3548
   22TAL   C11022033   1.749   5.542   7.634 -0.6509  0.0828  0.4782
   23HTM   C11122034   1.447   5.980   8.079 -0.5451 -0.2638  0.3879
   23HTM   C11222035   1.550   5.951   8.163 -0.2807 -0.5572 -0.0286
   23HTM   C11322036   1.638   6.062   8.188  0.1460 -0.8060 -0.3836
   23HTM   C11422037   1.601   6.176   8.123  0.2070 -0.7023 -0.2377
   23HTM    S1222038   1.452   6.152   8.024 -0.2736 -0.2793  0.3639
   24TAL   C11522039   1.740   6.050   8.299  0.1550 -0.2306  0.4651
   24TAL   C11622040   1.812   5.912   8.322 -0.0085 -0.4806 -0.0438
   24TAL   C11722041   1.939   5.908   8.231  0.0985 -0.1662 -0.1891
   24TAL   C11822042   2.038   5.799   8.272 -0.4786 -1.0873  0.3437
   24TAL   C11922043   1.998   5.658   8.237  0.2495  0.3000 -0.9430
   24TAL   C12022044   2.096   5.547   8.282 -0.6670 -0.0525  0.1794
   25HTM   C12122045   1.640   6.314   8.135 -0.5016 -0.2066  0.3500
   25HTM   C12222046   1.644   6.401   8.030 -0.4084 -0.4221  0.1712
   25HTM   C12322047   1.713   6.524   8.060 -0.0264 -0.5500 -0.1690
   25HTM   C12422048   1.762   6.530   8.187  0.1717 -0.4320 -0.2493
   25HTM    S1322049   1.724   6.380   8.280 -0.1111 -0.1481  0.1006
   26TAL   C12522050   1.725   6.627   7.946 -0.1185  0.0621 -0.8061
   26TAL   C12622051   1.674   6.776   7.979  0.5532 -0.1122 -0.1724
   26TAL   C12722052   1.543   6.802   7.910  1.1995 -0.3789 -0.3906
   26TAL   C12822053   1.464   6.940   7.926 -0.5393  0.5358  0.0012
   26TAL   C12922054   1.530   7.057   7.850  0.2232 -0.8645 -0.9997
   26TAL   C13022055   1.422   7.159   7.820 -0.2698 -1.0325  0.1443
   27HTM   C13122056   1.854   6.615   8.255  0.5716  0.4935 -0.3595
   27HTM   C13222057   1.843   6.749   8.277  0.3815  0.3984  0.1352
   27HTM   C13322058   1.936   6.800   8.375  0.0101  0.0975  0.6545
   27HTM   C13422059   2.019   6.704   8.427 -0.0829 -0.0368  0.5564
   27HTM    S1422060   1.985   6.542   8.356  0.2942  0.2081 -0.2062
   28TAL   C13522061   1.918   6.947   8.413 -1.3341  0.8021 -0.4048
   28TAL   C13622062   1.876   6.982   8.557 -1.0937  1.2748  0.2417
   28TAL   C13722063   1.734   7.031   8.583  0.2237 -0.3469  0.6181
   28TAL   C13822064   1.714   7.059   8.733  0.6998 -0.0629  0.3359
   28TAL   C13922065   1.570   7.070   8.789 -1.2290 -0.4270 -0.4864
   28TAL   C14022066   1.591   7.092   8.940  0.6296  0.0365 -0.6767
   29HTM   C14122067   2.133   6.725   8.516  0.1857 -0.1076 -0.1832
   29HTM   C14222068   2.173   6.626   8.602  0.2247 -0.1433 -0.2420
   29HTM   C14322069   2.270   6.670   8.699  0.1724 -0.1503 -0.1857
   29HTM   C14422070   2.305   6.801   8.687  0.0935 -0.1200 -0.0839
   29HTM    S1522071   2.216   6.881   8.551  0.0791 -0.0798 -0.0512
   30TAL   C14522072   2.351   6.559   8.772 -0.2955 -1.3251 -0.0048
   30TAL   C14622073   2.293   6.439   8.821  0.5722 -0.5279 -1.4516
   30TAL   C14722074   2.387   6.338   8.884  0.6163 -0.0030 -0.1442
   30TAL   C14822075   2.310   6.217   8.926  0.4179  0.5196 -0.3370
   30TAL   C14922076   2.385   6.081   8.958  1.6882 -0.6488  0.2011
   30TAL   C15022077   2.272   5.985   8.978 -0.4371 -0.1566 -0.3359
   31HTM   C15122078   2.398   6.891   8.765 -0.1826  0.2289  0.0174
   31HTM   C15222079   2.485   6.873   8.869  0.1022 -0.1416 -0.2747
   31HTM   C15322080   2.568   6.988   8.895  0.2722 -0.2848 -0.1817
   31HTM   C15422081   2.545   7.093   8.811  0.1169 -0.0235  0.1817
   31HTM    S1622082   2.415   7.055   8.691 -0.2588  0.4271  0.4363
   32TAL   C15522083   2.683   6.970   8.993 -0.5050  0.2153  0.0762
   32TAL   C15622084   2.698   7.071   9.111  0.2875 -0.3275  0.7892
   32TAL   C15722085   2.697   7.015   9.255 -0.8271 -0.6898  0.4307
   32TAL   C15822086   2.831   6.933   9.279 -0.6057 -0.4609  0.4479
   32TAL   C15922087   2.837   6.869   9.421  0.0751 -0.4217  0.5456
   32TAL   C16022088   2.944   6.777   9.428 -0.4258 -0.4998 -0.9952
   33HTM   C16122089   2.589   7.229   8.818 -0.7054 -0.0053  0.0726
   33HTM   C16222090   2.529   7.340   8.869 -0.7694  0.3582 -0.7617
   33HTM   C16322091   2.616   7.454   8.878 -0.6473  0.2855 -0.9980
   33HTM   C16422092   2.743   7.430   8.834 -0.4901 -0.1333 -0.3443
   33HTM    S1722093   2.762   7.260   8.777 -0.4842 -0.4712  0.6284
   34TAL   C16522094   2.571   7.596   8.911 -0.1244  1.2709  0.4209
   34TAL   C16622095   2.477   7.675   8.821 -0.5610 -0.4878 -0.6559
   34TAL   C16722096   2.543   7.734   8.690  0.4480  0.7101 -0.7527
   34TAL   C16822097   2.427   7.803   8.611  0.2530  0.6053 -0.4714
   34TAL   C16922098   2.349   7.921   8.656 -0.4551 -0.7061  0.8087
   34TAL   C17022099   2.282   7.974   8.533  0.2608 -0.2126  0.8379
   35HTM   C17122100   2.870   7.505   8.835  0.6585  0.3530  0.4275
   35HTM   C17222101   2.927   7.581   8.932  1.1221  0.7914 -0.1714
   35HTM   C17322102   3.056   7.635   8.896  0.8305  0.8782 -1.1244
   35HTM   C17422103   3.096   7.600   8.770  0.1447  0.5061 -1.2526
   35HTM    S1822104   2.974   7.496   8.688 -0.1888  0.0134 -0.1710
   36TAL   C17522105   3.131   7.711   8.996  0.4997 -0.6957 -1.0581
   36TAL   C17622106   3.140   7.656   9.134 -0.2200 -0.1345 -0.6479
   36TAL   C17722107   3.242   7.735   9.208  0.5381 -0.0790 -0.4285
   36TAL   C17822108   3.390   7.761   9.165  0.4514  0.4052  0.4378
   36TAL   C17922109   3.470   7.794   9.295 -0.3548  0.2607  0.1621
   36TAL   C18022110   3.611   7.838   9.271 -0.3538  0.2101  0.3936
   37HTM   C18122111   3.218   7.641   8.706  0.4695  0.3569 -0.1138
   37HTM   C18222112   3.234   7.659   8.571  0.3791  1.1408 -0.0296
   37HTM   C18322113   3.365   7.705   8.534  0.2862  1.5725  0.1631
   37HTM   C18422114   3.450   7.722   8.640  0.3057  1.1174  0.2258
   37HTM    S1922115   3.369   7.681   8.796  0.4439  0.1008  0.0449
   38TAL   C18522116   3.397   7.734   8.397  0.9352 -1.3233  0.8669
   38TAL   C18622117   3.331   7.874   8.376  0.1854 -0.9613 -0.1912
   38TAL   C18722118   3.337   7.930   8.235 -0.5262  0.1240  0.3569
   38TAL   C18822119   3.474   7.985   8.175  0.9358  0.1472 -0.1325
   38TAL   C18922120   3.487   7.983   8.026 -0.1913 -0.2828 -1.3603
   38TAL   C19022121   3.619   8.060   7.984 -0.4861 -0.5334 -0.1462
   39HTM   C19122122   3.585   7.767   8.644 -0.2868  0.4290 -0.1502
   39HTM   C19222123   3.632   7.859   8.733 -0.0702  0.4072 -0.2420
   39HTM   C19322124   3.775   7.880   8.724 -0.0035 -0.0094 -0.1993
   39HTM   C19422125   3.836   7.804   8.629 -0.1693 -0.3054 -0.0752
   39HTM    S2022126   3.717   7.700   8.541 -0.4246 -0.0793 -0.0018
   40TAL   C19522127   3.844   7.979   8.820 -0.3253 -0.0981  0.0525
   40TAL   C19622128   3.766   8.021   8.945 -0.2238  1.0225  0.0202
   40TAL   C19722129   3.866   8.053   9.051 -0.3458  0.2570 -0.3501
   40TAL   C19822130   3.946   7.956   9.147  0.7589 -0.3124 -0.5834
   40TAL   C19922131   4.044   8.014   9.242 -1.0066  0.3894 -0.3128
   40TAL   C20022132   4.171   8.075   9.212  0.3945 -0.1599  0.1001
   41HTM   C20122133   3.978   7.789   8.591 -0.0712  0.1902 -0.3832
   41HTM   C20222134   4.047   7.672   8.608 -0.3083  0.0710 -0.2279
   41HTM   C20322135   4.184   7.679   8.567 -0.1737 -0.1379  0.1771
   41HTM   C20422136   4.221   7.802   8.519  0.1664 -0.1782  0.3309
   41HTM    S2122137   4.083   7.918   8.523  0.3440  0.0466 -0.0268
   42TAL   C20522138   4.284   7.565   8.593  0.4273  1.0141 -0.0535
   42TAL   C20622139   4.237   7.419   8.567 -0.0125 -0.2657 -0.3986
   42TAL   C20722140   4.332   7.318   8.644  0.4209 -0.5533 -0.5532
   42TAL   C20822141   4.467   7.300   8.584  0.3677  0.5520  0.2029
   42TAL   C20922142   4.480   7.226   8.453 -0.5424  0.1469  0.7213
   42TAL   C21022143   4.499   7.073   8.458 -0.2908  0.9571 -0.5502
   43HTM   C21122144   4.339   7.853   8.454 -0.0841  0.6045  0.1372
   43HTM   C21222145   4.344   7.936   8.346  0.1214 -0.0049 -0.3390
   43HTM   C21322146   4.475   7.949   8.288  0.1053 -0.8582 -0.5908
   43HTM   C21422147   4.571   7.875   8.351 -0.1124 -0.8993 -0.3067
   43HTM    S2222148   4.502   7.783   8.490 -0.3154  0.1448  0.3057
   44TAL   C21522149   4.470   8.021   8.159 -0.4101 -0.3444  1.3481
   44TAL   C21622150   4.586   8.103   8.103 -1.0007  0.4914 -0.1327
   44TAL   C21722151   4.553   8.177   7.977  0.6231 -0.5190  0.6986
   44TAL   C21822152   4.630   8.311   7.956  0.0433  0.4327 -0.4853
   44TAL   C21922153   4.782   8.333   7.986 -0.7476 -0.1703  0.6231
   44TAL   C22022154   4.861   8.214   7.949 -0.2986 -0.1753  0.1990
   45HTM   C22122155   4.697   7.814   8.306 -0.1838  0.2490 -0.2785
   45HTM   C22222156   4.720   7.685   8.270 -0.2524  0.4313 -1.0128
   45HTM   C22322157   4.860   7.651   8.263 -0.2728  0.3262 -0.9220
   45HTM   C22422158   4.944   7.755   8.293 -0.2197  0.0635 -0.1185
   45HTM    S2322159   4.851   7.904   8.333 -0.1391 -0.0723  0.5914
   46TAL   C22522160   4.899   7.510   8.229  0.3115  0.2370  0.1780
   46TAL   C22622161   4.879   7.466   8.079 -0.5940 -0.4061  0.1920
   46TAL   C22722162   4.909   7.326   8.029  1.0217  0.4560 -0.2323
   46TAL   C22822163   4.859   7.208   8.109 -0.8765  0.0957 -1.0302
   46TAL   C22922164   4.868   7.082   8.034  0.4623 -0.1978 -0.4692
   46TAL   C23022165   4.818   6.956   8.110 -0.3512 -1.2025 -0.5448
   47HTM   C23122166   5.086   7.771   8.294 -0.2771  0.0240  0.1107
   47HTM   C23222167   5.161   7.878   8.334 -0.1104 -0.0013 -0.1335
   47HTM   C23322168   5.302   7.850   8.341 -0.0678  0.0130 -0.8020
   47HTM   C23422169   5.335   7.722   8.306 -0.2023  0.0493 -1.0670
   47HTM    S2422170   5.188   7.626   8.262 -0.3941  0.0684 -0.4893
   48TAL   C23522171   5.412   7.940   8.377  0.4194 -0.3964  0.5633
   48TAL   C23622172   5.393   8.037   8.495  0.2327 -1.1337 -0.1616
   48TAL   C23722173   5.460   8.172   8.448 -0.1917  0.0951 -0.2867
   48TAL   C23822174   5.401   8.242   8.331 -0.1883 -0.4805  0.0799
   48TAL   C23922175   5.250   8.255   8.310  0.0710  0.0510 -0.3474
   48TAL   C24022176   5.179   8.330   8.203 -0.2794  0.4186 -0.0215
    1HTM     C122177   9.742   3.742   1.427  0.0985 -0.1862  0.1853
    1HTM     C222178   9.793   3.868   1.440 -0.6781  0.1783 -0.1889
    1HTM     C322179   9.801   3.914   1.576 -1.1020  0.7074 -0.3333
    1HTM     C422180   9.757   3.823   1.668 -0.6486  0.7462 -0.0691
    1HTM     S122181   9.701   3.671   1.588  0.3562  0.1127  0.3860
    2TAL     C522182   9.839   4.065   1.588 -1.0313  0.6222 -0.7315
    2TAL     C622183   9.869   4.132   1.722  0.0568  0.1207 -1.5264
    2TAL     C722184   9.998   4.080   1.788  0.8467 -1.0317  0.5476
    2TAL     C822185  10.061   4.200   1.829 -0.6225 -1.1066  0.6989
    2TAL     C922186   9.996   4.271   1.947 -0.4106  0.1373 -0.3165
    2TAL    C1022187  10.063   4.410   1.955  0.3073  0.5339  0.2791
    3HTM    C1122188   9.755   3.816   1.819  0.4196 -0.6160 -0.1062
    3HTM    C1222189   9.857   3.838   1.906  0.6243 -1.0200 -0.2375
    3HTM    C1322190   9.824   3.806   2.043  0.6116 -0.7203 -0.1692
    3HTM    C1422191   9.696   3.759   2.059  0.3969 -0.0879  0.0141
    3HTM     S222192   9.608   3.752   1.902  0.1926  0.1802  0.1156
    4TAL    C1522193   9.924   3.823   2.159 -0.7713  0.4258 -0.0814
    4TAL    C1622194  10.077   3.850   2.144 -0.2665  0.8192 -0.6790
    4TAL    C1722195  10.181   3.739   2.173 -0.0387 -0.9784 -0.3111
    4TAL    C1822196  10.184   3.665   2.319 -0.1584 -1.0832  0.9487
    4TAL    C1922197  10.152   3.766   2.439 -1.4125 -0.5944  0.3506
    4TAL    C2022198  10.288   3.816   2.500 -0.5651 -0.2183  0.1365
    5HTM    C2122199   9.621   3.720   2.185 -0.4906  0.8082  0.1629
    5HTM    C2222200   9.509   3.642   2.184 -0.4809  0.7932  0.2018
    5HTM    C2322201   9.476   3.586   2.312 -0.0846  0.2963  0.0913
    5HTM    C2422202   9.563   3.620   2.411  0.2074 -0.0675 -0.0320
    5HTM     S322203   9.694   3.728   2.350  0.0032  0.1912 -0.0179
    6TAL    C2522204   9.350   3.505   2.321  0.3982 -0.4236  0.1609
    6TAL    C2622205   9.212   3.576   2.290  0.0541 -0.1252  0.0553
    6TAL    C2722206   9.086   3.487   2.278 -0.5857  0.5338 -1.4350
    6TAL    C2822207   8.968   3.564   2.216 -0.0140  1.0843 -0.1307
    6TAL    C2922208   8.975   3.562   2.070 -0.4417  0.0657 -0.4010
    6TAL    C3022209   8.838   3.611   2.011 -0.8245  0.0997 -1.2605
    7HTM    C3122210   9.553   3.567   2.547 -0.2791 -0.5247  0.0867
    7HTM    C3222211   9.648   3.598   2.639 -0.0260 -0.6171 -0.1397
    7HTM    C3322212   9.638   3.521   2.761  0.1204 -0.5290 -0.0710
    7HTM    C3422213   9.535   3.432   2.761 -0.0209 -0.3693  0.2079
    7HTM     S422214   9.443   3.438   2.606 -0.3526 -0.3176  0.4067
    8TAL    C3522215   9.717   3.559   2.878 -0.5246 -1.0053 -0.3050
    8TAL    C3622216   9.712   3.699   2.948 -0.1696 -0.0710  0.1034
    8TAL    C3722217   9.731   3.826   2.861  0.2542 -0.3984 -1.0005
    8TAL    C3822218   9.870   3.883   2.835 -0.7470  0.4128  0.7244
    8TAL    C3922219   9.858   3.927   2.685  0.0566  1.6661  0.8587
    8TAL    C4022220   9.787   4.046   2.632  0.0305  0.7671  0.5393
    9HTM    C4122221   9.495   3.344   2.863  0.0369 -0.2811  0.4015
    9HTM    C4222222   9.564   3.271   2.955 -0.3591 -0.0847  0.8672
    9HTM    C4322223   9.481   3.191   3.041 -0.7365  0.1030  0.6803
    9HTM    C4422224   9.347   3.203   3.015 -0.6283  0.0495  0.0719
    9HTM     S522225   9.317   3.317   2.879 -0.0369 -0.2440 -0.3149
   10TAL    C4522226   9.557   3.114   3.143 -0.9942 -0.2316 -0.3257
   10TAL    C4622227   9.546   3.200   3.288  0.3316  0.4264  0.4913
   10TAL    C4722228   9.623   3.144   3.408 -0.6748  0.3890  0.7840
   10TAL    C4822229   9.763   3.083   3.406  0.2175 -0.8096 -0.1972
   10TAL    C4922230   9.837   3.067   3.545  0.2566 -0.1799  0.9062
   10TAL    C5022231   9.739   3.002   3.648  0.1656 -0.2599  0.5801
   11HTM    C5122232   9.228   3.138   3.074 -0.1061  0.0602 -0.0623
   11HTM    C5222233   9.129   3.208   3.138  0.1764 -0.1104  0.5758
   11HTM    C5322234   9.022   3.125   3.188  0.4988 -0.2659  1.0215
   11HTM    C5422235   9.040   2.992   3.162  0.4623 -0.2138  0.7231
   11HTM     S622236   9.193   2.961   3.072  0.0140  0.0377 -0.1506
   12TAL    C5522237   8.904   3.202   3.249  1.3028 -0.0170 -0.0462
   12TAL    C5622238   8.811   3.264   3.149  0.0199 -0.1613 -0.0244
   12TAL    C5722239   8.682   3.326   3.205  0.4834  0.0753  0.2693
   12TAL    C5822240   8.581   3.362   3.097  0.4414  0.0158  0.1856
   12TAL    C5922241   8.454   3.447   3.130 -0.9543  1.0161 -0.8651
   12TAL    C6022242   8.464   3.582   3.208 -0.0165  0.5872 -0.5703
   13HTM    C6122243   8.955   2.887   3.213  1.2240 -0.4328  1.0061
   13HTM    C6222244   8.919   2.885   3.344  1.7035 -0.8374  1.1383
   13HTM    C6322245   8.899   2.752   3.397  1.0498 -0.9797  0.5585
   13HTM    C6422246   8.919   2.653   3.305  0.0715 -0.6834 -0.0156
   13HTM     S722247   8.967   2.720   3.144 -0.1011 -0.1981  0.1323
   14TAL    C6522248   8.840   2.722   3.533  0.0350  0.4979 -0.1188
   14TAL    C6622249   8.940   2.678   3.638 -0.3357  0.0297  0.7330
   14TAL    C6722250   8.901   2.673   3.779 -0.2102 -0.1713 -0.4828
   14TAL    C6822251   8.863   2.811   3.845  0.0781  0.4323  0.3411
   14TAL    C6922252   8.769   2.807   3.961 -0.4457 -0.4381 -0.1406
   14TAL    C7022253   8.744   2.952   4.013  0.5013  0.5979  0.1039
   15HTM    C7122254   8.931   2.516   3.314  0.3620  0.3806 -0.1350
   15HTM    C7222255   8.852   2.419   3.261  0.0074  0.4838  0.1956
   15HTM    C7322256   8.900   2.285   3.285 -0.3548  0.3970  0.4511
   15HTM    C7422257   9.016   2.280   3.357 -0.2768  0.2278  0.3153
   15HTM     S822258   9.074   2.446   3.400  0.2646  0.1642 -0.1494
   16TAL    C7522259   8.837   2.171   3.216  0.2095  0.1464  0.7886
   16TAL    C7622260   8.688   2.161   3.219  0.2733 -1.3215 -0.8016
   16TAL    C7722261   8.626   2.074   3.120  0.5944 -0.0083  0.3849
   16TAL    C7822262   8.470   2.081   3.135 -0.6183  0.3254 -0.3624
   16TAL    C7922263   8.392   2.209   3.090 -0.2230  1.0562  0.4256
   16TAL    C8022264   8.427   2.266   2.951 -0.9316  0.1168 -0.9893
   17HTM    C8122265   9.100   2.173   3.392 -0.0625  0.2373 -0.3864
   17HTM    C8222266   9.124   2.118   3.515 -0.2522  0.7181 -0.1270
   17HTM    C8322267   9.208   2.001   3.510 -0.0541  0.8287  0.4888
   17HTM    C8422268   9.247   1.967   3.384  0.2877  0.4321  0.6987
   17HTM     S922269   9.181   2.081   3.261  0.3853 -0.1159  0.1309
   18TAL    C8522270   9.211   1.902   3.626  0.5376 -0.4515 -0.6279
   18TAL    C8622271   9.085   1.873   3.712  0.7091 -0.3328 -0.1938
   18TAL    C8722272   8.973   1.769   3.666 -0.6049 -0.4433 -0.3249
   18TAL    C8822273   8.920   1.813   3.538 -0.2072  0.4441  0.2273
   18TAL    C8922274   8.837   1.703   3.487  0.4432 -0.2072  0.2289
   18TAL    C9022275   8.886   1.641   3.360 -0.4645 -0.3810  0.2111
   19HTM    C9122276   9.313   1.849   3.328  0.3044  0.6621 -0.0010
   19HTM    C9222277   9.257   1.773   3.230  0.5755  1.3066 -0.6764
   19HTM    C9322278   9.330   1.653   3.201  0.3891  1.2496 -0.9151
   19HTM    C9422279   9.443   1.637   3.277 -0.0242  0.5616 -0.4217
   19HTM    S1022280   9.465   1.774   3.392 -0.2114 -0.0726  0.3890
   20TAL    C9522281   9.255   1.552   3.116  0.2353  0.1849  0.8667
   20TAL    C9622282   9.126   1.582   3.035 -0.7007 -0.2638  1.1289
   20TAL    C9722283   9.044   1.459   3.019  0.8038 -0.2387 -0.4382
   20TAL    C9822284   8.913   1.469   2.944 -0.2813  0.6939 -0.6650
   20TAL    C9922285   8.923   1.499   2.793 -0.6875 -0.6382  0.2402
   20TAL   C10022286   8.793   1.454   2.717  0.0763 -0.6538  0.1761
   21HTM   C10122287   9.543   1.525   3.276  0.0641 -0.3176  0.3974
   21HTM   C10222288   9.611   1.466   3.378  0.3543 -0.4516  0.1290
   21HTM   C10322289   9.692   1.354   3.336  0.4210 -0.2517 -0.2820
   21HTM   C10422290   9.686   1.330   3.202  0.1819  0.0349 -0.3270
   21HTM    S1122291   9.576   1.445   3.118 -0.1485  0.0748  0.1500
   22TAL   C10522292   9.748   1.259   3.439 -0.2404  0.1915  0.2426
   22TAL   C10622293   9.900   1.288   3.474  0.3192  1.1213 -0.4097
   22TAL   C10722294   9.925   1.411   3.567  0.4448 -0.1436  0.5610
   22TAL   C10822295  10.068   1.407   3.616 -0.7720  0.8555  1.2496
   22TAL   C10922296  10.126   1.497   3.715 -0.4368 -0.1477 -0.2530
   22TAL   C11022297  10.211   1.614   3.670  0.0800  0.1897 -0.1699
   23HTM   C11122298   9.751   1.221   3.140  0.5526 -0.3849 -0.2492
   23HTM   C11222299   9.879   1.178   3.158  0.4109 -0.7785 -0.1600
   23HTM   C11322300   9.917   1.071   3.069  0.0748 -1.0557  0.0226
   23HTM   C11422301   9.818   1.033   2.984 -0.0398 -0.8734  0.0727
   23HTM    S1222302   9.668   1.130   3.009  0.2701 -0.3334 -0.1084
   24TAL   C11522303  10.061   1.025   3.075  0.1968 -0.1282 -0.2178
   24TAL   C11622304  10.120   0.970   3.214  0.2224 -0.7393 -0.6764
   24TAL   C11722305  10.067   0.862   3.300  0.0027 -0.5281 -0.0903
   24TAL   C11822306  10.037   0.720   3.240 -0.3637  0.0804 -0.9255
   24TAL   C11922307  10.123   0.657   3.126  0.3641  0.1145 -0.1373
   24TAL   C12022308  10.058   0.514   3.115 -0.5369  0.8426  0.8235
   25HTM   C12122309   9.799   0.927   2.882  0.1362 -0.0755 -0.2603
   25HTM   C12222310   9.684   0.886   2.821  0.2260  0.1851 -0.6079
   25HTM   C12322311   9.701   0.773   2.733  0.2966  0.3640 -0.8278
   25HTM   C12422312   9.829   0.727   2.728  0.2606  0.2398 -0.6480
   25HTM    S1322313   9.939   0.824   2.833  0.1337 -0.1155 -0.1833
   26TAL   C12522314   9.593   0.715   2.638 -0.5681 -0.1522 -0.2547
   26TAL   C12622315   9.503   0.600   2.692 -1.6204 -0.4153  0.1086
   26TAL   C12722316   9.409   0.649   2.789 -0.4070  0.0547  0.7000
   26TAL   C12822317   9.288   0.728   2.763  0.2188 -0.5951  1.0100
   26TAL   C12922318   9.200   0.760   2.887 -0.3998  0.8382  0.1787
   26TAL   C13022319   9.080   0.833   2.840 -0.3397  0.7384  0.3403
   27HTM   C13122320   9.899   0.630   2.648  0.4422 -0.0424  0.2368
   27HTM   C13222321   9.995   0.546   2.695  1.1479  0.2474 -0.6303
   27HTM   C13322322  10.035   0.444   2.602  0.8681  0.5729 -1.1167
   27HTM   C13422323   9.968   0.449   2.484 -0.0510  0.5315 -0.6205
   27HTM    S1422324   9.849   0.585   2.480 -0.6390  0.0744  0.5084
   28TAL   C13522325  10.122   0.330   2.662  0.4320  0.2765  0.8790
   28TAL   C13622326  10.153   0.319   2.811 -0.3446  0.6672  0.0711
   28TAL   C13722327  10.255   0.217   2.865  0.2005 -0.7405  0.0715
   28TAL   C13822328  10.232   0.078   2.800  0.2113 -0.4892  1.4281
   28TAL   C13922329  10.344  -0.022   2.829 -0.3016  0.0931  0.2201
   28TAL   C14022330  10.335  -0.141   2.734 -0.0344 -0.3070 -0.4302
   29HTM   C14122331   9.964   0.358   2.379  0.1804  0.1248 -0.3011
   29HTM   C14222332  10.071   0.313   2.307  0.0925  0.6015 -0.7427
   29HTM   C14322333  10.034   0.236   2.191 -0.0463  0.8590 -0.8709
   29HTM   C14422334   9.900   0.223   2.174 -0.0644  0.5786 -0.5269
   29HTM    S1522335   9.808   0.307   2.305  0.0939 -0.0372 -0.0104
   30TAL   C14522336  10.144   0.176   2.109 -0.8455 -0.3942 -0.2759
   30TAL   C14622337  10.248   0.104   2.202 -0.6477  0.0959 -0.4724
   30TAL   C14722338  10.223  -0.011   2.303 -0.7012  0.0415 -0.2710
   30TAL   C14822339  10.125  -0.119   2.259  0.1767  0.1326 -0.9727
   30TAL   C14922340  10.172  -0.233   2.169  0.7822  0.0056 -0.0560
   30TAL   C15022341  10.056  -0.302   2.098 -0.1252  0.7069  0.3412
   31HTM   C15122342   9.823   0.138   2.084 -0.2011  0.1845  0.1361
   31HTM   C15222343   9.704   0.075   2.107 -0.2134  0.1453 -0.0322
   31HTM   C15322344   9.659  -0.006   1.997  0.1714 -0.1962  0.0568
   31HTM   C15422345   9.743  -0.005   1.890  0.4772 -0.4171  0.2931
   31HTM    S1622346   9.887   0.099   1.920  0.3015 -0.2099  0.4225
   32TAL   C15522347   9.534  -0.085   2.000 -1.0514 -0.3975  0.0841
   32TAL   C15622348   9.403  -0.017   2.040  0.4894 -0.3264  0.3064
   32TAL   C15722349   9.276  -0.103   2.020  0.4619 -0.2306 -0.7449
   32TAL   C15822350   9.157  -0.055   2.104  0.1185 -0.9861 -1.1704
   32TAL   C15922351   9.066  -0.168   2.169  0.1846 -0.7298 -0.2344
   32TAL   C16022352   9.010  -0.292   2.103 -0.0230  0.7593  0.6141
   33HTM   C16122353   9.727  -0.072   1.755 -0.9693  0.9308 -0.3558
   33HTM   C16222354   9.795  -0.034   1.643 -0.9322  1.0448 -0.2950
   33HTM   C16322355   9.770  -0.118   1.529 -0.2480  0.6585 -0.1680
   33HTM   C16422356   9.684  -0.221   1.554  0.2370  0.2502 -0.1319
   33HTM    S1722357   9.626  -0.219   1.725 -0.1363  0.3225 -0.2565
   34TAL   C16522358   9.837  -0.088   1.396  0.2550  0.4645  0.5193
   34TAL   C16622359   9.933  -0.193   1.327 -0.4850 -0.4897 -0.1298
   34TAL   C16722360   9.984  -0.188   1.171 -0.2522  0.6413 -1.1324
   34TAL   C16822361   9.887  -0.155   1.064  0.2610 -0.4347  0.4202
   34TAL   C16922362   9.969  -0.114   0.946 -0.0295 -0.5089 -0.3603
   34TAL   C17022363   9.971  -0.209   0.835  0.0091  0.1738  0.1447
   35HTM   C17122364   9.634  -0.326   1.467 -1.2146  0.0871  0.1501
   35HTM   C17222365   9.580  -0.313   1.343 -1.2054 -0.1030  0.1254
   35HTM   C17322366   9.536  -0.437   1.285 -0.7074 -0.2673  0.0890
   35HTM   C17422367   9.557  -0.545   1.366 -0.3369 -0.2016  0.0857
   35HTM    S1822368   9.634  -0.498   1.522 -0.5902  0.0739  0.1289
   36TAL   C17522369   9.491  -0.439   1.148  0.4231 -0.3139  0.7899
   36TAL   C17622370   9.581  -0.436   1.021 -0.7838 -0.5809  0.0182
   36TAL   C17722371   9.522  -0.425   0.880 -0.1920 -0.1954 -0.4866
   36TAL   C17822372   9.647  -0.389   0.794  0.8182 -0.1064 -0.6870
   36TAL   C17922373   9.651  -0.403   0.647 -0.1549 -0.6203  0.1948
   36TAL   C18022374   9.599  -0.525   0.575  0.0513  0.4944 -0.1875
   37HTM   C18122375   9.516  -0.679   1.351  1.0282 -0.4512 -0.0556
   37HTM   C18222376   9.598  -0.785   1.323  0.6061 -0.8819  0.2962
   37HTM   C18322377   9.530  -0.912   1.323  0.1087 -0.6280  0.8155
   37HTM   C18422378   9.397  -0.904   1.351  0.1520 -0.0038  0.8597
   37HTM    S1922379   9.346  -0.733   1.380  0.8289  0.3141  0.2440
   38TAL   C18522380   9.611  -1.037   1.285 -0.6756  1.2058  0.2360
   38TAL   C18622381   9.706  -1.039   1.153  0.3909  0.2410 -0.1460
   38TAL   C18722382   9.643  -1.116   1.030 -0.3924 -0.0525 -0.2474
   38TAL   C18822383   9.716  -1.067   0.913  0.6048  0.6574 -1.0254
   38TAL   C18922384   9.645  -1.110   0.786  1.1342 -0.3262  0.4532
   38TAL   C19022385   9.710  -1.049   0.664 -0.1704  0.1912 -0.1454
   39HTM   C19122386   9.308  -1.019   1.343 -0.5223 -0.0027 -0.2365
   39HTM   C19222387   9.245  -1.059   1.228 -1.2908  0.2615  0.0784
   39HTM   C19322388   9.192  -1.193   1.236 -1.4188  0.3183  0.1923
   39HTM   C19422389   9.214  -1.254   1.356 -0.7481  0.0975 -0.0358
   39HTM    S2022390   9.304  -1.147   1.469  0.1039 -0.2023 -0.4150
   40TAL   C19522391   9.122  -1.257   1.114  0.5038  0.5566 -0.2906
   40TAL   C19622392   9.170  -1.218   0.970 -0.0938  0.8159  0.4417
   40TAL   C19722393   9.080  -1.278   0.863 -1.1356 -0.0059 -0.5331
   40TAL   C19822394   9.076  -1.423   0.847  0.7014 -1.2588  0.3361
   40TAL   C19922395   8.930  -1.472   0.825 -1.0962  0.1427 -0.5127
   40TAL   C20022396   8.920  -1.620   0.790  0.5924  0.5613  0.2708
   41HTM   C20122397   9.193  -1.391   1.405 -0.4319 -0.1558  0.3341
   41HTM   C20222398   9.274  -1.453   1.494 -0.3078 -0.4900 -0.0089
   41HTM   C20322399   9.236  -1.590   1.522 -0.1087 -0.6852 -0.6650
   41HTM   C20422400   9.126  -1.631   1.453 -0.0808 -0.5004 -0.8224
   41HTM    S2122401   9.060  -1.499   1.348 -0.3058 -0.0614 -0.1489
   42TAL   C20522402   9.329  -1.659   1.626 -0.8148 -0.3254  0.4648
   42TAL   C20622403   9.373  -1.586   1.754 -0.3890 -0.5777  0.1319
   42TAL   C20722404   9.513  -1.535   1.738  0.0173  0.3749  0.3907
   42TAL   C20822405   9.613  -1.507   1.852  0.1995  0.3003 -0.2962
   42TAL   C20922406   9.668  -1.633   1.931  0.2238 -0.5589 -0.2215
   42TAL   C21022407   9.769  -1.590   2.049 -0.4685 -0.3254 -0.4512
   43HTM   C21122408   9.070  -1.763   1.434  0.6399 -0.0580 -0.2952
   43HTM   C21222409   8.957  -1.790   1.363  0.9465  0.3083 -0.9364
   43HTM   C21322410   8.928  -1.930   1.350  0.6039  0.3968 -1.1566
   43HTM   C21422411   9.019  -2.011   1.411  0.0363  0.0983 -0.6832
   43HTM    S2222412   9.149  -1.915   1.491 -0.1111 -0.3213  0.0832
   44TAL   C21522413   8.823  -1.995   1.255 -0.0162  0.2004  0.1832
   44TAL   C21622414   8.797  -1.942   1.105  0.8449 -0.2156 -0.9430
   44TAL   C21722415   8.715  -2.029   1.006 -0.1058  0.0846 -0.2618
   44TAL   C21822416   8.792  -2.155   0.952 -0.1547  0.1150 -0.9872
   44TAL   C21922417   8.699  -2.251   0.897  0.5622 -0.3338  0.1150
   44TAL   C22022418   8.750  -2.252   0.749 -0.0663  0.4990  0.6451
   45HTM   C22122419   9.031  -2.150   1.408 -1.3589  0.8607  1.0092
   45HTM   C22222420   9.033  -2.218   1.289 -0.8962  1.6453  0.5504
   45HTM   C22322421   9.063  -2.358   1.304  0.0918  1.7376 -0.3822
   45HTM   C22422422   9.084  -2.397   1.433  0.3826  1.0233 -0.6345
   45HTM    S2322423   9.067  -2.259   1.547 -0.5762  0.1722  0.2933
   46TAL   C22522424   9.036  -2.452   1.181  0.1299  0.2538 -0.7409
   46TAL   C22622425   8.903  -2.524   1.182 -0.3762  0.4978 -0.5186
   46TAL   C22722426   8.872  -2.610   1.064  0.1615 -0.3072  0.5307
   46TAL   C22822427   8.752  -2.706   1.100 -0.6065 -1.2279  0.7994
   46TAL   C22922428   8.814  -2.839   1.158 -0.8230 -0.0380  0.4616
   46TAL   C23022429   8.896  -2.933   1.063  0.6342  0.5024 -1.1813
   47HTM   C23122430   9.110  -2.534   1.489  0.0217 -0.0365 -0.3335
   47HTM   C23222431   9.058  -2.577   1.608 -0.1035  0.0333 -0.3631
   47HTM   C23322432   9.118  -2.698   1.657 -0.1762  0.0454 -0.2429
   47HTM   C23422433   9.216  -2.747   1.576 -0.1058 -0.0146 -0.1217
   47HTM    S2422434   9.240  -2.644   1.430  0.0586 -0.0923 -0.1502
   48TAL   C23522435   9.085  -2.774   1.778 -0.4697  0.0376  0.3575
   48TAL   C23622436   9.049  -2.688   1.903 -0.1549 -0.1818 -0.2873
   48TAL   C23722437   8.974  -2.773   2.012 -0.9192  0.2170 -0.2563
   48TAL   C23822438   9.048  -2.862   2.114 -0.0903 -1.0509  0.2543
   48TAL   C23922439   8.971  -2.928   2.227 -0.5296 -1.0409  0.1406
   48TAL   C24022440   8.862  -3.015   2.186  0.6434  0.0295 -0.1692
    1HTM     C122441   6.772   9.023   1.264 -0.3158 -0.0881  0.1893
    1HTM     C222442   6.718   8.947   1.363 -0.6770 -0.0412  0.0312
    1HTM     C322443   6.660   8.823   1.317 -0.5292 -0.0529 -0.1245
    1HTM     C422444   6.670   8.805   1.182 -0.0552 -0.1084 -0.0851
    1HTM     S122445   6.754   8.944   1.103  0.2436 -0.1509  0.1536
    2TAL     C522446   6.599   8.726   1.409 -0.1669  0.6342  0.3670
    2TAL     C622447   6.617   8.726   1.557  0.1258 -0.1508 -0.4075
    2TAL     C722448   6.616   8.582   1.619 -0.0148 -0.7642 -0.2077
    2TAL     C822449   6.742   8.498   1.588 -0.1677 -0.3603 -0.0221
    2TAL     C922450   6.843   8.528   1.706 -0.2228  0.4191  0.3520
    2TAL    C1022451   6.962   8.434   1.682  0.0665  1.7531 -0.0057
    3HTM    C1122452   6.611   8.707   1.097  0.1485 -0.0080  0.2572
    3HTM    C1222453   6.630   8.573   1.079  0.0720 -0.0048  0.1472
    3HTM    C1322454   6.546   8.515   0.978  0.2049  0.1719 -0.0654
    3HTM    C1422455   6.463   8.605   0.918  0.3828  0.3035 -0.1174
    3HTM     S222456   6.484   8.771   0.986  0.3961  0.2139  0.0997
    4TAL    C1522457   6.546   8.362   0.928 -0.8751 -1.2409 -0.5686
    4TAL    C1622458   6.617   8.248   1.011  0.6917  0.0297 -0.2767
    4TAL    C1722459   6.554   8.232   1.145 -0.3642  0.1004 -0.6470
    4TAL    C1822460   6.632   8.163   1.268  0.7643 -0.2658  0.2050
    4TAL    C1922461   6.675   8.010   1.270 -0.1553 -1.2779  0.7751
    4TAL    C2022462   6.794   7.980   1.367 -1.0030 -0.0439 -0.0572
    5HTM    C2122463   6.393   8.598   0.780 -0.1552  0.2035 -0.3358
    5HTM    C2222464   6.271   8.550   0.743 -0.1556  0.2608 -0.4073
    5HTM    C2322465   6.254   8.542   0.600  0.0193  0.0296 -0.4171
    5HTM    C2422466   6.362   8.584   0.529  0.1533 -0.2042 -0.3531
    5HTM     S322467   6.496   8.637   0.638  0.0680 -0.1496 -0.2749
    6TAL    C2522468   6.119   8.492   0.544  0.0686  0.5118  0.1559
    6TAL    C2622469   5.998   8.512   0.619  1.0204 -0.9813 -0.6907
    6TAL    C2722470   5.858   8.494   0.549  0.6312  0.3798 -0.2912
    6TAL    C2822471   5.737   8.525   0.633  0.6334 -0.3903  0.1986
    6TAL    C2922472   5.607   8.506   0.557  0.4704 -0.1937 -0.3605
    6TAL    C3022473   5.478   8.540   0.631  0.1314  0.0329 -1.2134
    7HTM    C3122474   6.384   8.593   0.390  0.2377 -0.1726  0.2190
    7HTM    C3222475   6.482   8.524   0.325  1.0103  0.7119  0.4052
    7HTM    C3322476   6.481   8.541   0.182  1.5873  1.2476  0.4530
    7HTM    C3422477   6.381   8.623   0.138  1.2545  0.7712  0.3033
    7HTM     S422478   6.281   8.686   0.275  0.1784 -0.3998  0.0886
    8TAL    C3522479   6.589   8.483   0.098 -0.7126 -0.9647  0.2085
    8TAL    C3622480   6.638   8.528  -0.042  0.4398 -0.5609 -0.4505
    8TAL    C3722481   6.699   8.675  -0.056 -0.0533 -0.1755 -0.0703
    8TAL    C3822482   6.773   8.699  -0.187  0.3626  0.2080 -0.2799
    8TAL    C3922483   6.699   8.705  -0.317 -0.6840  0.5776  1.4366
    8TAL    C4022484   6.774   8.785  -0.423 -1.2091  0.1075  0.0870
    9HTM    C4122485   6.321   8.655   0.007 -0.0848 -0.6087  0.2565
    9HTM    C4222486   6.283   8.778  -0.038 -0.4473 -0.5152  0.7937
    9HTM    C4322487   6.230   8.777  -0.172 -0.5958 -0.1054  0.8452
    9HTM    C4422488   6.228   8.653  -0.229 -0.3468  0.1142  0.3472
    9HTM     S522489   6.293   8.527  -0.117  0.0984 -0.1823 -0.2295
   10TAL    C4522490   6.203   8.912  -0.237  0.6399  0.1157  0.3310
   10TAL    C4622491   6.087   8.942  -0.333 -0.9286 -0.6226  0.6174
   10TAL    C4722492   6.067   9.082  -0.394 -0.9657 -0.3992  0.7230
   10TAL    C4822493   6.209   9.143  -0.438 -0.6811  0.1518 -0.6615
   10TAL    C4922494   6.180   9.286  -0.480  0.2227  0.3669 -1.1058
   10TAL    C5022495   6.270   9.340  -0.590 -0.1063  0.4753 -0.5087
   11HTM    C5122496   6.200   8.609  -0.364  0.6279 -1.6175  0.1939
   11HTM    C5222497   6.271   8.613  -0.480  0.3631 -1.6913  0.0286
   11HTM    C5322498   6.207   8.544  -0.589 -0.5704 -0.5744 -0.1636
   11HTM    C5422499   6.087   8.488  -0.556 -1.0174  0.3507 -0.1448
   11HTM     S622500   6.046   8.517  -0.383 -0.2884 -0.1199  0.1191
   12TAL    C5522501   6.283   8.521  -0.724  0.2747 -0.3946 -0.8325
   12TAL    C5622502   6.426   8.584  -0.738 -0.5706  0.1843 -0.2660
   12TAL    C5722503   6.511   8.496  -0.832 -0.6104  0.1225  0.8374
   12TAL    C5822504   6.507   8.517  -0.986  0.4251  1.0335 -0.3388
   12TAL    C5922505   6.552   8.402  -1.083 -0.5412  0.0504  0.0862
   12TAL    C6022506   6.516   8.391  -1.227  0.1984 -0.2788  0.5263
   13HTM    C6122507   5.991   8.413  -0.635  0.5809 -0.3674 -0.6352
   13HTM    C6222508   5.993   8.299  -0.709  0.0951 -0.4759 -0.4900
   13HTM    C6322509   5.863   8.247  -0.739 -0.1134 -0.3121  0.1163
   13HTM    C6422510   5.761   8.321  -0.686  0.2135 -0.0786  0.4333
   13HTM     S722511   5.823   8.464  -0.595  0.8148 -0.0471 -0.0130
   14TAL    C6522512   5.830   8.123  -0.828  0.5176 -0.3508 -0.4537
   14TAL    C6622513   5.913   8.101  -0.956  0.6306  0.1040 -0.3490
   14TAL    C6722514   5.891   8.173  -1.094  1.4082  0.7738 -0.7100
   14TAL    C6822515   5.878   8.327  -1.075  1.0985  1.2378 -0.1951
   14TAL    C6922516   5.867   8.387  -1.216 -1.1235 -0.5066 -0.6922
   14TAL    C7022517   5.828   8.538  -1.218 -0.4189  0.2615  0.3660
   15HTM    C7122518   5.619   8.288  -0.701  0.0412 -0.8224 -0.7463
   15HTM    C7222519   5.532   8.250  -0.602  0.2785 -1.3192 -0.7215
   15HTM    C7322520   5.394   8.254  -0.642  0.1575 -0.7837 -0.2704
   15HTM    C7422521   5.375   8.295  -0.771 -0.1723  0.1218  0.0484
   15HTM     S822522   5.532   8.332  -0.852 -0.3568  0.3702 -0.1984
   16TAL    C7522523   5.283   8.204  -0.555  1.6775  1.0644 -1.3410
   16TAL    C7622524   5.277   8.072  -0.488 -0.3460  0.3967  0.1634
   16TAL    C7722525   5.291   7.953  -0.586 -0.3607 -0.3517 -0.8465
   16TAL    C7822526   5.439   7.895  -0.568  0.5459 -0.0139 -0.4730
   16TAL    C7922527   5.439   7.750  -0.601 -0.9248  0.2073  0.6902
   16TAL    C8022528   5.422   7.650  -0.481  0.2866  1.4920  0.6970
   17HTM    C8122529   5.250   8.328  -0.836 -0.4449 -0.0984 -0.1004
   17HTM    C8222530   5.192   8.268  -0.944 -0.6328 -0.1371  0.0205
   17HTM    C8322531   5.065   8.324  -0.981 -0.6430 -0.0749  0.1504
   17HTM    C8422532   5.026   8.428  -0.902 -0.4628  0.0113  0.1283
   17HTM     S922533   5.147   8.462  -0.772 -0.2647  0.0208 -0.0594
   18TAL    C8522534   4.964   8.282  -1.082 -0.8916 -0.2620  0.3870
   18TAL    C8622535   4.986   8.151  -1.163  0.0149 -0.2692 -0.7532
   18TAL    C8722536   5.009   8.029  -1.084 -0.3866  1.4483 -0.3373
   18TAL    C8822537   4.897   7.977  -0.995  0.3814 -0.7259 -0.3786
   18TAL    C8922538   4.933   7.849  -0.925 -0.0696  0.2852 -0.1425
   18TAL    C9022539   4.856   7.786  -0.811 -0.0876  0.3825 -0.6671
   19HTM    C9122540   4.934   8.531  -0.932 -0.1533 -0.1691  0.4834
   19HTM    C9222541   4.832   8.564  -0.849 -0.2053  0.0787  0.3209
   19HTM    C9322542   4.778   8.696  -0.873 -0.0445  0.0942  0.0424
   19HTM    C9422543   4.840   8.762  -0.975  0.1303 -0.1416 -0.0071
   19HTM    S1022544   4.972   8.663  -1.048  0.1049 -0.4036  0.2959
   20TAL    C9522545   4.656   8.751  -0.792 -0.5826  0.0892 -0.1743
   20TAL    C9622546   4.508   8.717  -0.836 -0.2256 -0.4967  0.5386
   20TAL    C9722547   4.467   8.748  -0.986  1.1011 -0.4674 -0.6082
   20TAL    C9822548   4.489   8.882  -1.060 -0.2393  0.7961 -1.0954
   20TAL    C9922549   4.454   9.007  -0.978 -1.0694 -0.5086 -0.0994
   20TAL   C10022550   4.493   9.145  -1.043 -0.5300  0.4715 -0.6370
   21HTM   C10122551   4.835   8.900  -1.018  0.8791 -0.1021  0.1163
   21HTM   C10222552   4.859   8.943  -1.146  1.1578 -0.0730  0.1771
   21HTM   C10322553   4.858   9.086  -1.160  0.6688 -0.0784  0.1132
   21HTM   C10422554   4.834   9.153  -1.043  0.0172 -0.1121  0.0033
   21HTM    S1122555   4.810   9.039  -0.906 -0.0296 -0.1396 -0.0279
   22TAL   C10522556   4.908   9.154  -1.288 -0.5326 -0.6722  0.0468
   22TAL   C10622557   5.064   9.145  -1.300  0.5496  0.0237 -0.3715
   22TAL   C10722558   5.129   9.232  -1.421 -0.8104  0.1081 -0.7442
   22TAL   C10822559   5.123   9.376  -1.405  0.4857 -0.4645  0.4384
   22TAL   C10922560   5.234   9.431  -1.314  0.5245  0.4826  0.3777
   22TAL   C11022561   5.184   9.542  -1.229  0.5819  0.3294 -0.3743
   23HTM   C11122562   4.835   9.292  -1.012 -0.5071 -0.1841  0.1131
   23HTM   C11222563   4.756   9.387  -1.070 -0.7530 -0.2544  0.3238
   23HTM   C11322564   4.743   9.507  -0.992 -0.6752 -0.2787  0.3746
   23HTM   C11422565   4.811   9.504  -0.874 -0.3701 -0.2268  0.2024
   23HTM    S1222566   4.898   9.347  -0.852 -0.1555 -0.1423 -0.0393
   24TAL   C11522567   4.682   9.643  -1.040 -0.7793 -0.2070 -0.6224
   24TAL   C11622568   4.532   9.651  -1.079  1.0782 -0.6319 -0.2091
   24TAL   C11722569   4.479   9.797  -1.114  0.3528  0.2074 -0.5889
   24TAL   C11822570   4.535   9.871  -1.232 -0.6385  0.5103  0.1325
   24TAL   C11922571   4.444   9.995  -1.273  0.3983  0.8414  0.0521
   24TAL   C12022572   4.487  10.079  -1.386  0.2556 -0.0320 -0.8486
   25HTM   C12122573   4.839   9.590  -0.759 -0.0094 -0.0991  0.3341
   25HTM   C12222574   4.947   9.594  -0.675  0.1607  0.0124  0.1106
   25HTM   C12322575   4.944   9.705  -0.583  0.2824  0.0589  0.0601
   25HTM   C12422576   4.834   9.784  -0.596  0.2052 -0.0173  0.2452
   25HTM    S1322577   4.725   9.725  -0.727 -0.0291 -0.1547  0.4996
   26TAL   C12522578   5.048   9.709  -0.470 -0.1465 -0.2539 -0.1678
   26TAL   C12622579   5.177   9.623  -0.467  0.2232 -0.3998  0.8834
   26TAL   C12722580   5.254   9.638  -0.338  0.2515 -0.2032 -0.4026
   26TAL   C12822581   5.370   9.550  -0.359 -0.6527  0.3955  1.6716
   26TAL   C12922582   5.495   9.595  -0.301  0.0212 -0.4500  0.6099
   26TAL   C13022583   5.609   9.497  -0.331  0.8635  0.5889 -0.0576
   27HTM   C13122584   4.795   9.910  -0.526  0.4763  0.6089 -0.7117
   27HTM   C13222585   4.673   9.950  -0.480  0.2756  0.2584 -0.9263
   27HTM   C13322586   4.676  10.075  -0.408 -0.0610 -0.1989 -0.0989
   27HTM   C13422587   4.801  10.129  -0.398 -0.1171 -0.1972  0.7466
   27HTM    S1422588   4.925  10.026  -0.480  0.2538  0.3867  0.5621
   28TAL   C13522589   4.547  10.148  -0.372  0.3211  0.0330  0.1134
   28TAL   C13622590   4.518  10.201  -0.238  0.5169 -0.3347 -0.7618
   28TAL   C13722591   4.571  10.120  -0.122 -0.2341  0.0543 -1.3480
   28TAL   C13822592   4.615  10.189   0.019  1.4121  0.5785 -0.7700
   28TAL   C13922593   4.475  10.200   0.086 -0.6098 -0.1725 -0.4706
   28TAL   C14022594   4.476  10.235   0.234 -0.3521 -0.1776  0.2740
   29HTM   C14122595   4.855  10.252  -0.338 -0.4202  0.5344 -0.1574
   29HTM   C14222596   4.791  10.355  -0.276 -0.3170  0.6690 -0.2742
   29HTM   C14322597   4.877  10.467  -0.246 -0.0906  0.4114  0.0572
   29HTM   C14422598   5.006  10.449  -0.285 -0.0213  0.0805  0.4264
   29HTM    S1522599   5.030  10.288  -0.363 -0.2380  0.0683  0.3843
   30TAL   C14522600   4.819  10.591  -0.185 -0.1294 -0.4887 -0.4389
   30TAL   C14622601   4.671  10.583  -0.146  0.2683 -0.7672 -0.0425
   30TAL   C14722602   4.593  10.713  -0.100 -1.3139 -0.0836  0.3883
   30TAL   C14822603   4.573  10.819  -0.206  0.4991 -0.2315  0.6349
   30TAL   C14922604   4.507  10.950  -0.149  0.7804 -0.1479  0.7607
   30TAL   C15022605   4.476  11.066  -0.242 -0.2618  0.7021  0.3249
   31HTM   C15122606   5.118  10.544  -0.272 -0.6742  0.9633 -0.2897
   31HTM   C15222607   5.200  10.587  -0.373 -0.6957  0.7474 -0.4005
   31HTM   C15322608   5.311  10.666  -0.327 -0.0815 -0.0394 -0.4866
   31HTM   C15422609   5.314  10.684  -0.192  0.4083 -0.4234 -0.4412
   31HTM    S1622610   5.175  10.601  -0.111  0.1297  0.1836 -0.2853
   32TAL   C15522611   5.419  10.706  -0.425  0.7983 -1.1098  0.0314
   32TAL   C15622612   5.443  10.850  -0.457  0.0726  0.6265 -1.3201
   32TAL   C15722613   5.354  10.904  -0.564 -0.3234 -0.3588  0.7622
   32TAL   C15822614   5.374  11.051  -0.608 -0.6006 -0.0598  0.9628
   32TAL   C15922615   5.498  11.082  -0.695 -0.1730 -0.0736 -0.0966
   32TAL   C16022616   5.498  11.233  -0.721  0.3209  1.3148  0.2200
   33HTM   C16122617   5.395  10.753  -0.086  0.1045 -0.0782  0.2640
   33HTM   C16222618   5.528  10.781  -0.096  0.1450 -0.3097  0.1543
   33HTM   C16322619   5.583  10.844   0.021  0.3362 -0.3422  0.0823
   33HTM   C16422620   5.492  10.865   0.121  0.4414 -0.1356  0.1373
   33HTM    S1722621   5.329  10.806   0.074  0.3062  0.1182  0.2849
   34TAL   C16522622   5.730  10.891   0.040 -0.3773  1.0516 -0.1539
   34TAL   C16622623   5.826  10.845  -0.078  0.1208  0.0822 -0.2956
   34TAL   C16722624   5.973  10.857  -0.050  0.6610  0.5198 -0.4113
   34TAL   C16822625   6.053  10.856  -0.176 -0.2954 -0.6478  0.0752
   34TAL   C16922626   6.071  11.000  -0.226 -0.1656  0.0139  0.4176
   34TAL   C17022627   6.180  11.084  -0.166 -0.4055 -1.0041  0.1395
   35HTM   C17122628   5.516  10.903   0.267  0.2728  0.7684  0.1951
   35HTM   C17222629   5.418  10.883   0.361  0.3717  0.1203  0.1740
   35HTM   C17322630   5.463  10.901   0.496  0.4839 -0.6894  0.2508
   35HTM   C17422631   5.595  10.934   0.507  0.4700 -0.6587  0.3305
   35HTM    S1822632   5.674  10.945   0.345  0.3133  0.4035  0.3146
   36TAL   C17522633   5.362  10.882   0.614 -0.0515 -0.0947  1.5270
   36TAL   C17622634   5.260  10.772   0.605 -0.1830  0.8162  0.9451
   36TAL   C17722635   5.185  10.726   0.726  0.4564  0.9482 -1.0274
   36TAL   C17822636   5.086  10.824   0.802  0.4971 -0.0887  0.3045
   36TAL   C17922637   4.995  10.904   0.710  0.4377 -0.9675 -0.1939
   36TAL   C18022638   4.921  11.016   0.791 -0.4010 -0.5522  0.2540
   37HTM   C18122639   5.678  10.943   0.629  0.6441 -0.0575  0.1379
   37HTM   C18222640   5.808  10.904   0.642  0.6109  0.0493  0.8953
   37HTM   C18322641   5.855  10.901   0.778 -0.0731  0.4236  1.1469
   37HTM   C18422642   5.760  10.938   0.869 -0.5613  0.6022  0.5813
   37HTM    S1922643   5.604  10.979   0.789 -0.1922  0.3092 -0.3199
   38TAL   C18522644   5.993  10.855   0.803 -0.7493 -0.2308 -0.1281
   38TAL   C18622645   6.097  10.819   0.689 -0.6809 -0.6887 -0.6309
   38TAL   C18722646   6.221  10.750   0.751  0.1982  0.1314  0.6117
   38TAL   C18822647   6.225  10.601   0.774 -0.4834 -0.0031  0.4050
   38TAL   C18922648   6.236  10.501   0.651 -1.1439 -0.1067  0.1101
   38TAL   C19022649   6.209  10.355   0.686  0.3730 -0.7182 -0.5967
   39HTM   C19122650   5.758  10.919   1.012  0.0678 -0.1789  0.0245
   39HTM   C19222651   5.852  10.952   1.105  0.1003 -0.2130  0.0041
   39HTM   C19322652   5.823  10.902   1.237  0.0645 -0.1256  0.0296
   39HTM   C19422653   5.707  10.830   1.244  0.0047 -0.0250  0.0696
   39HTM    S2022654   5.625  10.821   1.083 -0.0111 -0.0329  0.0781
   40TAL   C19522655   5.921  10.933   1.354  0.0038  0.4389 -0.2914
   40TAL   C19622656   6.070  10.935   1.318 -0.4070  0.5054  0.4694
   40TAL   C19722657   6.141  10.914   1.456  0.2165 -0.6989 -0.4225
   40TAL   C19822658   6.296  10.914   1.455  0.6269  0.6641 -0.5675
   40TAL   C19922659   6.354  11.044   1.419  0.0240  0.3235 -0.4077
   40TAL   C20022660   6.506  11.031   1.433  0.0510 -0.1884  0.2905
   41HTM   C20122661   5.646  10.781   1.363 -0.8672 -0.2587 -1.4439
   41HTM   C20222662   5.671  10.670   1.439 -0.4116 -0.4140 -1.8115
   41HTM   C20322663   5.591  10.662   1.558  0.4863 -0.5175 -1.1985
   41HTM   C20422664   5.505  10.767   1.574  0.7156 -0.4412 -0.3634
   41HTM    S2122665   5.519  10.885   1.438 -0.1923 -0.2311 -0.2859
   42TAL   C20522666   5.616  10.556   1.673  0.4977 -0.2122  0.4599
   42TAL   C20622667   5.589  10.414   1.619 -0.2819 -0.5330  0.2413
   42TAL   C20722668   5.434  10.366   1.614  0.2382 -0.7481  0.1393
   42TAL   C20822669   5.359  10.389   1.746  0.1472 -0.1079 -0.1786
   42TAL   C20922670   5.207  10.372   1.732 -0.6440 -0.6450  1.2164
   42TAL   C21022671   5.121  10.399   1.847  0.2191 -0.3875 -1.3339
   43HTM   C21122672   5.407  10.805   1.676  0.5633  0.1250  0.5814
   43HTM   C21222673   5.303  10.890   1.658  0.7780  0.3613  0.4371
   43HTM   C21322674   5.212  10.896   1.770  0.5563  0.4513  0.2559
   43HTM   C21422675   5.248  10.815   1.874  0.1730  0.2836  0.2619
   43HTM    S2222676   5.400  10.724   1.838  0.0609 -0.0032  0.4989
   44TAL   C21522677   5.098  10.990   1.772 -0.2636 -0.1179  0.5279
   44TAL   C21622678   5.136  11.126   1.811  0.5710 -0.3517  0.4169
   44TAL   C21722679   5.019  11.218   1.795 -0.7476  0.1682 -0.7944
   44TAL   C21822680   4.938  11.232   1.913 -0.4780  0.0543 -1.0004
   44TAL   C21922681   4.887  11.378   1.940 -1.3712  0.1922  0.4315
   44TAL   C22022682   4.839  11.389   2.077 -0.9647  0.3485 -0.4611
   45HTM   C22122683   5.182  10.782   2.000  0.1869  0.4717  0.1836
   45HTM   C22222684   5.233  10.725   2.113  0.1969  0.6808  0.2848
   45HTM   C22322685   5.140  10.721   2.223  0.1682  0.7757  0.2646
   45HTM   C22422686   5.018  10.774   2.194  0.1359  0.6390  0.1481
   45HTM    S2322687   5.011  10.834   2.024  0.1397  0.3777  0.0541
   46TAL   C22522688   5.163  10.646   2.352  0.4712  0.1985  0.1080
   46TAL   C22622689   5.129  10.501   2.338  0.2301 -0.2363  1.3246
   46TAL   C22722690   5.138  10.431   2.474  0.7225  0.0507  0.8115
   46TAL   C22822691   5.023  10.465   2.580 -0.5873 -0.3365  0.1188
   46TAL   C22922692   4.883  10.417   2.538 -0.2475 -0.3994 -1.0787
   46TAL   C23022693   4.782  10.503   2.611 -0.7047  0.2633  0.5795
   47HTM   C23122694   4.895  10.808   2.264 -0.3645 -0.0589 -0.9483
   47HTM   C23222695   4.790  10.733   2.309 -0.6083  0.0752 -1.2863
   47HTM   C23322696   4.688  10.811   2.375 -0.4215  0.1328 -1.0595
   47HTM   C23422697   4.715  10.944   2.379 -0.0352  0.0426 -0.5483
   47HTM    S2422698   4.873  10.983   2.301  0.1239 -0.1234 -0.3122
   48TAL   C23522699   4.574  10.748   2.449  0.4749 -0.4104 -0.3778
   48TAL   C23622700   4.435  10.754   2.387  0.0263  0.3278 -0.3096
   48TAL   C23722701   4.362  10.612   2.385  0.1162 -0.3343 -1.0089
   48TAL   C23822702   4.395  10.515   2.506 -0.1265 -0.0419 -1.1058
   48TAL   C23922703   4.302  10.402   2.540 -0.0662  0.9190  0.5064
   48TAL   C24022704   4.168  10.461   2.587 -0.1359  0.6712  0.5312
    1HTM     C122705   8.210   6.368   2.234 -0.4306 -0.1231 -0.4055
    1HTM     C222706   8.209   6.500   2.201 -0.4394 -0.1988 -0.7185
    1HTM     C322707   8.280   6.530   2.079 -0.4313 -0.4803 -0.7846
    1HTM     C422708   8.334   6.421   2.019 -0.4165 -0.6191 -0.5218
    1HTM     S122709   8.300   6.270   2.112 -0.4113 -0.4036 -0.1678
    2TAL     C522710   8.293   6.680   2.034  1.0135 -0.0542  0.5410
    2TAL     C622711   8.417   6.738   2.100  0.2239 -0.0500 -0.0638
    2TAL     C722712   8.409   6.886   2.069 -0.0999 -0.4523  0.1031
    2TAL     C822713   8.504   6.972   2.144  0.2118  0.3536 -0.8165
    2TAL     C922714   8.518   7.101   2.063  0.6062  0.8310 -0.9073
    2TAL    C1022715   8.623   7.193   2.134  0.6435  0.7646  0.2173
    3HTM    C1122716   8.401   6.404   1.889  0.2524 -0.1125 -0.2935
    3HTM    C1222717   8.450   6.507   1.814 -0.0219 -0.0224 -0.3512
    3HTM    C1322718   8.525   6.463   1.699 -0.1409  0.1150 -0.4812
    3HTM    C1422719   8.533   6.328   1.686  0.0425  0.1298 -0.5227
    3HTM     S222720   8.446   6.244   1.820  0.3826 -0.0300 -0.3998
    4TAL    C1522721   8.594   6.559   1.597 -0.2943  1.0888 -0.6040
    4TAL    C1622722   8.706   6.651   1.660 -0.1035  0.5351  0.2930
    4TAL    C1722723   8.694   6.795   1.614 -0.0388  0.1004  0.6138
    4TAL    C1822724   8.742   6.905   1.704  0.0976  0.4086 -0.5176
    4TAL    C1922725   8.679   7.037   1.656 -0.4774  0.2779  0.1810
    4TAL    C2022726   8.689   7.142   1.773  0.1129  0.0766  0.1414
    5HTM    C2122727   8.594   6.237   1.594  0.4184 -0.1644  0.3576
    5HTM    C2222728   8.720   6.186   1.590  0.1280 -0.8907  0.2244
    5HTM    C2322729   8.751   6.115   1.469 -0.3912 -1.0397  0.1765
    5HTM    C2422730   8.647   6.113   1.379 -0.4969 -0.4273  0.2732
    5HTM     S322731   8.503   6.200   1.443  0.0554  0.3919  0.4335
    6TAL    C2522732   8.893   6.074   1.426 -1.6018  0.1339  0.4668
    6TAL    C2622733   9.000   6.183   1.419 -0.2278 -0.0324  0.4621
    6TAL    C2722734   8.962   6.296   1.326 -0.4851 -1.1732  0.5389
    6TAL    C2822735   9.080   6.379   1.282 -0.5427 -0.1015  0.4260
    6TAL    C2922736   9.058   6.463   1.160  0.3368 -0.3534 -0.2992
    6TAL    C3022737   9.191   6.529   1.121 -0.7731 -0.0323 -0.9742
    7HTM    C3122738   8.645   6.068   1.242  0.4986  0.3696 -0.8850
    7HTM    C3222739   8.713   5.982   1.160  0.3674  0.3095 -0.9336
    7HTM    C3322740   8.656   5.968   1.029 -0.2756 -0.3679 -0.5917
    7HTM    C3422741   8.543   6.042   1.010 -0.6351 -0.8242 -0.2825
    7HTM     S422742   8.501   6.137   1.158 -0.1852 -0.4305 -0.4000
    8TAL    C3522743   8.716   5.860   0.939  1.0324 -0.2900 -0.8720
    8TAL    C3622744   8.868   5.854   0.920  0.4258  0.2527  0.5664
    8TAL    C3722745   8.971   5.959   0.935  0.6530 -0.5367  0.1209
    8TAL    C3822746   9.108   5.908   0.957 -1.0571  0.3509 -0.1896
    8TAL    C3922747   9.127   5.816   1.081 -0.1983  0.9358  1.0315
    8TAL    C4022748   9.170   5.883   1.211 -0.7820 -0.0564  0.9900
    9HTM    C4122749   8.480   6.062   0.886  0.4384 -0.0540 -0.7223
    9HTM    C4222750   8.465   6.170   0.804  0.5302 -0.2724 -1.0342
    9HTM    C4322751   8.376   6.148   0.694  0.3622 -0.4565 -0.8627
    9HTM    C4422752   8.323   6.022   0.691  0.1422 -0.3783 -0.4202
    9HTM     S522753   8.382   5.922   0.828  0.1304 -0.0638 -0.1838
   10TAL    C4522754   8.342   6.276   0.610 -0.8072 -0.2777 -1.3916
   10TAL    C4622755   8.446   6.298   0.502 -0.3168 -0.0818 -0.3742
   10TAL    C4722756   8.493   6.448   0.489 -0.1233 -0.4291 -0.5986
   10TAL    C4822757   8.422   6.556   0.583  0.0126  0.7130 -0.2980
   10TAL    C4922758   8.440   6.710   0.568  0.3245  0.9720  0.1332
   10TAL    C5022759   8.374   6.780   0.451 -0.1492  0.3136  0.2914
   11HTM    C5122760   8.221   5.980   0.597 -0.1411  0.1906 -0.3416
   11HTM    C5222761   8.150   5.869   0.630  0.0358  0.0030 -0.5762
   11HTM    C5322762   8.053   5.831   0.531  0.1364  0.0260 -0.6831
   11HTM    C5422763   8.051   5.912   0.421  0.0356  0.2311 -0.5301
   11HTM     S622764   8.172   6.045   0.436 -0.1955  0.4124 -0.2368
   12TAL    C5522765   7.959   5.716   0.554 -0.2872  0.7264  0.3202
   12TAL    C5622766   7.954   5.608   0.667  0.5155 -0.2647 -0.9605
   12TAL    C5722767   8.066   5.511   0.669 -1.2267  1.0789  0.0717
   12TAL    C5822768   8.150   5.475   0.542 -0.1156 -0.4394 -0.3099
   12TAL    C5922769   8.123   5.345   0.476  0.3389 -0.8162  0.6283
   12TAL    C6022770   7.995   5.328   0.384 -0.7481 -0.0090  0.0778
   13HTM    C6122771   7.990   5.883   0.300 -0.3332 -0.5050  0.2002
   13HTM    C6222772   7.859   5.853   0.278 -0.2401 -0.9310  0.2196
   13HTM    C6322773   7.822   5.852   0.139 -0.2126 -1.2609  0.2111
   13HTM    C6422774   7.925   5.883   0.055 -0.2845 -1.0861  0.1852
   13HTM     S722775   8.078   5.914   0.146 -0.3934 -0.4869  0.1695
   14TAL    C6522776   7.678   5.823   0.104 -0.1291 -0.4709  0.1129
   14TAL    C6622777   7.625   5.676   0.085  0.6212  0.8492 -0.1531
   14TAL    C6722778   7.636   5.587   0.209  0.5650  0.3088 -0.3089
   14TAL    C6822779   7.545   5.628   0.319  0.8866  0.9205 -0.5369
   14TAL    C6922780   7.394   5.666   0.295  0.4536  0.1353 -0.1654
   14TAL    C7022781   7.290   5.578   0.223  0.7067  0.0299 -0.1890
   15HTM    C7122782   7.937   5.878  -0.094 -0.3869  1.0099  0.0139
   15HTM    C7222783   8.063   5.869  -0.144 -0.2584  1.1010  0.3169
   15HTM    C7322784   8.068   5.855  -0.288  0.0679  0.4578  0.3808
   15HTM    C7422785   7.945   5.854  -0.347  0.1883 -0.1239  0.1271
   15HTM     S822786   7.813   5.870  -0.225 -0.1032  0.0973 -0.2155
   16TAL    C7522787   8.192   5.809  -0.359 -1.0973 -0.5235  0.0586
   16TAL    C7622788   8.330   5.874  -0.341  0.1115 -0.6629  0.3325
   16TAL    C7722789   8.444   5.783  -0.355  0.6956 -0.1978 -0.6005
   16TAL    C7822790   8.571   5.852  -0.414  0.4363 -0.0697 -0.0929
   16TAL    C7922791   8.648   5.963  -0.343  0.1590  0.0646 -0.4912
   16TAL    C8022792   8.705   5.925  -0.202 -0.5549 -0.7858  0.7561
   17HTM    C8122793   7.910   5.849  -0.485 -0.8325 -0.3645 -0.1597
   17HTM    C8222794   7.879   5.959  -0.559 -1.6260 -0.3855  0.1264
   17HTM    C8322795   7.880   5.935  -0.701 -1.3340  0.0197  0.0577
   17HTM    C8422796   7.913   5.807  -0.735 -0.3181  0.3495 -0.2809
   17HTM     S922797   7.945   5.706  -0.589  0.3541  0.1726 -0.5410
   18TAL    C8522798   7.896   6.046  -0.813 -0.0095 -0.2860 -0.7605
   18TAL    C8622799   7.958   6.183  -0.755  0.6585  0.7122 -0.0932
   18TAL    C8722800   8.106   6.184  -0.796  0.4438  0.2912  0.0671
   18TAL    C8822801   8.187   6.125  -0.686 -0.7028  0.8481  0.4273
   18TAL    C8922802   8.330   6.154  -0.735  0.3380 -0.8075 -0.8921
   18TAL    C9022803   8.428   6.135  -0.623  0.1983 -0.1740  0.3490
   19HTM    C9122804   7.936   5.738  -0.860  0.8513 -0.3086  0.0505
   19HTM    C9222805   8.051   5.738  -0.934  1.0364 -1.2641  0.3140
   19HTM    C9322806   8.043   5.656  -1.052  0.7186 -1.4201  0.4404
   19HTM    C9422807   7.923   5.593  -1.068  0.2907 -0.5839  0.2731
   19HTM    S1022808   7.809   5.634  -0.935  0.2563  0.4741 -0.0593
   20TAL    C9522809   8.158   5.643  -1.141 -0.9127 -0.2077  0.4380
   20TAL    C9622810   8.189   5.766  -1.223 -0.1400 -0.1984  0.0310
   20TAL    C9722811   8.296   5.771  -1.341  0.3044 -0.2812 -0.3999
   20TAL    C9822812   8.308   5.652  -1.432 -0.3150 -0.3503  0.3827
   20TAL    C9922813   8.200   5.599  -1.514 -0.1712  0.3513 -0.7982
   20TAL   C10022814   8.248   5.461  -1.560 -0.6121  0.3688 -0.0321
   21HTM   C10122815   7.875   5.510  -1.176 -0.5364  0.4829 -0.0728
   21HTM   C10222816   7.873   5.375  -1.194 -0.4935  0.4385  0.2365
   21HTM   C10322817   7.801   5.333  -1.311 -0.4632  0.1483  0.3197
   21HTM   C10422818   7.746   5.436  -1.382 -0.4831 -0.0287  0.0740
   21HTM    S1122819   7.783   5.596  -1.306 -0.5419  0.1591 -0.2845
   22TAL   C10522820   7.793   5.185  -1.364 -1.3279 -0.0348  0.7757
   22TAL   C10622821   7.779   5.061  -1.272 -0.0778 -0.3799 -0.7006
   22TAL   C10722822   7.667   5.056  -1.163 -0.8111  0.0893  0.3025
   22TAL   C10822823   7.656   4.938  -1.062 -0.3771  0.2377  0.3587
   22TAL   C10922824   7.771   4.874  -0.984 -0.5049 -0.0119  0.4163
   22TAL   C11022825   7.758   4.765  -0.882 -0.5181 -0.5060 -0.0458
   23HTM   C11122826   7.677   5.449  -1.511 -0.3781  0.1151 -0.4847
   23HTM   C11222827   7.709   5.492  -1.637 -0.3172  0.1525 -0.4573
   23HTM   C11322828   7.602   5.475  -1.732 -0.2638  0.1621 -0.5186
   23HTM   C11422829   7.490   5.419  -1.680 -0.2839  0.1319 -0.5932
   23HTM    S1222830   7.509   5.383  -1.504 -0.3726  0.0887 -0.5917
   24TAL   C11522831   7.614   5.488  -1.880 -0.4861  0.3308 -0.1736
   24TAL   C11622832   7.750   5.485  -1.948  0.8496 -1.0182 -0.1408
   24TAL   C11722833   7.740   5.576  -2.075 -0.3584  0.3685  0.3040
   24TAL   C11822834   7.887   5.615  -2.128  0.6353 -1.3201  0.1913
   24TAL   C11922835   7.878   5.703  -2.255  0.2615  0.0388  0.3659
   24TAL   C12022836   8.014   5.737  -2.303 -0.9226 -0.7246  0.1926
   25HTM   C12122837   7.351   5.397  -1.725 -0.1796  0.2008  0.2865
   25HTM   C12222838   7.267   5.303  -1.671 -0.1696  0.1072  0.1400
   25HTM   C12322839   7.152   5.274  -1.754  0.0045 -0.0194 -0.0592
   25HTM   C12422840   7.149   5.345  -1.870  0.1277 -0.0225 -0.0649
   25HTM    S1322841   7.291   5.455  -1.885  0.0321  0.1356  0.1831
   26TAL   C12522842   7.045   5.180  -1.696  0.7825  0.1389 -0.0448
   26TAL   C12622843   6.960   5.252  -1.577 -0.3164  0.2977  0.1958
   26TAL   C12722844   6.872   5.148  -1.502  0.4210 -0.5695 -0.3166
   26TAL   C12822845   6.758   5.094  -1.582 -0.2099  0.5555 -0.4155
   26TAL   C12922846   6.675   4.988  -1.498 -1.4162  0.3268 -0.0551
   26TAL   C13022847   6.564   4.942  -1.588 -0.1157  0.8491  0.2725
   27HTM   C13122848   7.046   5.352  -1.973 -0.5713  0.4494  0.2447
   27HTM   C13222849   7.057   5.439  -2.077 -0.7730  1.1538  0.7931
   27HTM   C13322850   6.949   5.430  -2.172 -0.7290  1.4741  0.7092
   27HTM   C13422851   6.855   5.336  -2.139 -0.4938  1.0142  0.0966
   27HTM    S1422852   6.897   5.251  -1.986 -0.3084  0.1337 -0.4256
   28TAL   C13522853   6.940   5.517  -2.289  0.3861 -0.3578  0.3061
   28TAL   C13622854   7.059   5.521  -2.377 -0.4251  0.9982  0.6951
   28TAL   C13722855   7.102   5.658  -2.418  0.1008 -0.5207 -0.1182
   28TAL   C13822856   7.189   5.739  -2.316 -0.1695 -0.0858 -0.3973
   28TAL   C13922857   7.188   5.898  -2.318  0.7269 -0.2809 -0.1870
   28TAL   C14022858   7.298   5.964  -2.236 -0.7054  0.1191  0.1005
   29HTM   C14122859   6.741   5.271  -2.211  0.1317  0.5584 -0.2158
   29HTM   C14222860   6.678   5.165  -2.154  0.1551  0.6142 -0.0854
   29HTM   C14322861   6.553   5.132  -2.217  0.1569  0.5165 -0.0371
   29HTM   C14422862   6.521   5.212  -2.322  0.1350  0.3860 -0.1308
   29HTM    S1522863   6.648   5.338  -2.350  0.1100  0.3763 -0.2881
   30TAL   C14522864   6.475   5.009  -2.167 -0.4705  1.6096  0.5104
   30TAL   C14622865   6.534   4.885  -2.091  0.0683 -0.3466  0.2684
   30TAL   C14722866   6.458   4.760  -2.075 -0.8285  0.0749 -0.1756
   30TAL   C14822867   6.314   4.754  -2.042  0.4033 -0.6973 -1.3003
   30TAL   C14922868   6.290   4.816  -1.901 -0.1011 -0.3732 -0.4967
   30TAL   C15022869   6.154   4.852  -1.847 -0.0691 -0.1404 -0.1183
   31HTM   C15122870   6.383   5.221  -2.388  0.0331 -0.4066  0.3968
   31HTM   C15222871   6.311   5.120  -2.445  0.0933 -0.1056 -0.2306
   31HTM   C15322872   6.180   5.160  -2.490  0.3355  0.2544 -0.6349
   31HTM   C15422873   6.152   5.291  -2.467  0.4597  0.2277 -0.3155
   31HTM    S1622874   6.290   5.376  -2.387  0.2792 -0.2579  0.5270
   32TAL   C15522875   6.074   5.058  -2.553 -0.5580  0.3495 -0.3148
   32TAL   C15622876   6.001   4.963  -2.460 -0.1202 -0.0970 -0.7425
   32TAL   C15722877   6.088   4.903  -2.344 -0.2601 -0.3006 -0.4071
   32TAL   C15822878   6.009   4.885  -2.215  0.3208  1.3772 -0.0654
   32TAL   C15922879   5.873   4.798  -2.223 -0.4193 -0.4048  1.1309
   32TAL   C16022880   5.798   4.783  -2.092  1.1500 -0.0116 -0.4870
   33HTM   C16122881   6.038   5.371  -2.498 -0.2948  0.3318  0.0483
   33HTM   C16222882   6.032   5.496  -2.552 -0.8551 -0.0120 -0.7211
   33HTM   C16322883   5.898   5.548  -2.561 -1.0692 -0.5599 -0.8067
   33HTM   C16422884   5.803   5.463  -2.514 -0.6722 -0.6341 -0.1027
   33HTM    S1722885   5.875   5.309  -2.454  0.0083 -0.0126  0.7297
   34TAL   C16522886   5.888   5.686  -2.630 -0.6303  0.6321 -0.7565
   34TAL   C16622887   5.787   5.681  -2.745  0.2609 -0.5617  0.1396
   34TAL   C16722888   5.789   5.606  -2.882 -0.0977 -0.7038  0.5010
   34TAL   C16822889   5.882   5.685  -2.965 -0.2292 -0.9628 -0.3906
   34TAL   C16922890   5.997   5.621  -3.030 -0.8555  0.7490  0.9633
   34TAL   C17022891   6.115   5.548  -2.952 -0.0421 -1.1054  0.6847
   35HTM   C17122892   5.658   5.459  -2.523 -0.1650  0.3484 -0.2730
   35HTM   C17222893   5.579   5.365  -2.583 -0.2096  0.2773 -0.1019
   35HTM   C17322894   5.439   5.402  -2.586 -0.2319  0.2129  0.0776
   35HTM   C17422895   5.413   5.523  -2.530 -0.2043  0.2349  0.0431
   35HTM    S1822896   5.563   5.601  -2.467 -0.1475  0.3396 -0.2205
   36TAL   C17522897   5.333   5.325  -2.667  0.0234 -1.1263  0.3189
   36TAL   C17622898   5.371   5.290  -2.813  0.2046  1.0291  0.5853
   36TAL   C17722899   5.392   5.413  -2.899  0.2224  0.1238 -0.6707
   36TAL   C17822900   5.489   5.384  -3.013 -0.6023 -0.1876 -0.7140
   36TAL   C17922901   5.547   5.502  -3.085 -0.5516 -1.1798  0.2833
   36TAL   C18022902   5.452   5.601  -3.169  0.5275  0.5736 -0.6079
   37HTM   C18122903   5.283   5.596  -2.501 -0.0565 -0.6490 -0.3296
   37HTM   C18222904   5.254   5.657  -2.383  0.4716 -0.0015 -0.5258
   37HTM   C18322905   5.121   5.711  -2.375  0.8245  0.9134 -0.5764
   37HTM   C18422906   5.048   5.691  -2.488  0.5655  0.9633 -0.4184
   37HTM    S1922907   5.142   5.602  -2.614 -0.1496 -0.1501 -0.1920
   38TAL   C18522908   5.082   5.794  -2.247 -0.4426 -0.4219  0.7828
   38TAL   C18622909   5.060   5.733  -2.106 -1.0412 -0.1963 -0.1091
   38TAL   C18722910   4.962   5.619  -2.094 -0.6267 -0.3624  0.4423
   38TAL   C18822911   4.955   5.525  -1.979 -0.5500  0.1831  0.3158
   38TAL   C18922912   4.924   5.568  -1.835  0.3002 -0.1220 -0.0691
   38TAL   C19022913   4.902   5.458  -1.738  0.0804 -0.5546 -0.9073
   39HTM   C19122914   4.909   5.706  -2.520  0.0979  0.2700 -0.2511
   39HTM   C19222915   4.830   5.813  -2.489  0.1655  0.6678 -1.3305
   39HTM   C19322916   4.700   5.809  -2.551  0.2418  0.2316 -1.4685
   39HTM   C19422917   4.681   5.699  -2.630  0.2324 -0.4987 -0.4946
   39HTM    S2022918   4.826   5.592  -2.632  0.1257 -0.6937  0.6820
   40TAL   C19522919   4.597   5.921  -2.533 -0.8521 -0.2938 -0.5598
   40TAL   C19622920   4.597   6.055  -2.611 -0.1950 -0.3489  0.7438
   40TAL   C19722921   4.579   6.047  -2.764 -0.4872 -0.4637 -0.4114
   40TAL   C19822922   4.440   6.062  -2.813  0.6561  0.3862  0.6182
   40TAL   C19922923   4.399   6.044  -2.964 -0.8108 -0.0577 -0.1700
   40TAL   C20022924   4.444   6.170  -3.041 -0.3586  0.4387 -0.0839
   41HTM   C20122925   4.561   5.635  -2.678  0.5786  0.0246 -0.2343
   41HTM   C20222926   4.553   5.558  -2.791  0.4067  0.0671 -0.2513
   41HTM   C20322927   4.418   5.530  -2.832  0.3439  0.0578 -0.0384
   41HTM   C20422928   4.323   5.585  -2.750  0.4677  0.0083  0.1406
   41HTM    S2122929   4.398   5.678  -2.615  0.6750 -0.0306  0.0538
   42TAL   C20522930   4.385   5.463  -2.961  0.9776  0.7613 -0.7385
   42TAL   C20622931   4.460   5.343  -3.010 -0.1978 -0.1299 -0.3428
   42TAL   C20722932   4.441   5.297  -3.155  0.7398  0.2427  0.4565
   42TAL   C20822933   4.442   5.409  -3.269 -0.1156 -0.2148 -0.0053
   42TAL   C20922934   4.404   5.367  -3.405 -0.7354 -0.4003  0.2877
   42TAL   C21022935   4.287   5.277  -3.436 -0.2103  0.4035  0.2434
   43HTM   C21122936   4.174   5.578  -2.749 -0.0354  0.2399  0.1292
   43HTM   C21222937   4.109   5.461  -2.726  0.6009 -0.0057  0.7728
   43HTM   C21322938   3.969   5.478  -2.693  0.5490 -0.5755  0.8676
   43HTM   C21422939   3.929   5.608  -2.691 -0.1269 -0.7642  0.2964
   43HTM    S2222940   4.065   5.720  -2.731 -0.7550 -0.2329 -0.4111
   44TAL   C21522941   3.875   5.354  -2.682  0.4098  0.3664 -0.3706
   44TAL   C21622942   3.857   5.303  -2.532  0.6436 -0.1743 -0.6613
   44TAL   C21722943   3.757   5.181  -2.514  0.5442 -0.5766  0.7349
   44TAL   C21822944   3.741   5.115  -2.381 -0.2758 -0.4869  0.7633
   44TAL   C21922945   3.869   5.075  -2.304  0.3772 -0.1659 -0.5633
   44TAL   C22022946   3.850   5.003  -2.172  0.0467 -0.7711 -1.0152
   45HTM   C22122947   3.806   5.666  -2.658  0.4499 -0.1825 -0.7000
   45HTM   C22222948   3.780   5.758  -2.561  1.3231  0.1864 -0.7994
   45HTM   C22322949   3.642   5.798  -2.554  1.4791  0.6424 -0.0811
   45HTM   C22422950   3.563   5.736  -2.645  0.7250  0.6210  0.5661
   45HTM    S2322951   3.657   5.622  -2.749 -0.2483  0.0186  0.3166
   46TAL   C22522952   3.578   5.878  -2.441 -0.8761  0.1141  0.1354
   46TAL   C22622953   3.598   5.813  -2.295  0.5923 -0.2148  0.6366
   46TAL   C22722954   3.594   5.905  -2.172 -0.0601 -0.2666  0.7414
   46TAL   C22822955   3.702   6.023  -2.157 -0.1658 -0.1657  0.5304
   46TAL   C22922956   3.853   6.000  -2.129  0.2844 -0.6666 -0.3838
   46TAL   C23022957   3.880   5.923  -2.008 -1.1226 -0.9013 -0.0915
   47HTM   C23122958   3.426   5.764  -2.688  0.1188 -0.0977  0.3616
   47HTM   C23222959   3.313   5.706  -2.637  0.1465 -0.0998  0.4199
   47HTM   C23322960   3.191   5.751  -2.699  0.1141 -0.1093  0.4768
   47HTM   C23422961   3.211   5.843  -2.797  0.0617 -0.1141  0.4620
   47HTM    S2422962   3.386   5.881  -2.820  0.0491 -0.1072  0.3741
   48TAL   C23522963   3.060   5.710  -2.652  0.0764 -1.1985 -0.0312
   48TAL   C23622964   3.019   5.588  -2.569 -0.2722 -0.6014  0.9737
   48TAL   C23722965   3.056   5.447  -2.618  0.3103  0.4271 -0.7775
   48TAL   C23822966   3.009   5.379  -2.742  0.2618 -0.5029  1.4565
   48TAL   C23922967   3.027   5.234  -2.754  0.0830 -0.1073  0.1829
   48TAL   C24022968   2.990   5.169  -2.880 -0.3166  0.0309  0.7705
    1HTM     C122969   2.242   3.606   3.007 -0.3055 -0.3107 -0.3594
    1HTM     C222970   2.256   3.707   3.096 -0.1645 -0.5115 -0.1523
    1HTM     C322971   2.276   3.836   3.035  0.1042 -0.4262  0.1096
    1HTM     C422972   2.276   3.833   2.899  0.1682 -0.1606  0.1023
    1HTM     S122973   2.252   3.665   2.837 -0.1082  0.0038 -0.2387
    2TAL     C522974   2.321   3.957   3.126 -0.0367 -0.3267  0.0623
    2TAL     C622975   2.401   3.927   3.254 -0.2526  0.4860  0.5733
    2TAL     C722976   2.464   4.037   3.328 -0.5103 -1.0858 -0.3339
    2TAL     C822977   2.601   3.999   3.394 -0.5594  0.4585  0.2947
    2TAL     C922978   2.671   4.089   3.491 -0.2689 -0.2642  1.4679
    2TAL    C1022979   2.567   4.122   3.605  0.2688  0.6589  0.8969
    3HTM    C1122980   2.278   3.947   2.804 -0.1002 -0.1549  0.4009
    3HTM    C1222981   2.362   4.054   2.815  0.0626 -0.2902  0.4670
    3HTM    C1322982   2.331   4.163   2.726  0.3921 -0.2954  0.3432
    3HTM    C1422983   2.223   4.139   2.646  0.4806 -0.1640  0.1827
    3HTM     S222984   2.152   3.976   2.678  0.1521 -0.0227  0.1754
    4TAL    C1522985   2.397   4.300   2.726 -0.5837  0.3901  0.5955
    4TAL    C1622986   2.402   4.378   2.851 -0.2903 -0.9337  0.5582
    4TAL    C1722987   2.285   4.475   2.899 -0.2537 -0.3430  0.3318
    4TAL    C1822988   2.156   4.401   2.935  0.3877 -0.2731 -0.9456
    4TAL    C1922989   2.046   4.490   2.994 -0.1329 -0.0702  0.3433
    4TAL    C2022990   1.925   4.436   3.077  0.1043  0.3756 -0.0875
    5HTM    C2122991   2.146   4.220   2.550  0.4961 -0.2723 -0.3854
    5HTM    C2222992   2.017   4.193   2.513  0.3252 -0.1258  0.0885
    5HTM    C2322993   1.963   4.287   2.419  0.0798 -0.0600  0.2931
    5HTM    C2422994   2.050   4.386   2.383  0.0634 -0.1561 -0.0249
    5HTM     S322995   2.209   4.367   2.468  0.3592 -0.3388 -0.6119
    6TAL    C2522996   1.818   4.256   2.357 -1.2098 -0.7159  0.1245
    6TAL    C2622997   1.719   4.349   2.315 -0.3315 -1.0197  0.4125
    6TAL    C2722998   1.587   4.278   2.260  0.7115 -1.8944 -0.7544
    6TAL    C2822999   1.496   4.233   2.367  0.7955 -0.8068 -0.7424
    6TAL    C2923000   1.348   4.256   2.330 -0.1344 -0.0690  0.4980
    6TAL    C3023001   1.269   4.358   2.420 -0.0066  0.2198  0.2570
    7HTM    C3123002   2.041   4.506   2.306 -0.4673 -0.2982  0.0519
    7HTM    C3223003   2.047   4.631   2.360 -1.6505 -0.3145  0.2692
    7HTM    C3323004   2.020   4.736   2.265 -1.6629 -0.3684  0.2129
    7HTM    C3423005   1.993   4.691   2.139 -0.4890 -0.3932 -0.0474
    7HTM     S423006   2.001   4.511   2.131  0.7325 -0.3502 -0.2431
    8TAL    C3523007   2.039   4.892   2.300 -0.5002  0.1678 -0.3670
    8TAL    C3623008   2.016   4.928   2.448 -0.2957  0.2442 -0.0564
    8TAL    C3723009   2.103   5.053   2.504  0.6396  0.8906  0.4522
    8TAL    C3823010   2.089   5.176   2.417 -0.2299 -0.4889 -0.4802
    8TAL    C3923011   2.118   5.301   2.508 -0.0139 -0.1406  0.1197
    8TAL    C4023012   2.059   5.413   2.419 -0.6086  0.4501 -0.9117
    9HTM    C4123013   1.937   4.769   2.039 -0.2248 -0.2011  0.0297
    9HTM    C4223014   1.824   4.843   2.022 -0.3831 -0.4733 -0.1152
    9HTM    C4323015   1.818   4.911   1.896 -0.3330 -0.3968 -0.0761
    9HTM    C4423016   1.927   4.890   1.816 -0.1366 -0.0662  0.0985
    9HTM     S523017   2.046   4.780   1.896  0.0016  0.1759  0.2281
   10TAL    C4523018   1.695   4.978   1.838 -0.1634  0.9581 -0.9099
   10TAL    C4623019   1.560   4.893   1.864  0.9828  0.5191 -0.7238
   10TAL    C4723020   1.455   4.949   1.776 -0.4448 -0.1307  0.6350
   10TAL    C4823021   1.325   4.861   1.773  0.0040  0.3696  0.7013
   10TAL    C4923022   1.321   4.710   1.733  0.1341 -1.0279  1.0616
   10TAL    C5023023   1.194   4.685   1.658  0.0629  0.9074  0.4269
   11HTM    C5123024   1.946   4.925   1.679  0.0495 -0.1394 -0.1300
   11HTM    C5223025   1.987   5.042   1.622  0.0763 -0.1304 -0.0927
   11HTM    C5323026   1.980   5.042   1.478  0.1579 -0.1134 -0.0966
   11HTM    C5423027   1.934   4.924   1.426  0.1933 -0.1092 -0.1369
   11HTM     S623028   1.895   4.805   1.555  0.1258 -0.1269 -0.1733
   12TAL    C5523029   2.014   5.160   1.382  0.1118 -0.4581  0.0416
   12TAL    C5623030   2.097   5.288   1.423 -0.0828  0.1951  1.0431
   12TAL    C5723031   2.219   5.261   1.511 -0.2104  0.3915  0.7862
   12TAL    C5823032   2.316   5.373   1.514 -0.3127 -0.1524  0.2533
   12TAL    C5923033   2.446   5.348   1.591 -0.1725  0.8151  0.2898
   12TAL    C6023034   2.532   5.467   1.585 -0.3481  0.5110 -0.7857
   13HTM    C6123035   1.905   4.878   1.296 -0.3030  0.1609 -0.3528
   13HTM    C6223036   1.853   4.943   1.187 -0.9041 -0.2902 -0.3461
   13HTM    C6323037   1.836   4.858   1.072 -0.9184 -0.6218 -0.1024
   13HTM    C6423038   1.875   4.729   1.093 -0.3281 -0.4235  0.0768
   13HTM     S723039   1.936   4.704   1.261  0.2964  0.2023 -0.0494
   14TAL    C6523040   1.766   4.918   0.960 -0.0577 -0.3329  0.0522
   14TAL    C6623041   1.815   4.873   0.822 -0.5135 -0.2911  1.2334
   14TAL    C6723042   1.722   4.911   0.706  0.2319  1.0422 -0.7108
   14TAL    C6823043   1.577   4.835   0.726 -0.4100  0.0300 -0.2753
   14TAL    C6923044   1.493   4.820   0.593  0.1947  0.0769 -1.6213
   14TAL    C7023045   1.544   4.710   0.496 -0.4001 -1.2695 -0.8694
   15HTM    C7123046   1.869   4.610   1.007 -0.2951  0.2731 -0.2901
   15HTM    C7223047   1.758   4.551   0.954 -0.3021  0.3330 -0.3411
   15HTM    C7323048   1.784   4.424   0.891 -0.3490  0.2990 -0.2923
   15HTM    C7423049   1.915   4.386   0.896 -0.3776  0.2133 -0.2041
   15HTM     S823050   2.016   4.508   0.983 -0.3476  0.1685 -0.1757
   16TAL    C7523051   1.682   4.359   0.803 -0.3924  0.0460  0.3992
   16TAL    C7623052   1.549   4.313   0.845  0.3251  0.8362 -0.3297
   16TAL    C7723053   1.532   4.189   0.941 -1.1064 -0.2415  0.4933
   16TAL    C7823054   1.591   4.052   0.901 -0.5306  0.4669 -0.7711
   16TAL    C7923055   1.561   3.953   1.013  0.2624 -1.0422 -0.0985
   16TAL    C8023056   1.615   3.819   0.992 -0.8688 -0.2233  0.8699
   17HTM    C8123057   1.985   4.265   0.841  0.2707  0.1045 -0.1786
   17HTM    C8223058   2.070   4.265   0.734  0.2061  0.3135 -0.2312
   17HTM    C8323059   2.110   4.133   0.692  0.2397  0.3976 -0.4677
   17HTM    C8423060   2.056   4.033   0.767  0.3299  0.2527 -0.5954
   17HTM     S923061   1.949   4.097   0.897  0.3797 -0.0033 -0.4257
   18TAL    C8523062   2.205   4.113   0.576  0.6669  0.8418 -0.8784
   18TAL    C8623063   2.347   4.179   0.564  0.3062  0.0799 -0.0447
   18TAL    C8723064   2.336   4.310   0.494 -0.5198 -0.8126 -0.3834
   18TAL    C8823065   2.440   4.420   0.521 -0.0156  0.3369 -0.4639
   18TAL    C8923066   2.573   4.358   0.488  1.5764 -0.3748  0.8198
   18TAL    C9023067   2.674   4.462   0.481  0.2895  0.0005  0.1158
   19HTM    C9123068   2.057   3.886   0.744 -0.4020 -0.2532 -0.7029
   19HTM    C9223069   1.941   3.814   0.738 -0.1648 -0.6450 -0.6489
   19HTM    C9323070   1.961   3.673   0.715  0.3183 -0.6421 -0.2843
   19HTM    C9423071   2.092   3.638   0.702  0.4495 -0.2481 -0.0603
   19HTM    S1023072   2.201   3.781   0.719 -0.0307  0.1531 -0.2944
   20TAL    C9523073   1.848   3.575   0.702  0.3290 -0.6937  0.1069
   20TAL    C9623074   1.728   3.602   0.607  0.6588  0.2930  0.3269
   20TAL    C9723075   1.697   3.509   0.492 -0.0730  0.8817 -0.1206
   20TAL    C9823076   1.803   3.485   0.382 -0.0551  1.0261 -0.2316
   20TAL    C9923077   1.737   3.383   0.286 -0.1561  0.6171 -0.0536
   20TAL   C10023078   1.828   3.344   0.171  0.4863  0.7956  0.0312
   21HTM   C10123079   2.164   3.516   0.673 -0.2087 -0.0793 -0.3415
   21HTM   C10223080   2.198   3.425   0.769 -0.5306  0.1161 -0.0397
   21HTM   C10323081   2.279   3.316   0.720 -0.4187 -0.0201  0.4412
   21HTM   C10423082   2.307   3.324   0.587 -0.0114 -0.3194  0.5061
   21HTM    S1123083   2.233   3.470   0.512  0.2645 -0.4535 -0.0394
   22TAL   C10523084   2.308   3.200   0.817  0.1967 -0.9758  0.2137
   22TAL   C10623085   2.447   3.135   0.834  0.0955  0.5081 -0.2206
   22TAL   C10723086   2.559   3.243   0.863 -0.8105  0.2644  0.0301
   22TAL   C10823087   2.693   3.181   0.891 -0.0385  0.3939 -0.6130
   22TAL   C10923088   2.767   3.139   0.770  0.1222  0.4202  0.3654
   22TAL   C11023089   2.900   3.061   0.785 -0.4400  0.3370  0.3360
   23HTM   C11123090   2.391   3.251   0.502  0.6397  0.2401  0.1749
   23HTM   C11223091   2.519   3.281   0.466  0.8417 -0.2301  0.4816
   23HTM   C11323092   2.587   3.174   0.398  0.5300 -0.3991  0.4301
   23HTM   C11423093   2.511   3.062   0.382  0.0904 -0.0579  0.0841
   23HTM    S1223094   2.346   3.083   0.451  0.0355  0.5079 -0.2057
   24TAL   C11523095   2.729   3.201   0.353  0.3572  0.1373  0.4956
   24TAL   C11623096   2.816   3.321   0.379  1.1445 -0.5882 -0.0867
   24TAL   C11723097   2.960   3.312   0.344 -0.5306 -0.5768 -0.0817
   24TAL   C11823098   2.982   3.324   0.194  0.6699  0.0813  0.7272
   24TAL   C11923099   3.120   3.347   0.138  0.0228 -0.7086 -1.2827
   24TAL   C12023100   3.148   3.345  -0.003  0.4653 -0.5532  0.0549
   25HTM   C12123101   2.544   2.933   0.323 -0.2253  0.0629  0.1770
   25HTM   C12223102   2.508   2.815   0.381  0.0049  0.0562  0.3100
   25HTM   C12323103   2.563   2.699   0.315  0.0470  0.0795  0.3042
   25HTM   C12423104   2.641   2.729   0.207 -0.1512  0.1038  0.1668
   25HTM    S1323105   2.651   2.908   0.180 -0.4083  0.0994  0.0330
   26TAL   C12523106   2.504   2.560   0.346  0.0374 -0.3622 -0.0780
   26TAL   C12623107   2.364   2.542   0.409  0.5400 -0.0214  0.2006
   26TAL   C12723108   2.348   2.386   0.436 -0.0506 -0.3645  0.6540
   26TAL   C12823109   2.253   2.337   0.550  0.3078  0.1197  0.4102
   26TAL   C12923110   2.272   2.400   0.686 -0.4623  0.2021  0.7309
   26TAL   C13023111   2.409   2.380   0.767  0.2641 -0.0689 -0.6219
   27HTM   C13123112   2.725   2.655   0.118 -0.2764  0.0529  0.2549
   27HTM   C13223113   2.843   2.701   0.066 -0.1556  0.0308  0.5055
   27HTM   C13323114   2.918   2.600  -0.005 -0.1674  0.0910  0.4075
   27HTM   C13423115   2.857   2.478  -0.007 -0.2974  0.1592  0.0823
   27HTM    S1423116   2.700   2.480   0.081 -0.4157  0.1525 -0.1271
   28TAL   C13523117   3.046   2.640  -0.071  1.7832 -0.8485  0.3232
   28TAL   C13623118   3.021   2.723  -0.201 -0.5235 -0.2294 -0.4336
   28TAL   C13723119   3.141   2.797  -0.256 -1.1548  0.6940  0.6299
   28TAL   C13823120   3.109   2.876  -0.380 -0.1971  0.3267  0.2285
   28TAL   C13923121   3.228   2.968  -0.415 -0.4719 -0.0634 -0.2789
   28TAL   C14023122   3.368   2.901  -0.462  0.1627  0.8687 -0.3827
   29HTM   C14123123   2.894   2.350  -0.069 -0.2880 -0.1594  0.1139
   29HTM   C14223124   2.886   2.306  -0.198 -0.3249 -0.1951  0.1283
   29HTM   C14323125   2.941   2.174  -0.218 -0.1225 -0.1079  0.1044
   29HTM   C14423126   2.991   2.118  -0.104  0.0687 -0.0056  0.0714
   29HTM    S1523127   2.973   2.228   0.038  0.0075 -0.0116  0.0682
   30TAL   C14523128   2.955   2.114  -0.349  0.9075  0.6035  0.2154
   30TAL   C14623129   2.821   2.099  -0.435 -0.6187  0.0185 -0.1172
   30TAL   C14723130   2.800   1.972  -0.510  0.6075  1.1739  0.5402
   30TAL   C14823131   2.825   1.835  -0.437  0.3187  0.3210  0.7809
   30TAL   C14923132   2.716   1.807  -0.328 -0.4932 -0.3892  0.2799
   30TAL   C15023133   2.712   1.656  -0.318 -0.7233  0.2817 -0.4319
   31HTM   C15123134   3.029   1.975  -0.077 -0.4567 -0.2348 -0.1147
   31HTM   C15223135   3.066   1.871  -0.157 -0.8984 -0.2861 -0.2611
   31HTM   C15323136   3.099   1.751  -0.084 -0.3285 -0.1873 -0.3476
   31HTM   C15423137   3.087   1.764   0.051  0.5477 -0.0607 -0.2668
   31HTM    S1623138   3.032   1.929   0.098  0.7225 -0.0563 -0.0740
   32TAL   C15523139   3.141   1.633  -0.166 -0.3869  0.8436 -0.1583
   32TAL   C15623140   3.225   1.645  -0.288  0.0351  1.0321 -0.0624
   32TAL   C15723141   3.375   1.683  -0.270  0.3641  0.1642 -0.2248
   32TAL   C15823142   3.476   1.578  -0.211  0.0537 -0.3161  0.1106
   32TAL   C15923143   3.521   1.610  -0.069 -0.1141  0.2349  0.3494
   32TAL   C16023144   3.581   1.490   0.009  0.2999  0.0655  0.4132
   33HTM   C16123145   3.122   1.665   0.157 -1.2481 -0.8815 -0.5250
   33HTM   C16223146   3.143   1.704   0.286 -2.6615 -1.0112 -0.2169
   33HTM   C16323147   3.191   1.598   0.371 -2.3398 -0.8080 -0.1400
   33HTM   C16423148   3.205   1.479   0.308 -0.6811 -0.5234 -0.3894
   33HTM    S1723149   3.160   1.490   0.133  0.6133 -0.4897 -0.7435
   34TAL   C16523150   3.218   1.633   0.521  0.0039  0.3988  0.2898
   34TAL   C16623151   3.128   1.741   0.598 -0.2195  0.2836  0.8793
   34TAL   C16723152   2.975   1.737   0.588 -0.1349  0.1281  0.0740
   34TAL   C16823153   2.906   1.616   0.652  0.3039  0.8059  0.2468
   34TAL   C16923154   2.760   1.589   0.613  0.5606 -0.8409 -0.6959
   34TAL   C17023155   2.663   1.701   0.660  0.2889 -0.6769 -0.1067
   35HTM   C17123156   3.240   1.350   0.362 -0.3457  0.3291 -0.1686
   35HTM   C17223157   3.296   1.306   0.478 -1.1213  0.4552  0.2642
   35HTM   C17323158   3.294   1.162   0.492 -1.4727  0.4831  0.5524
   35HTM   C17423159   3.238   1.097   0.386 -0.9651  0.3784  0.3394
   35HTM    S1823160   3.181   1.213   0.260  0.0037  0.2352 -0.2462
   36TAL   C17523161   3.352   1.107   0.625  0.0473 -0.2656  0.3857
   36TAL   C17623162   3.268   1.100   0.746 -0.4005  0.0918 -0.3348
   36TAL   C17723163   3.152   0.998   0.748  0.7790  0.3357  0.2354
   36TAL   C17823164   3.169   0.910   0.865  0.7790  0.0233 -0.9143
   36TAL   C17923165   3.084   0.782   0.887  0.4256  0.2006  0.3118
   36TAL   C18023166   3.075   0.724   1.033 -0.3864 -0.1209  0.3885
   37HTM   C18123167   3.242   0.960   0.345  0.3131 -0.2583  0.0537
   37HTM   C18223168   3.251   0.842   0.412  0.8000 -0.4121 -0.2727
   37HTM   C18323169   3.250   0.726   0.326  0.9428 -0.1928 -0.5730
   37HTM   C18423170   3.240   0.756   0.194  0.5648  0.1282 -0.4757
   37HTM    S1923171   3.232   0.935   0.167 -0.0055  0.1789  0.0067
   38TAL   C18523172   3.252   0.579   0.372 -0.7231  0.2497  0.7525
   38TAL   C18623173   3.272   0.545   0.510 -0.4782 -0.5170 -0.5670
   38TAL   C18723174   3.428   0.546   0.524 -0.2472  0.6533 -0.5111
   38TAL   C18823175   3.458   0.482   0.665 -0.0976  0.3452 -0.2031
   38TAL   C18923176   3.520   0.589   0.758 -0.6196 -0.1032 -0.4419
   38TAL   C19023177   3.546   0.521   0.893 -0.3490  0.2136  0.4914
   39HTM   C19123178   3.243   0.686   0.071 -0.5264 -0.1240  0.4877
   39HTM   C19223179   3.190   0.727  -0.047 -0.6359  0.0988  0.6123
   39HTM   C19323180   3.213   0.635  -0.156 -0.6500  0.3467  0.3974
   39HTM   C19423181   3.282   0.524  -0.120 -0.5513  0.3130  0.1085
   39HTM    S2023182   3.325   0.526   0.055 -0.4320 -0.0373  0.0858
   40TAL   C19523183   3.191   0.649  -0.302  0.7980 -0.3697 -0.6635
   40TAL   C19623184   3.279   0.756  -0.369 -0.1008  0.4286  0.5016
   40TAL   C19723185   3.436   0.736  -0.364 -0.4867 -0.4447 -0.3928
   40TAL   C19823186   3.525   0.832  -0.439 -0.8214 -0.0017 -0.3781
   40TAL   C19923187   3.512   0.849  -0.588 -0.0814  0.6182  0.0577
   40TAL   C20023188   3.640   0.918  -0.636  0.2139  0.0668  0.0898
   41HTM   C20123189   3.325   0.403  -0.194 -0.2980  0.0722 -0.0795
   41HTM   C20223190   3.377   0.297  -0.127 -0.5122  0.0420  0.0403
   41HTM   C20323191   3.396   0.180  -0.210 -0.2146  0.0902  0.0403
   41HTM   C20423192   3.359   0.199  -0.340  0.2265  0.1572 -0.0795
   41HTM    S2123193   3.296   0.365  -0.368  0.3008  0.1646 -0.2026
   42TAL   C20523194   3.438   0.052  -0.140 -0.0774 -0.8613  0.5758
   42TAL   C20623195   3.581   0.014  -0.172  0.0954 -0.0386  1.2522
   42TAL   C20723196   3.622  -0.127  -0.152  0.2891 -0.0359  0.8835
   42TAL   C20823197   3.770  -0.148  -0.187 -0.3141  0.8200 -0.1094
   42TAL   C20923198   3.828  -0.288  -0.183 -0.2856  1.1151 -0.0717
   42TAL   C21023199   3.976  -0.284  -0.207  0.0620 -0.4273 -0.0035
   43HTM   C21123200   3.367   0.114  -0.453  1.3760  0.5380 -0.8571
   43HTM   C21223201   3.367   0.147  -0.585  1.2938 -0.0401 -1.0092
   43HTM   C21323202   3.353   0.034  -0.673  0.2920 -0.3449 -0.4897
   43HTM   C21423203   3.342  -0.085  -0.608 -0.3896  0.0009  0.0582
   43HTM    S2223204   3.349  -0.064  -0.429  0.1852  0.7438 -0.0403
   44TAL   C21523205   3.334   0.060  -0.816  0.2360  0.5231  1.3174
   44TAL   C21623206   3.192   0.073  -0.865 -0.3623  0.5487  0.3570
   44TAL   C21723207   3.169   0.078  -1.013  0.7425  0.2954 -1.0046
   44TAL   C21823208   3.037   0.043  -1.077 -0.6668  0.2774 -0.5617
   44TAL   C21923209   3.054  -0.006  -1.226 -0.8108 -0.0845 -0.2577
   44TAL   C22023210   2.934   0.017  -1.307  0.9774  0.9236  0.6377
   45HTM   C22123211   3.329  -0.215  -0.671  0.1159 -0.4825  0.5603
   45HTM   C22223212   3.412  -0.323  -0.685 -0.3124 -0.8307  0.6590
   45HTM   C22323213   3.354  -0.431  -0.760 -0.7079 -0.6275  0.6664
   45HTM   C22423214   3.227  -0.406  -0.804 -0.5814 -0.1245  0.5735
   45HTM    S2323215   3.170  -0.243  -0.753  0.0522  0.1335  0.4682
   46TAL   C22523216   3.454  -0.542  -0.789  0.9228  0.1379 -0.8707
   46TAL   C22623217   3.450  -0.674  -0.708 -0.5889 -0.3406 -0.0334
   46TAL   C22723218   3.587  -0.651  -0.636  0.2290  0.5938  0.5961
   46TAL   C22823219   3.645  -0.764  -0.552  0.0462 -1.5323 -0.6160
   46TAL   C22923220   3.563  -0.799  -0.433 -0.3760 -0.6831 -0.0405
   46TAL   C23023221   3.635  -0.848  -0.306 -0.4662 -0.0984  0.9405
   47HTM   C23123222   3.131  -0.493  -0.875  0.1245 -0.0195  0.3378
   47HTM   C23223223   2.995  -0.484  -0.877  0.0678 -0.5400  1.1692
   47HTM   C23323224   2.931  -0.586  -0.955 -0.0147 -0.6659  1.3976
   47HTM   C23423225   3.019  -0.673  -1.014 -0.0209 -0.2415  0.7405
   47HTM    S2423226   3.190  -0.632  -0.974  0.0777  0.3547 -0.2254
   48TAL   C23523227   2.782  -0.612  -0.981 -0.2957 -0.4173 -0.4629
   48TAL   C23623228   2.725  -0.515  -1.082 -0.6402  0.6284 -0.1436
   48TAL   C23723229   2.677  -0.584  -1.203 -0.2566  0.0061  0.5395
   48TAL   C23823230   2.775  -0.596  -1.327  0.5748  0.9814 -0.5944
   48TAL   C23923231   2.851  -0.474  -1.364  0.5101  0.4855  0.4304
   48TAL   C24023232   2.807  -0.438  -1.511 -1.0147  0.3062  0.4759
    1HTM     C123233   5.951   5.843   2.120 -0.1737  0.7115 -0.0605
    1HTM     C223234   5.918   5.768   2.011 -0.1261  0.8605 -0.1781
    1HTM     C323235   6.027   5.750   1.918  0.0461  0.6101  0.0679
    1HTM     C423236   6.142   5.811   1.956  0.1301  0.2704  0.3732
    1HTM     S123237   6.123   5.897   2.114 -0.0030  0.2401  0.3736
    2TAL     C523238   6.018   5.669   1.798  1.2256  1.1553  0.7220
    2TAL     C623239   5.930   5.734   1.691 -0.3274 -0.2649  0.2075
    2TAL     C723240   5.935   5.661   1.558  0.2471 -0.3301 -0.4971
    2TAL     C823241   5.866   5.720   1.436 -0.6129 -0.9418  0.1061
    2TAL     C923242   5.842   5.631   1.316 -0.8060  0.1578 -0.4207
    2TAL    C1023243   5.743   5.512   1.314 -0.0597  0.3618 -0.2372
    3HTM    C1123244   6.279   5.806   1.905 -0.3197 -0.0798 -0.7537
    3HTM    C1223245   6.371   5.906   1.900 -0.6325  0.1875 -1.4993
    3HTM    C1323246   6.499   5.864   1.851 -0.5511  0.2580 -1.3490
    3HTM    C1423247   6.505   5.732   1.817 -0.1762  0.0444 -0.4888
    3HTM     S223248   6.347   5.650   1.847  0.1054 -0.2648  0.2035
    4TAL    C1523249   6.612   5.971   1.851 -0.5663  0.1199 -0.2908
    4TAL    C1623250   6.678   6.014   1.719 -0.1346 -0.0807 -0.1523
    4TAL    C1723251   6.598   6.096   1.632 -0.1838 -0.0433  0.8621
    4TAL    C1823252   6.656   6.148   1.489  0.0248  0.1268 -0.7778
    4TAL    C1923253   6.779   6.234   1.495  0.0659 -0.0331 -0.5571
    4TAL    C2023254   6.825   6.264   1.362  0.2339  0.3659 -0.3143
    5HTM    C2123255   6.608   5.637   1.767  0.4914 -0.5135  0.3385
    5HTM    C2223256   6.627   5.515   1.825  0.9332 -0.4041  0.4320
    5HTM    C2323257   6.739   5.442   1.771  0.9559 -0.2060  0.2094
    5HTM    C2423258   6.806   5.509   1.672  0.5315 -0.1647 -0.0539
    5HTM     S323259   6.731   5.670   1.640  0.0667 -0.3740 -0.0409
    6TAL    C2523260   6.783   5.303   1.815 -0.1567 -0.1882  0.1234
    6TAL    C2623261   6.742   5.255   1.949 -0.2390  0.5168  0.0486
    6TAL    C2723262   6.824   5.320   2.057 -0.3244 -0.7904  0.3296
    6TAL    C2823263   6.800   5.269   2.194 -0.3511  0.7166  0.6282
    6TAL    C2923264   6.879   5.342   2.296 -0.7832 -0.1600  0.5515
    6TAL    C3023265   6.849   5.340   2.442  0.1602 -0.2823 -0.4161
    7HTM    C3123266   6.932   5.476   1.606 -0.1830 -0.2483  0.1507
    7HTM    C3223267   7.063   5.499   1.636 -0.1894 -0.6410  0.5017
    7HTM    C3323268   7.155   5.440   1.542 -0.1346 -0.4293  0.4196
    7HTM    C3423269   7.094   5.371   1.441 -0.0863  0.1247  0.0060
    7HTM     S423270   6.914   5.377   1.457 -0.1068  0.4246 -0.3144
    8TAL    C3523271   7.304   5.457   1.566  0.5717  0.1623 -0.6513
    8TAL    C3623272   7.359   5.587   1.571 -0.3714 -0.2997 -0.2744
    8TAL    C3723273   7.349   5.646   1.433 -0.0496  0.3968  0.7816
    8TAL    C3823274   7.391   5.790   1.439 -0.4757 -0.5279  0.6255
    8TAL    C3923275   7.416   5.876   1.318  0.7309 -0.4226 -0.1927
    8TAL    C4023276   7.340   5.842   1.187 -0.3102  0.1519 -0.5241
    9HTM    C4123277   7.145   5.307   1.318  0.7426 -0.2850  0.2443
    9HTM    C4223278   7.263   5.239   1.306  0.6377 -0.4005 -0.1529
    9HTM    C4323279   7.280   5.175   1.178  0.2117 -0.2908 -0.2676
    9HTM    C4423280   7.176   5.195   1.092 -0.0079 -0.0917  0.0422
    9HTM     S523281   7.047   5.296   1.167  0.3086 -0.0270  0.5064
   10TAL    C4523282   7.382   5.083   1.162 -0.5991 -0.2012  0.4954
   10TAL    C4623283   7.488   5.108   1.055  1.0368  0.1655  0.4082
   10TAL    C4723284   7.626   5.139   1.094 -0.5431 -0.0019 -0.0058
   10TAL    C4823285   7.702   5.168   0.965 -0.0190  0.3164  0.4388
   10TAL    C4923286   7.850   5.210   0.969 -0.9738  0.1494 -0.5474
   10TAL    C5023287   7.928   5.173   0.845  0.6745  0.9494 -0.5740
   11HTM    C5123288   7.124   5.143   0.963  0.4663 -0.1618  0.2626
   11HTM    C5223289   7.158   5.035   0.887  0.2434 -0.4891  0.6202
   11HTM    C5323290   7.072   5.014   0.773  0.1913 -0.7007  0.6969
   11HTM    C5423291   6.973   5.107   0.762  0.3744 -0.5347  0.3977
   11HTM     S623292   6.979   5.228   0.896  0.6289 -0.0948 -0.0072
   12TAL    C5523293   7.107   4.899   0.697 -0.5777  0.7346  1.1462
   12TAL    C5623294   7.034   4.774   0.733  0.6454 -0.5704  0.6978
   12TAL    C5723295   6.986   4.699   0.605 -0.3857 -0.2661  0.3554
   12TAL    C5823296   6.890   4.595   0.623  0.3283 -0.0919 -0.4868
   12TAL    C5923297   6.785   4.566   0.506 -0.0028  0.2703  0.2459
   12TAL    C6023298   6.837   4.539   0.366 -0.0831  1.1904  0.3517
   13HTM    C6123299   6.883   5.131   0.649 -0.1830  0.1358 -0.2129
   13HTM    C6223300   6.857   5.246   0.581 -0.2609  0.1385 -0.1788
   13HTM    C6323301   6.750   5.234   0.484 -0.0286  0.0030 -0.4211
   13HTM    C6423302   6.695   5.110   0.479  0.2266 -0.1031 -0.6399
   13HTM     S723303   6.774   4.997   0.596  0.1930 -0.0395 -0.5563
   14TAL    C6523304   6.729   5.355   0.391  1.1744 -0.3990  0.2732
   14TAL    C6623305   6.663   5.487   0.446 -0.2035 -0.4978 -0.0367
   14TAL    C6723306   6.526   5.456   0.505 -0.3473  0.1912  0.2078
   14TAL    C6823307   6.419   5.554   0.458 -1.4623  0.4415  0.9951
   14TAL    C6923308   6.301   5.536   0.556  0.5126 -0.8165 -1.0792
   14TAL    C7023309   6.312   5.589   0.714 -0.1468 -0.5927 -0.1375
   15HTM    C7123310   6.588   5.057   0.399 -0.1103 -0.2461  0.6096
   15HTM    C7223311   6.591   4.937   0.334 -0.6868 -0.2519  0.5804
   15HTM    C7323312   6.479   4.916   0.247 -0.7144  0.3779  0.4528
   15HTM    C7423313   6.390   5.019   0.245 -0.1592  0.8635  0.3848
   15HTM     S823314   6.442   5.153   0.354  0.4465  0.5608  0.4772
   16TAL    C7523315   6.458   4.780   0.175  0.0232 -0.8064 -0.6580
   16TAL    C7623316   6.544   4.662   0.207 -0.6159  0.2330 -0.1213
   16TAL    C7723317   6.498   4.547   0.126 -0.2169  1.2054  0.1574
   16TAL    C7823318   6.610   4.445   0.106 -0.5585  0.6956 -0.0293
   16TAL    C7923319   6.587   4.294   0.085 -0.7974 -0.4087 -0.4298
   16TAL    C8023320   6.510   4.268  -0.041 -0.5879  0.6579  0.1829
   17HTM    C8123321   6.271   5.035   0.170 -0.1433 -0.3784 -0.4030
   17HTM    C8223322   6.157   5.081   0.229  0.0156 -0.1999 -0.2323
   17HTM    C8323323   6.056   5.123   0.136 -0.0583 -0.0404 -0.0813
   17HTM    C8423324   6.093   5.110   0.005 -0.2737 -0.0972 -0.1368
   17HTM     S923325   6.259   5.042  -0.010 -0.4007 -0.3587 -0.3861
   18TAL    C8523326   5.913   5.161   0.187  0.0771 -0.1804  0.3982
   18TAL    C8623327   5.806   5.050   0.178 -0.3316 -1.5786 -1.4706
   18TAL    C8723328   5.816   4.924   0.259  0.1187  0.0853 -0.2773
   18TAL    C8823329   5.704   4.821   0.223 -0.5377  0.1594 -0.4676
   18TAL    C8923330   5.653   4.744   0.349 -0.8063 -0.0646  0.7252
   18TAL    C9023331   5.575   4.612   0.314  0.0424  0.1488  0.1260
   19HTM    C9123332   6.023   5.143  -0.113  0.5310  0.3843 -0.0911
   19HTM    C9223333   6.014   5.043  -0.205  0.8894  0.3580 -0.0975
   19HTM    C9323334   5.915   5.066  -0.307  0.6890 -0.0628 -0.0014
   19HTM    C9423335   5.848   5.183  -0.293  0.1777 -0.3573  0.0779
   19HTM    S1023336   5.905   5.275  -0.148 -0.0921 -0.1242  0.0375
   20TAL    C9523337   5.904   4.959  -0.425  0.6517 -0.7227  0.4916
   20TAL    C9623338   5.792   4.854  -0.397  0.1720  0.1281  0.2743
   20TAL    C9723339   5.750   4.770  -0.520 -0.5507 -0.0115 -0.0138
   20TAL    C9823340   5.640   4.668  -0.518  0.9220 -1.0050  0.9670
   20TAL    C9923341   5.623   4.563  -0.404 -0.8424 -0.8794 -0.6933
   20TAL   C10023342   5.507   4.468  -0.424 -0.1088 -0.4022 -1.0390
   21HTM   C10123343   5.753   5.256  -0.374 -0.2541  0.3907  0.1362
   21HTM   C10223344   5.749   5.251  -0.511 -0.6911  0.0165  0.1576
   21HTM   C10323345   5.639   5.324  -0.568 -0.9108 -0.1911  0.3097
   21HTM   C10423346   5.559   5.385  -0.476 -0.6413  0.0248  0.4041
   21HTM    S1123347   5.617   5.354  -0.308 -0.0847  0.5110  0.3076
   22TAL   C10523348   5.626   5.330  -0.723 -0.9270  0.4351  0.1514
   22TAL   C10623349   5.750   5.323  -0.811 -0.5458  0.4965  0.3905
   22TAL   C10723350   5.711   5.378  -0.948 -0.0650 -0.6267 -0.3312
   22TAL   C10823351   5.645   5.522  -0.965 -0.8351 -0.5292  1.0481
   22TAL   C10923352   5.535   5.563  -1.068 -0.9372  0.7593  0.4298
   22TAL   C11023353   5.404   5.511  -1.003 -0.3697  0.0530 -0.2295
   23HTM   C11123354   5.450   5.476  -0.504  0.0414  0.6060  0.0504
   23HTM   C11223355   5.415   5.553  -0.611 -0.1601  0.7615  0.2251
   23HTM   C11323356   5.295   5.630  -0.591 -0.3419  0.4314  0.4187
   23HTM   C11423357   5.239   5.612  -0.468 -0.2789  0.0244  0.3917
   23HTM    S1223358   5.333   5.496  -0.368  0.0173  0.0263  0.1172
   24TAL   C11523359   5.233   5.696  -0.706 -0.2194  0.0683  0.6941
   24TAL   C11623360   5.321   5.813  -0.765  0.0730  0.0374 -0.1533
   24TAL   C11723361   5.259   5.909  -0.863  0.7759 -0.2196  0.2358
   24TAL   C11823362   5.176   6.026  -0.796  0.3554  0.5527 -0.0625
   24TAL   C11923363   5.116   6.140  -0.880 -0.2278  0.0714 -0.7477
   24TAL   C12023364   5.083   6.264  -0.804 -1.4959 -0.4819 -0.1453
   25HTM   C12123365   5.132   5.678  -0.407 -0.0586  0.1862  0.2047
   25HTM   C12223366   5.019   5.734  -0.457 -0.0744 -0.0037  0.0257
   25HTM   C12323367   4.924   5.773  -0.355 -0.3498 -0.2637 -0.1264
   25HTM   C12423368   4.966   5.748  -0.228 -0.5443 -0.2721 -0.0635
   25HTM    S1323369   5.129   5.671  -0.226 -0.3930  0.0503  0.1949
   26TAL   C12523370   4.794   5.842  -0.393 -1.3299  0.6032  0.4816
   26TAL   C12623371   4.765   5.996  -0.385 -0.9114  0.7388 -0.3451
   26TAL   C12723372   4.867   6.081  -0.454  0.0566 -0.3499 -0.3970
   26TAL   C12823373   4.787   6.209  -0.481  0.4912 -1.4626  0.7817
   26TAL   C12923374   4.708   6.202  -0.615 -0.0089 -0.7072  0.1682
   26TAL   C13023375   4.610   6.310  -0.653 -0.5121  0.1482 -0.4929
   27HTM   C13123376   4.904   5.778  -0.097 -0.3033 -0.0542  0.3305
   27HTM   C13223377   4.821   5.705  -0.017 -0.9552  0.5805  0.2582
   27HTM   C13323378   4.769   5.780   0.095 -1.2574  1.2544 -0.3161
   27HTM   C13423379   4.811   5.909   0.100 -0.8359  1.1337 -0.6821
   27HTM    S1423380   4.922   5.947  -0.038 -0.0182  0.1519 -0.3263
   28TAL   C13523381   4.675   5.708   0.188  1.0200 -0.6442  0.4992
   28TAL   C13623382   4.732   5.613   0.290  1.0378  0.7249  0.5435
   28TAL   C13723383   4.633   5.533   0.381 -0.6250 -0.0060  0.0925
   28TAL   C13823384   4.677   5.393   0.426  1.1633  0.6194 -1.1575
   28TAL   C13923385   4.815   5.373   0.478 -0.3849 -0.0157 -0.3820
   28TAL   C14023386   4.833   5.417   0.626  0.3132 -0.1178  0.5655
   29HTM   C14123387   4.764   6.018   0.187 -0.0706 -0.0931  0.1700
   29HTM   C14223388   4.760   6.149   0.149  0.3660  0.0286  0.5262
   29HTM   C14323389   4.699   6.236   0.247  0.5236 -0.0539  0.6992
   29HTM   C14423390   4.656   6.170   0.359  0.2069 -0.2381  0.4749
   29HTM    S1523391   4.691   5.994   0.350 -0.3188 -0.3230  0.0243
   30TAL   C14523392   4.696   6.382   0.215  0.8071 -1.9965 -0.3320
   30TAL   C14623393   4.563   6.434   0.152  0.6617  0.1149 -0.4728
   30TAL   C14723394   4.597   6.540   0.046 -0.0714  0.4316 -0.2220
   30TAL   C14823395   4.468   6.560  -0.033 -0.1377 -1.4446 -0.4155
   30TAL   C14923396   4.452   6.715  -0.066  0.4415  0.0987 -0.4560
   30TAL   C15023397   4.316   6.763  -0.076  0.4316 -0.9933 -0.1364
   31HTM   C15123398   4.581   6.221   0.470 -0.4269 -0.4269 -0.5514
   31HTM   C15223399   4.627   6.241   0.597  0.3743 -0.0137 -0.8947
   31HTM   C15323400   4.527   6.292   0.687  1.0382  0.6514 -0.5121
   31HTM   C15423401   4.405   6.310   0.629  0.7432  0.7456  0.1230
   31HTM    S1623402   4.407   6.264   0.455 -0.4046 -0.0044  0.2883
   32TAL   C15523403   4.542   6.305   0.833 -1.0677  0.7680 -0.9749
   32TAL   C15623404   4.631   6.419   0.875 -0.0992 -0.5335  0.0928
   32TAL   C15723405   4.674   6.446   1.021  0.6284  0.5040 -0.4364
   32TAL   C15823406   4.744   6.571   1.050  0.2145 -0.3645 -0.9438
   32TAL   C15923407   4.859   6.619   0.965 -0.4161 -0.1425 -0.3501
   32TAL   C16023408   4.912   6.751   0.995  0.2632 -0.2832  0.1850
   33HTM   C16123409   4.272   6.345   0.681 -0.0748  0.2714 -0.0879
   33HTM   C16223410   4.148   6.314   0.632 -0.1954 -0.0243  0.3915
   33HTM   C16323411   4.040   6.356   0.718  0.0300 -0.1355  0.7339
   33HTM   C16423412   4.081   6.418   0.832  0.3224  0.0755  0.5155
   33HTM    S1723413   4.261   6.430   0.840  0.3357  0.4338 -0.1446
   34TAL   C16523414   3.896   6.326   0.672  0.7745 -0.5082 -0.3310
   34TAL   C16623415   3.828   6.193   0.660  0.6460  0.3319  0.1999
   34TAL   C16723416   3.805   6.117   0.797 -0.8588 -0.9943  0.3856
   34TAL   C16823417   3.723   5.985   0.808 -0.9884  0.0533 -0.7101
   34TAL   C16923418   3.713   5.943   0.957  0.1252  0.2026 -0.2335
   34TAL   C17023419   3.656   5.796   0.959  0.6574  1.0435  0.6189
   35HTM   C17123420   4.008   6.498   0.929 -0.2661 -0.4465 -0.1287
   35HTM   C17223421   4.012   6.632   0.955 -0.3457 -0.2508 -1.0702
   35HTM   C17323422   3.935   6.672   1.069 -0.2036  0.4829 -1.2203
   35HTM   C17423423   3.871   6.569   1.131 -0.0156  0.8462 -0.3933
   35HTM    S1823424   3.904   6.411   1.049 -0.0036  0.2862  0.6473
   36TAL   C17523425   3.933   6.808   1.123  0.2847 -0.0197 -0.8088
   36TAL   C17623426   3.867   6.926   1.047  0.8727  0.4892  0.8512
   36TAL   C17723427   3.753   7.002   1.125 -0.3721 -0.4172  0.9444
   36TAL   C17823428   3.607   6.986   1.064  0.1195 -0.9572 -0.0562
   36TAL   C17923429   3.512   7.105   1.083 -0.2135  0.1646  0.0147
   36TAL   C18023430   3.368   7.066   1.042 -0.4600 -1.0425 -0.5625
   37HTM   C18123431   3.803   6.555   1.260  0.5992 -0.8323 -0.3045
   37HTM   C18223432   3.843   6.599   1.383  0.7877 -1.3719 -0.1647
   37HTM   C18323433   3.735   6.615   1.477  0.8154 -0.9816 -0.1940
   37HTM   C18423434   3.613   6.582   1.426  0.6480 -0.1444 -0.3563
   37HTM    S1923435   3.625   6.529   1.254  0.4409  0.2190 -0.4855
   38TAL   C18523436   3.774   6.667   1.615 -0.4249  0.9022  0.0591
   38TAL   C18623437   3.838   6.810   1.643 -0.0104  0.4448  0.4305
   38TAL   C18723438   3.777   6.929   1.553 -0.3581  0.7955  0.0251
   38TAL   C18823439   3.648   6.972   1.623  0.5080 -0.1629  0.8226
   38TAL   C18923440   3.524   7.002   1.554 -0.3226  0.6362  0.3033
   38TAL   C19023441   3.535   7.119   1.459 -0.1703  0.7520  1.0229
   39HTM   C19123442   3.483   6.603   1.487 -0.3105  0.2857  0.1706
   39HTM   C19223443   3.380   6.675   1.433 -0.6023 -0.0159  0.3195
   39HTM   C19323444   3.269   6.693   1.523 -0.5227 -0.3340  0.4860
   39HTM   C19423445   3.287   6.636   1.645 -0.1702 -0.2751  0.4640
   39HTM    S2023446   3.447   6.553   1.657  0.0907  0.1905  0.2294
   40TAL   C19523447   3.148   6.768   1.491  1.1950 -0.3356 -1.1038
   40TAL   C19623448   3.117   6.886   1.387 -0.1266 -0.1143 -0.3349
   40TAL   C19723449   2.985   6.959   1.373 -0.4892  0.0596 -0.6572
   40TAL   C19823450   2.995   7.030   1.244  0.9151 -1.1151  0.1629
   40TAL   C19923451   2.873   7.124   1.219 -0.5243 -0.6806 -0.9178
   40TAL   C20023452   2.895   7.188   1.083 -0.4937  0.8668  0.4456
   41HTM   C20123453   3.206   6.621   1.766  0.4020 -1.0291  0.0555
   41HTM   C20223454   3.213   6.690   1.883  1.3580 -1.5852  0.3466
   41HTM   C20323455   3.106   6.659   1.975  1.3160 -1.0064  0.4986
   41HTM   C20423456   3.018   6.567   1.927  0.3277 -0.0089  0.3234
   41HTM    S2123457   3.063   6.512   1.762 -0.6338  0.2789 -0.0501
   42TAL   C20523458   3.086   6.741   2.104 -0.0329  0.5568 -0.0446
   42TAL   C20623459   3.189   6.690   2.209 -1.2168  0.5440  0.9344
   42TAL   C20723460   3.166   6.740   2.353  0.3407 -0.9731  0.3746
   42TAL   C20823461   3.068   6.674   2.455  0.2939 -0.2835  0.0433
   42TAL   C20923462   2.923   6.719   2.435  0.1165  0.2417  0.1085
   42TAL   C21023463   2.825   6.660   2.532  0.6742 -0.1512  1.0747
   43HTM   C21123464   2.905   6.499   1.985 -0.5881 -0.3302 -0.1523
   43HTM   C21223465   2.810   6.424   1.922 -0.8436 -0.2160  0.0912
   43HTM   C21323466   2.714   6.365   2.012 -0.5479 -0.2890  0.3642
   43HTM   C21423467   2.735   6.395   2.143 -0.0671 -0.4587  0.3287
   43HTM    S2223468   2.880   6.501   2.164  0.0507 -0.5404 -0.0552
   44TAL   C21523469   2.599   6.279   1.955 -0.3947 -0.3168 -0.5146
   44TAL   C21623470   2.547   6.150   2.021 -0.9005 -0.1540  0.2332
   44TAL   C21723471   2.456   6.058   1.944  0.1324  0.5938  0.6230
   44TAL   C21823472   2.526   6.002   1.819 -0.2426 -0.2727 -0.1074
   44TAL   C21923473   2.468   5.874   1.769 -0.4106  0.1576  0.1634
   44TAL   C22023474   2.558   5.808   1.669 -0.4276 -0.4686  0.5172
   45HTM   C22123475   2.657   6.357   2.259 -0.2063  0.0002  0.0640
   45HTM   C22223476   2.675   6.258   2.351 -0.4236  0.1011  0.2154
   45HTM   C22323477   2.589   6.270   2.466 -0.4336  0.4382  0.1752
   45HTM   C22423478   2.505   6.378   2.461 -0.2238  0.5945 -0.0068
   45HTM    S2323479   2.529   6.473   2.310  0.0043  0.3258 -0.1425
   46TAL   C22523480   2.610   6.176   2.592 -0.5665  0.0673  0.1800
   46TAL   C22623481   2.725   6.203   2.689  0.9942 -0.7692 -0.1585
   46TAL   C22723482   2.704   6.114   2.813 -0.0793  0.8843  0.2657
   46TAL   C22823483   2.805   6.149   2.933  0.1311  0.7155  1.0737
   46TAL   C22923484   2.817   6.037   3.044 -0.1097  0.0795  0.6829
   46TAL   C23023485   2.868   6.069   3.173  0.9338 -0.3886  0.0092
   47HTM   C23123486   2.412   6.423   2.563 -0.3251 -0.3672 -0.2933
   47HTM   C23223487   2.282   6.454   2.535 -0.3056 -0.4591 -0.4936
   47HTM   C23323488   2.205   6.487   2.652 -0.4399 -0.2462 -0.6427
   47HTM   C23423489   2.276   6.482   2.768 -0.5618  0.0081 -0.5559
   47HTM    S2423490   2.447   6.435   2.739 -0.5161 -0.0019 -0.2772
   48TAL   C23523491   2.056   6.515   2.645 -0.0545  0.1826  0.2417
   48TAL   C23623492   1.972   6.531   2.773 -0.1516 -0.1039  0.4049
   48TAL   C23723493   2.013   6.652   2.854 -0.6838 -0.1122 -2.1812
   48TAL   C23823494   1.956   6.651   2.998 -1.3352  1.0303 -0.1026
   48TAL   C23923495   2.052   6.560   3.084  0.6354 -0.0508 -1.7731
   48TAL   C24023496   2.031   6.580   3.232  0.9369  0.4332 -0.0325
    1HTM     C123497   9.008   5.252   5.775  0.0408 -0.0925  0.3510
    1HTM     C223498   8.964   5.124   5.791  0.0243 -0.1011  0.2377
    1HTM     C323499   8.925   5.093   5.926 -0.1397 -0.1652  0.1749
    1HTM     C423500   8.938   5.197   6.013 -0.2477 -0.2056  0.2403
    1HTM     S123501   9.002   5.344   5.931 -0.1508 -0.1653  0.3873
    2TAL     C523502   8.875   4.961   5.965 -0.1375 -0.6875  0.0993
    2TAL     C623503   8.883   4.833   5.881  0.0749 -1.3662  0.6961
    2TAL     C723504   9.033   4.791   5.885 -0.2566  0.0999 -0.0304
    2TAL     C823505   9.083   4.698   5.766 -0.0482 -0.5206 -0.6528
    2TAL     C923506   9.066   4.761   5.628 -0.2034  0.8874 -0.5632
    2TAL    C1023507   9.156   4.686   5.525  0.9870  1.2539 -0.3199
    3HTM    C1123508   8.945   5.194   6.158  0.3175 -0.1413  0.2499
    3HTM    C1223509   9.045   5.231   6.242  0.1869 -0.0200  0.3520
    3HTM    C1323510   9.010   5.220   6.382  0.1001 -0.1825  0.3185
    3HTM    C1423511   8.883   5.175   6.403  0.1644 -0.4273  0.1912
    3HTM     S223512   8.798   5.142   6.248  0.3415 -0.4723  0.1028
    4TAL    C1523513   9.120   5.243   6.485  1.0786  0.1231  0.7105
    4TAL    C1623514   9.274   5.243   6.464 -0.0157 -0.7758  0.6077
    4TAL    C1723515   9.367   5.233   6.580  0.0443 -0.3261 -0.3534
    4TAL    C1823516   9.512   5.265   6.549  0.1667 -0.5776  0.2999
    4TAL    C1923517   9.536   5.392   6.476 -0.7192  0.4927  0.4878
    4TAL    C2023518   9.676   5.451   6.489 -1.3031  0.0587  0.1096
    5HTM    C2123519   8.809   5.144   6.527 -0.4168  0.6075  0.3925
    5HTM    C2223520   8.674   5.159   6.529 -0.3357  1.3180  1.1832
    5HTM    C2323521   8.612   5.113   6.651  0.0544  0.9294  1.2369
    5HTM    C2423522   8.701   5.062   6.741  0.2710 -0.0778  0.4871
    5HTM     S323523   8.870   5.068   6.679 -0.0030 -0.6176 -0.3513
    6TAL    C2523524   8.460   5.132   6.667  0.2368  1.0761  0.2938
    6TAL    C2623525   8.370   5.060   6.570  0.2675  1.2478  0.7497
    6TAL    C2723526   8.214   5.062   6.591 -0.5923 -0.1690 -0.0575
    6TAL    C2823527   8.125   5.007   6.479 -0.3926  1.2435  0.6918
    6TAL    C2923528   8.142   5.034   6.330 -0.4507  0.2827  1.0371
    6TAL    C3023529   8.078   4.923   6.231  0.7921 -0.2688  0.2603
    7HTM    C3123530   8.689   5.027   6.879  0.3321 -0.5919 -0.3390
    7HTM    C3223531   8.771   5.066   6.981  0.7262 -0.7249 -0.5958
    7HTM    C3323532   8.723   5.027   7.111  1.0197 -0.5503 -0.4327
    7HTM    C3423533   8.605   4.959   7.108  0.8494 -0.2840 -0.0518
    7HTM     S423534   8.545   4.938   6.939  0.3010 -0.2328  0.1322
    8TAL    C3523535   8.795   5.065   7.238 -0.2220 -0.0953  0.8184
    8TAL    C3623536   8.939   5.064   7.228 -1.2973 -0.2701  0.0985
    8TAL    C3723537   9.002   4.992   7.348  0.5044 -0.1770  0.5774
    8TAL    C3823538   9.116   5.052   7.425  0.3465 -0.0809 -1.1958
    8TAL    C3923539   9.146   4.955   7.547  0.5167 -1.0852 -0.3958
    8TAL    C4023540   9.225   5.002   7.675  0.2505  0.2778  0.4240
    9HTM    C4123541   8.509   4.912   7.203  0.1164 -0.3727 -0.1950
    9HTM    C4223542   8.532   4.865   7.329  0.0844 -0.6026 -0.2731
    9HTM    C4323543   8.412   4.826   7.399  0.0319 -0.4053 -0.2507
    9HTM    C4423544   8.298   4.842   7.326  0.0243 -0.0251 -0.1551
    9HTM     S523545   8.333   4.909   7.162  0.0831  0.1146 -0.0858
   10TAL    C4523546   8.420   4.761   7.546  0.8439  0.2467  0.8372
   10TAL    C4623547   8.551   4.695   7.566 -0.0501  0.4376  0.8299
   10TAL    C4723548   8.578   4.615   7.691 -0.1992 -0.5797  0.4098
   10TAL    C4823549   8.610   4.675   7.836 -0.0288  0.0322  0.8884
   10TAL    C4923550   8.484   4.718   7.926  0.2819 -1.0555  0.7789
   10TAL    C5023551   8.516   4.809   8.041  0.0936 -0.0001 -0.8472
   11HTM    C5123552   8.151   4.838   7.351  0.1877  0.2302 -0.5283
   11HTM    C5223553   8.045   4.838   7.265  0.2370  0.0864 -0.5878
   11HTM    C5323554   7.917   4.838   7.330  0.1996  0.0972 -0.6614
   11HTM    C5423555   7.924   4.839   7.466  0.1219  0.2489 -0.6578
   11HTM     S623556   8.096   4.840   7.523  0.0899  0.3913 -0.5606
   12TAL    C5523557   7.781   4.829   7.261 -0.8594 -0.3429 -0.4983
   12TAL    C5623558   7.794   4.827   7.118  0.4797  0.1576 -0.6877
   12TAL    C5723559   7.701   4.917   7.050 -0.5784 -0.9544 -0.5098
   12TAL    C5823560   7.698   4.929   6.901 -0.5087 -0.5223  0.2130
   12TAL    C5923561   7.832   4.929   6.824  0.6076  0.7078  0.4784
   12TAL    C6023562   7.812   4.895   6.678  0.1274  0.4807  0.1355
   13HTM    C6123563   7.825   4.833   7.581  0.1384  0.0421  0.3252
   13HTM    C6223564   7.838   4.911   7.692  0.2903 -0.1638  0.4535
   13HTM    C6323565   7.726   4.903   7.782  0.4728 -0.4319  0.6578
   13HTM    C6423566   7.628   4.818   7.741  0.4603 -0.4307  0.6854
   13HTM     S723567   7.669   4.742   7.582  0.2147 -0.0879  0.4534
   14TAL    C6523568   7.710   4.999   7.897 -0.4363  0.2035 -0.2615
   14TAL    C6623569   7.830   5.023   7.988 -0.2195  0.0941 -1.0231
   14TAL    C6723570   7.895   4.895   8.032 -0.2097  0.1955  0.6931
   14TAL    C6823571   7.997   4.928   8.141  0.1420  0.1054  0.7761
   14TAL    C6923572   8.117   4.828   8.155  0.4153 -0.0405  1.5741
   14TAL    C7023573   8.110   4.706   8.241 -0.2636  0.5689 -0.6883
   15HTM    C7123574   7.499   4.794   7.796  0.7088 -0.1039  0.0810
   15HTM    C7223575   7.381   4.832   7.740  0.8826  0.2556 -0.0473
   15HTM    C7323576   7.269   4.826   7.831  0.7000  0.2242 -0.2726
   15HTM    C7423577   7.302   4.784   7.956  0.3867 -0.1591 -0.3160
   15HTM     S823578   7.478   4.747   7.969  0.2976 -0.5131 -0.0741
   16TAL    C7523579   7.122   4.880   7.811 -0.1186  0.1546 -0.3469
   16TAL    C7623580   7.069   4.872   7.674 -0.4886  0.3360  0.4057
   16TAL    C7723581   6.929   4.899   7.666  0.0040 -1.4350  0.4257
   16TAL    C7823582   6.858   4.866   7.537 -0.7218  0.0699  0.0442
   16TAL    C7923583   6.851   4.713   7.510  0.2275 -0.0330  0.3155
   16TAL    C8023584   6.776   4.680   7.382 -0.7656 -0.5243 -0.6049
   17HTM    C8123585   7.224   4.775   8.082  0.1225  0.2755 -0.3454
   17HTM    C8223586   7.153   4.668   8.128 -0.7735  0.5283 -1.0850
   17HTM    C8323587   7.084   4.695   8.252 -1.1804  0.4718 -1.2960
   17HTM    C8423588   7.103   4.821   8.300 -0.5946  0.1758 -0.7172
   17HTM     S923589   7.210   4.917   8.191  0.5250 -0.0562  0.1461
   18TAL    C8523590   6.993   4.586   8.314 -0.5844 -0.6290  0.5863
   18TAL    C8623591   6.866   4.558   8.237 -0.0647 -1.1480  0.8768
   18TAL    C8723592   6.791   4.445   8.301 -0.0358 -0.2781  0.3418
   18TAL    C8823593   6.654   4.401   8.248  0.6393  0.6823  0.2768
   18TAL    C8923594   6.553   4.516   8.233 -1.2858  0.1371  0.1686
   18TAL    C9023595   6.512   4.594   8.360  1.0291 -0.5681  0.3663
   19HTM    C9123596   7.066   4.877   8.432  0.0952  0.5250 -0.3315
   19HTM    C9223597   7.144   4.969   8.496  0.0495  0.6149 -0.4041
   19HTM    C9323598   7.108   4.989   8.635  0.1280  0.6064 -0.3829
   19HTM    C9423599   7.004   4.912   8.676  0.2337  0.5101 -0.2943
   19HTM    S1023600   6.941   4.808   8.543  0.2423  0.4220 -0.2295
   20TAL    C9523601   7.172   5.101   8.723  1.1173 -0.7138  0.6197
   20TAL    C9623602   7.300   5.173   8.654 -0.2837 -0.0511  0.4916
   20TAL    C9723603   7.352   5.293   8.738  1.0194  0.2583  0.5426
   20TAL    C9823604   7.447   5.381   8.661  0.5114  0.3146 -0.3797
   20TAL    C9923605   7.476   5.487   8.762 -0.3245 -0.5384  0.1133
   20TAL   C10023606   7.373   5.613   8.745 -0.8915  0.1991  0.5995
   21HTM   C10123607   6.949   4.888   8.813  0.0465  0.2999 -0.0300
   21HTM   C10223608   6.945   4.969   8.924 -0.3532  0.2084  0.0274
   21HTM   C10323609   6.856   4.922   9.027 -0.7994  0.1689 -0.3672
   21HTM   C10423610   6.792   4.806   8.995 -0.7400  0.2303 -0.7255
   21HTM    S1123611   6.839   4.746   8.832 -0.1109  0.3436 -0.5914
   22TAL   C10523612   6.849   5.016   9.156 -1.1709  0.9732 -0.7439
   22TAL   C10623613   6.938   4.933   9.262  0.6006  0.6290  0.3127
   22TAL   C10723614   7.057   5.006   9.305  1.2258  0.1829 -0.0153
   22TAL   C10823615   7.082   4.990   9.457 -0.1533  0.1930  1.3382
   22TAL   C10923616   7.220   5.032   9.489 -0.1517 -0.7855 -0.2563
   22TAL   C11023617   7.233   5.017   9.644  0.0976  1.9725  0.6900
   23HTM   C11123618   6.699   4.731   9.078 -0.0165  0.0285 -0.2765
   23HTM   C11223619   6.725   4.662   9.193  0.0150  0.8770  0.2460
   23HTM   C11323620   6.614   4.585   9.241  0.0390  1.1967  0.8409
   23HTM   C11423621   6.502   4.595   9.162  0.0259  0.5919  0.7715
   23HTM    S1223622   6.530   4.704   9.021 -0.0179 -0.4363 -0.0564
   24TAL   C11523623   6.601   4.500   9.363 -0.9058 -0.5472 -1.0832
   24TAL   C11623624   6.686   4.539   9.485 -0.0188 -0.9093  0.1469
   24TAL   C11723625   6.669   4.680   9.553 -0.4338  0.7870  0.8146
   24TAL   C11823626   6.770   4.734   9.642 -0.1175 -0.7321 -0.3039
   24TAL   C11923627   6.726   4.854   9.728  0.5680 -0.5231 -0.2282
   24TAL   C12023628   6.840   4.932   9.793  0.6452 -0.1478  0.5261
   25HTM   C12123629   6.363   4.527   9.176 -0.0834 -0.8013  0.4927
   25HTM   C12223630   6.297   4.451   9.269  0.1050 -1.6631 -0.0541
   25HTM   C12323631   6.168   4.404   9.224  0.3151 -1.8458 -0.4776
   25HTM   C12423632   6.136   4.444   9.098  0.2869 -1.1235 -0.2538
   25HTM    S1323633   6.267   4.544   9.025 -0.0095 -0.1487  0.5151
   26TAL   C12523634   6.076   4.321   9.321  0.0519  0.5256  0.7424
   26TAL   C12623635   5.981   4.391   9.413  0.0475  0.2893 -0.8792
   26TAL   C12723636   6.025   4.518   9.475 -0.3844 -0.1935 -0.8512
   26TAL   C12823637   6.151   4.509   9.566  0.8285  0.3454 -0.8876
   26TAL   C12923638   6.188   4.632   9.644 -1.2884  0.0873 -1.9492
   26TAL   C13023639   6.117   4.649   9.774  0.4592 -0.4323 -0.6671
   27HTM   C13123640   6.015   4.413   9.017 -0.2756  0.0140  0.1315
   27HTM   C13223641   5.953   4.501   8.933 -0.1343 -0.0404 -0.0296
   27HTM   C13323642   5.830   4.452   8.878 -0.0466 -0.0726 -0.2003
   27HTM   C13423643   5.797   4.326   8.921 -0.1210 -0.0427 -0.1687
   27HTM    S1423644   5.921   4.260   9.034 -0.3091  0.0291  0.0809
   28TAL   C13523645   5.775   4.520   8.749  0.5210  0.7960 -0.8734
   28TAL   C13623646   5.657   4.611   8.757  0.0982  0.2170  0.0314
   28TAL   C13723647   5.617   4.684   8.630 -0.1641 -0.7087 -0.6985
   28TAL   C13823648   5.707   4.790   8.566 -0.4240  0.3443  1.0828
   28TAL   C13923649   5.855   4.749   8.521 -0.4351 -0.4431 -0.9611
   28TAL   C14023650   5.848   4.752   8.369  0.6713 -0.6398  0.2575
   29HTM   C14123651   5.679   4.244   8.890 -0.1464  0.2464 -0.3355
   29HTM   C14223652   5.558   4.282   8.841 -0.1622 -0.1343 -0.6022
   29HTM   C14323653   5.455   4.183   8.860  0.0334 -0.3296 -0.5429
   29HTM   C14423654   5.497   4.070   8.923  0.1987 -0.0976 -0.2311
   29HTM    S1523655   5.673   4.079   8.964  0.1192  0.3890  0.0134
   30TAL   C14523656   5.308   4.187   8.806 -0.2142 -0.0682 -0.2179
   30TAL   C14623657   5.201   4.239   8.905 -0.7186  0.3914 -0.2944
   30TAL   C14723658   5.241   4.367   8.984  0.0378  0.5038  0.7150
   30TAL   C14823659   5.142   4.485   8.977 -0.4335  0.3646 -1.1571
   30TAL   C14923660   5.196   4.597   9.066 -0.1810 -0.7154 -0.5626
   30TAL   C15023661   5.112   4.719   9.055 -0.3176 -0.7393  0.2454
   31HTM   C15123662   5.427   3.948   8.963  0.0115 -0.0308 -0.2601
   31HTM   C15223663   5.358   3.849   8.899  0.0787 -0.1146 -0.2034
   31HTM   C15323664   5.310   3.745   8.987 -0.0157  0.0016 -0.1183
   31HTM   C15423665   5.341   3.766   9.118 -0.1548  0.1738 -0.1101
   31HTM    S1623666   5.436   3.918   9.140 -0.1776  0.2029 -0.2104
   32TAL   C15523667   5.211   3.645   8.931  0.5563 -0.0043  0.3824
   32TAL   C15623668   5.276   3.550   8.828 -0.0431 -0.9147  0.2906
   32TAL   C15723669   5.169   3.458   8.768 -0.4897  0.5460 -0.7903
   32TAL   C15823670   5.234   3.375   8.659  0.2874 -0.5614 -0.7953
   32TAL   C15923671   5.142   3.309   8.561 -0.9066  0.0515  0.2502
   32TAL   C16023672   5.229   3.245   8.453 -0.2409  0.1330  0.3463
   33HTM   C16123673   5.324   3.685   9.238 -0.3193 -0.1378  0.0963
   33HTM   C16223674   5.288   3.555   9.262  0.8826 -0.5100  0.0138
   33HTM   C16323675   5.288   3.520   9.402  1.3231 -0.6453 -0.0167
   33HTM   C16423676   5.324   3.622   9.484  0.4572 -0.3763  0.0431
   33HTM    S1723677   5.361   3.772   9.392 -0.9931  0.0724  0.1426
   34TAL   C16523678   5.250   3.375   9.459  0.4431 -0.7274  0.3064
   34TAL   C16623679   5.207   3.277   9.348 -0.2266 -0.2769 -0.0386
   34TAL   C16723680   5.197   3.123   9.362  0.4602 -0.1338 -0.2734
   34TAL   C16823681   5.168   3.066   9.506  0.7146  0.5521 -0.0708
   34TAL   C16923682   5.172   2.917   9.541 -0.6958  0.3383  0.6040
   34TAL   C17023683   5.116   2.879   9.671  0.7774  1.0505  0.4935
   35HTM   C17123684   5.350   3.636   9.632  0.1922  0.5081  0.2283
   35HTM   C17223685   5.382   3.742   9.711  0.1986  0.1321  0.7477
   35HTM   C17323686   5.377   3.714   9.852 -0.2279 -0.4338  0.6280
   35HTM   C17423687   5.342   3.585   9.881 -0.5595 -0.4893  0.0179
   35HTM    S1823688   5.312   3.490   9.731 -0.3573  0.1739 -0.4576
   36TAL   C17523689   5.407   3.834   9.948  1.2350  0.0859 -0.0781
   36TAL   C17623690   5.558   3.861   9.956  0.2053 -0.7003 -0.0684
   36TAL   C17723691   5.639   3.770  10.051 -0.3470  0.2335 -0.4737
   36TAL   C17823692   5.605   3.750  10.201 -0.7093 -0.4136  0.1032
   36TAL   C17923693   5.575   3.887  10.259 -1.0311 -0.5159 -0.0263
   36TAL   C18023694   5.543   3.897  10.402  0.0943 -0.3121  0.1877
   37HTM   C18123695   5.320   3.516  10.002 -0.1551 -0.1296 -0.5164
   37HTM   C18223696   5.268   3.559  10.121  0.0259 -0.1106 -0.4428
   37HTM   C18323697   5.248   3.453  10.217  0.2339 -0.0855 -0.3718
   37HTM   C18423698   5.285   3.330  10.171  0.2114 -0.0851 -0.3912
   37HTM    S1923699   5.348   3.338  10.003 -0.0764 -0.1169 -0.5016
   38TAL   C18523700   5.196   3.490  10.353  0.7748 -0.6514  0.5018
   38TAL   C18623701   5.215   3.611  10.441 -1.1655  0.4431 -0.2422
   38TAL   C18723702   5.346   3.613  10.511 -0.2648  0.0951 -0.5372
   38TAL   C18823703   5.358   3.518  10.626  0.3577  0.4476 -0.4523
   38TAL   C18923704   5.311   3.589  10.755 -0.3783  0.4782  0.0415
   38TAL   C19023705   5.271   3.496  10.874 -0.1494 -0.3359 -0.4941
   39HTM   C19123706   5.282   3.204  10.239 -0.0679 -0.1255 -0.1829
   39HTM   C19223707   5.252   3.086  10.178  0.2131 -0.1221 -0.3340
   39HTM   C19323708   5.250   2.973  10.268  0.1426 -0.1854 -0.4140
   39HTM   C19423709   5.279   3.006  10.397 -0.1923 -0.2370 -0.3237
   39HTM    S2023710   5.311   3.183  10.415 -0.4465 -0.2095 -0.1293
   40TAL   C19523711   5.241   2.833  10.225  0.2486  0.6170  0.1971
   40TAL   C19623712   5.347   2.785  10.116 -0.1866  0.0219  0.2555
   40TAL   C19723713   5.351   2.635  10.071  0.9216 -0.4187 -0.8773
   40TAL   C19823714   5.380   2.545  10.193  0.8011 -0.4160 -0.1275
   40TAL   C19923715   5.374   2.399  10.155 -0.4055 -0.7596 -0.1169
   40TAL   C20023716   5.516   2.337  10.100 -0.4107  0.4719 -0.3548
   41HTM   C20123717   5.267   2.932  10.523  0.3532 -0.0335  0.1173
   41HTM   C20223718   5.352   2.927  10.630  0.1767  0.1118  0.2630
   41HTM   C20323719   5.313   2.831  10.730 -0.0707  0.3518  0.4011
   41HTM   C20423720   5.200   2.762  10.699 -0.0827  0.3895  0.3608
   41HTM    S2123721   5.132   2.814  10.540  0.2199  0.1227  0.1436
   42TAL   C20523722   5.385   2.794  10.858  0.2329 -0.0345 -0.5478
   42TAL   C20623723   5.453   2.922  10.924  0.4155 -0.1277 -1.4898
   42TAL   C20723724   5.522   2.880  11.064  0.4997  0.5559 -0.0519
   42TAL   C20823725   5.588   2.979  11.144  0.4611 -0.3041  0.0434
   42TAL   C20923726   5.654   2.917  11.270 -0.4213 -0.0221 -0.4325
   42TAL   C21023727   5.725   3.033  11.351  0.4389  0.3487 -0.1850
   43HTM   C21123728   5.128   2.662  10.762 -0.1838 -0.2309 -0.4984
   43HTM   C21223729   5.140   2.526  10.753 -0.6119 -0.2512 -0.8243
   43HTM   C21323730   5.034   2.454  10.817 -0.7216 -0.0710 -0.8018
   43HTM   C21423731   4.940   2.534  10.876 -0.3773  0.0867 -0.4587
   43HTM    S2223732   4.980   2.709  10.854  0.1162  0.0193 -0.1349
   44TAL   C21523733   5.044   2.302  10.830  0.4876 -0.9327  0.6546
   44TAL   C21623734   4.915   2.221  10.845 -0.5452  0.8428 -0.0373
   44TAL   C21723735   4.835   2.200  10.712  0.0965 -1.0854 -0.1390
   44TAL   C21823736   4.694   2.139  10.710 -0.7770 -0.8593 -0.8030
   44TAL   C21923737   4.584   2.212  10.780 -0.0431 -1.3397  0.1908
   44TAL   C22023738   4.539   2.343  10.714  0.4957 -0.3938 -0.0178
   45HTM   C22123739   4.818   2.511  10.958 -0.3886  0.0621  0.6015
   45HTM   C22223740   4.801   2.428  11.064 -0.3104  0.0704  0.6205
   45HTM   C22323741   4.670   2.435  11.123 -0.3535 -0.1209  0.5486
   45HTM   C22423742   4.586   2.523  11.061 -0.4640 -0.2751  0.4747
   45HTM    S2323743   4.668   2.606  10.923 -0.5233 -0.1899  0.4903
   46TAL   C22523744   4.631   2.377  11.253  0.7002  0.3906 -1.1050
   46TAL   C22623745   4.670   2.235  11.294  0.7760  0.6737  1.1692
   46TAL   C22723746   4.644   2.118  11.190  2.5586 -0.2868 -0.5646
   46TAL   C22823747   4.499   2.083  11.160  0.4497  0.2775  0.3319
   46TAL   C22923748   4.496   1.965  11.071 -0.6704  1.2274  0.9716
   46TAL   C23023749   4.378   1.930  10.979  0.4550 -1.2450 -0.0092
   47HTM   C23123750   4.445   2.566  11.091  0.4058  0.4436  0.1871
   47HTM   C23223751   4.387   2.622  11.202  0.1751  0.4953  0.0427
   47HTM   C23323752   4.254   2.670  11.179  0.1291  0.2643 -0.1954
   47HTM   C23423753   4.210   2.653  11.052  0.3246  0.0366 -0.2326
   47HTM    S2423754   4.334   2.572  10.949  0.5841  0.0968  0.0324
   48TAL   C23523755   4.178   2.739  11.294  0.3549  0.2125 -0.7976
   48TAL   C23623756   4.031   2.759  11.274  0.2101  0.1811 -1.0264
   48TAL   C23723757   3.951   2.633  11.310  0.4870 -0.7994 -0.0361
   48TAL   C23823758   3.803   2.647  11.332  0.1789 -0.1259  0.8335
   48TAL   C23923759   3.724   2.530  11.291  0.9125  0.6713 -0.5660
   48TAL   C24023760   3.670   2.549  11.153  0.3541  0.4752  0.1098
    1HTM     C123761   3.878   8.780   3.556 -0.0220 -0.2992  0.6954
    1HTM     C223762   3.824   8.738   3.675 -0.2750 -0.2415  0.6024
    1HTM     C323763   3.684   8.708   3.667 -0.2326 -0.3681  0.2853
    1HTM     C423764   3.630   8.727   3.543  0.0525 -0.5226  0.1365
    1HTM     S123765   3.754   8.785   3.425  0.2917 -0.5201  0.3873
    2TAL     C523766   3.619   8.681   3.803 -1.2003 -0.2527 -0.2590
    2TAL     C623767   3.665   8.719   3.943  0.6833  0.2066 -0.3871
    2TAL     C723768   3.575   8.671   4.054 -0.0973 -0.6257  0.0911
    2TAL     C823769   3.653   8.643   4.185 -0.1031 -0.8529 -0.1691
    2TAL     C923770   3.711   8.775   4.247 -0.1352  1.4326  0.3774
    2TAL    C1023771   3.807   8.718   4.338  0.2003  0.1244 -0.8636
    3HTM    C1123772   3.501   8.692   3.497 -0.0010 -0.9802 -0.0502
    3HTM    C1223773   3.454   8.660   3.373 -0.3242 -1.7731  0.2637
    3HTM    C1323774   3.311   8.648   3.366 -0.3641 -1.5447  0.6548
    3HTM    C1423775   3.248   8.671   3.485 -0.0714 -0.5775  0.6391
    3HTM     S223776   3.367   8.709   3.616  0.2802  0.1250  0.1252
    4TAL    C1523777   3.243   8.623   3.228 -0.5269 -0.6557 -0.0262
    4TAL    C1623778   3.276   8.727   3.112  0.5364 -0.1443 -1.2271
    4TAL    C1723779   3.212   8.700   2.978  0.1959 -0.2973  0.3117
    4TAL    C1823780   3.264   8.776   2.862  0.4092 -0.2690  0.0129
    4TAL    C1923781   3.188   8.714   2.739  0.0594 -0.2563 -0.0010
    4TAL    C2023782   3.197   8.783   2.607 -0.7239 -0.9514 -0.2033
    5HTM    C2123783   3.109   8.676   3.508  0.1916  0.4298 -0.9027
    5HTM    C2223784   3.022   8.770   3.555  0.0119  0.4542 -1.2764
    5HTM    C2323785   2.894   8.717   3.592  0.0425  0.3884 -1.2638
    5HTM    C2423786   2.882   8.583   3.572  0.2456  0.3139 -0.8804
    5HTM     S323787   3.034   8.512   3.506  0.4153  0.3205 -0.5027
    6TAL    C2523788   2.790   8.809   3.664  0.8342 -0.1720  0.1532
    6TAL    C2623789   2.704   8.898   3.572  0.7797 -2.2217  0.0263
    6TAL    C2723790   2.585   8.853   3.493  0.3352  0.4385 -1.3474
    6TAL    C2823791   2.466   8.885   3.578 -0.3733  0.1474 -0.8911
    6TAL    C2923792   2.428   8.786   3.682  0.7360  0.1109 -0.1552
    6TAL    C3023793   2.321   8.841   3.774  0.0634 -0.1204  0.1267
    7HTM    C3123794   2.781   8.487   3.610 -0.2900  1.0164  0.0025
    7HTM    C3223795   2.768   8.400   3.714  0.0676  1.0340  0.0629
    7HTM    C3323796   2.654   8.313   3.703  0.6777  0.2346 -0.1077
    7HTM    C3423797   2.580   8.333   3.591  0.7853 -0.3923 -0.2981
    7HTM     S423798   2.649   8.465   3.489  0.1192 -0.0190 -0.2767
    8TAL    C3523799   2.621   8.216   3.818  0.0601  0.5394 -0.3691
    8TAL    C3623800   2.719   8.096   3.839 -0.7891  0.2323 -1.0481
    8TAL    C3723801   2.654   7.974   3.904  0.1837 -0.5617  0.8118
    8TAL    C3823802   2.738   7.865   3.958 -0.3498  0.3822  0.2347
    8TAL    C3923803   2.862   7.891   4.047 -0.4506 -0.1835  0.5404
    8TAL    C4023804   2.932   7.772   4.103 -0.1875 -0.1276  0.4061
    9HTM    C4123805   2.456   8.273   3.548  0.5929  0.1687  0.0699
    9HTM    C4223806   2.420   8.213   3.431  0.7923  0.0198  0.0836
    9HTM    C4323807   2.285   8.163   3.431  0.8715 -0.1969  0.0023
    9HTM    C4423808   2.218   8.185   3.548  0.7325 -0.2131 -0.0736
    9HTM     S523809   2.322   8.271   3.668  0.4889  0.0460 -0.0478
   10TAL    C4523810   2.229   8.112   3.301  0.8575  0.0581 -0.2308
   10TAL    C4623811   2.097   8.179   3.269 -0.6313  0.2470 -0.2000
   10TAL    C4723812   2.027   8.125   3.142 -1.1470 -0.0880 -0.4025
   10TAL    C4823813   2.008   7.974   3.119  0.8360 -0.0592  0.3687
   10TAL    C4923814   1.918   7.962   2.998  0.9899 -0.1772 -0.0537
   10TAL    C5023815   1.962   7.876   2.874  0.4205 -0.7577  0.2543
   11HTM    C5123816   2.079   8.162   3.604 -0.6579 -0.2348  0.2856
   11HTM    C5223817   2.025   8.046   3.651 -0.5826 -0.0176  0.9159
   11HTM    C5323818   1.893   8.062   3.708 -0.4235  0.2723  1.2117
   11HTM    C5423819   1.847   8.191   3.703 -0.3774  0.2770  0.8069
   11HTM     S623820   1.966   8.302   3.627 -0.5326 -0.0879  0.0146
   12TAL    C5523821   1.815   7.937   3.749  0.4595  0.3891 -1.1035
   12TAL    C5623822   1.685   7.910   3.679  0.7071 -0.6780 -0.5428
   12TAL    C5723823   1.598   7.798   3.739 -1.4621  0.5287  0.4400
   12TAL    C5823824   1.470   7.763   3.670  0.5891 -0.7603 -0.4243
   12TAL    C5923825   1.418   7.623   3.714 -0.0141  0.5660 -0.0483
   12TAL    C6023826   1.328   7.569   3.621  0.8085 -0.1787  0.5109
   13HTM    C6123827   1.738   8.246   3.781  0.4782 -0.2327  0.3606
   13HTM    C6223828   1.657   8.347   3.737  1.0374  0.4263  0.7954
   13HTM    C6323829   1.553   8.382   3.830  1.2082  0.5789  0.9305
   13HTM    C6423830   1.554   8.309   3.944  0.7793  0.0356  0.5989
   13HTM     S723831   1.688   8.188   3.945  0.1213 -0.7160  0.0862
   14TAL    C6523832   1.441   8.486   3.790  0.9359  0.3107 -0.7758
   14TAL    C6623833   1.405   8.519   3.646 -0.9287 -0.4715 -0.5256
   14TAL    C6723834   1.249   8.519   3.647  0.4602 -0.0195 -1.1230
   14TAL    C6823835   1.197   8.492   3.512  0.7176 -0.2185 -0.4659
   14TAL    C6923836   1.054   8.525   3.504  0.1326  0.0871 -0.7316
   14TAL    C7023837   1.016   8.536   3.372  1.1667 -0.4584  0.9709
   15HTM    C7123838   1.459   8.331   4.056  0.1091  0.3437  0.1457
   15HTM    C7223839   1.399   8.444   4.102 -0.5248  0.1206 -0.1180
   15HTM    C7323840   1.303   8.421   4.207 -0.7865 -0.2189 -0.4275
   15HTM    C7423841   1.291   8.289   4.241 -0.3522 -0.2549 -0.3994
   15HTM     S823842   1.400   8.184   4.143  0.4271  0.1399  0.0231
   16TAL    C7523843   1.261   8.538   4.293  0.3469 -0.0762  0.3824
   16TAL    C7623844   1.339   8.657   4.316 -0.7694 -0.4682  0.3273
   16TAL    C7723845   1.249   8.738   4.410  0.2623 -0.3281  0.3382
   16TAL    C7823846   1.340   8.847   4.470  1.3230  1.0589  1.2040
   16TAL    C7923847   1.260   8.933   4.566  0.5257 -1.6768  0.5042
   16TAL    C8023848   1.336   9.063   4.607 -0.3218  0.5307 -0.5026
   17HTM    C8123849   1.223   8.218   4.351 -0.4507  0.5852 -0.2936
   17HTM    C8223850   1.226   8.082   4.359 -0.3418  0.5727 -0.5302
   17HTM    C8323851   1.136   8.027   4.457 -0.1560  0.3421 -0.4842
   17HTM    C8423852   1.063   8.122   4.523 -0.1234  0.1789 -0.2125
   17HTM     S923853   1.104   8.288   4.467 -0.3262  0.3047  0.0079
   18TAL    C8523854   1.153   7.877   4.473  1.1478  1.6636  1.0133
   18TAL    C8623855   1.039   7.805   4.402  0.2580  0.2251  0.2632
   18TAL    C8723856   1.057   7.648   4.390  0.8670 -0.5645  0.9428
   18TAL    C8823857   1.083   7.563   4.507 -0.4018 -0.4929 -0.6240
   18TAL    C8923858   0.998   7.582   4.639  0.4067 -0.4115  0.6360
   18TAL    C9023859   1.038   7.483   4.745  0.0755  0.0303  0.6185
   19HTM    C9123860   0.952   8.120   4.622 -0.7585 -0.7271  0.2773
   19HTM    C9223861   0.907   8.015   4.696 -0.5741 -0.5498  0.6465
   19HTM    C9323862   0.807   8.052   4.793 -0.6603 -0.3867  0.4984
   19HTM    C9423863   0.777   8.185   4.794 -0.9104 -0.4387  0.0162
   19HTM    S1023864   0.872   8.275   4.670 -1.0576 -0.7006 -0.2906
   20TAL    C9523865   0.733   7.938   4.856 -0.3924  0.4420 -0.0181
   20TAL    C9623866   0.651   7.843   4.778  0.1373  0.0867  1.0846
   20TAL    C9723867   0.505   7.893   4.747 -0.8941  0.7146 -0.3638
   20TAL    C9823868   0.430   7.821   4.637  0.1928  0.1758  0.4031
   20TAL    C9923869   0.292   7.861   4.619  0.2854  0.1317  0.4368
   20TAL   C10023870   0.238   7.885   4.478 -0.2360 -0.3088 -0.7961
   21HTM   C10123871   0.681   8.269   4.871  0.2068  0.4347  0.6285
   21HTM   C10223872   0.632   8.392   4.840  0.7374  0.7241  0.8913
   21HTM   C10323873   0.532   8.440   4.933  0.7553  0.8407  0.8510
   21HTM   C10423874   0.506   8.353   5.035  0.2382  0.6404  0.5573
   21HTM    S1123875   0.606   8.203   5.021 -0.3157  0.2862  0.3070
   22TAL   C10523876   0.468   8.569   4.921  0.7147 -0.6485 -0.3967
   22TAL   C10623877   0.459   8.637   4.798  0.1645 -1.2815  0.7569
   22TAL   C10723878   0.407   8.788   4.794 -1.1107  0.6662 -0.7616
   22TAL   C10823879   0.475   8.873   4.682  0.2136  0.6570 -1.1362
   22TAL   C10923880   0.453   9.023   4.720  0.3051  0.2434  0.6351
   22TAL   C11023881   0.519   9.108   4.614  0.1374  0.3793  0.0750
   23HTM   C11123882   0.420   8.357   5.151  0.3202  0.0195  0.0714
   23HTM   C11223883   0.309   8.283   5.179  0.2783  0.1593  0.2760
   23HTM   C11323884   0.245   8.319   5.303  0.3430  0.4835  0.2168
   23HTM   C11423885   0.308   8.421   5.369  0.4343  0.5915 -0.0326
   23HTM    S1223886   0.453   8.479   5.279  0.4457  0.2894 -0.2140
   24TAL   C11523887   0.122   8.247   5.365  0.3789  0.3059 -0.4817
   24TAL   C11623888   0.090   8.112   5.301  0.5227 -0.5431 -1.9689
   24TAL   C11723889   0.040   8.031   5.411  0.4428  0.5611 -0.1816
   24TAL   C11823890   0.127   7.916   5.463  1.6076  0.0463 -0.3687
   24TAL   C11923891   0.033   7.821   5.547 -0.4943  0.1680  1.0310
   24TAL   C12023892   0.072   7.687   5.508 -0.0710  1.5542 -0.1792
   25HTM   C12123893   0.298   8.465   5.509 -0.2169  0.2779  0.0385
   25HTM   C12223894   0.255   8.585   5.557  0.1381  0.2949  0.3179
   25HTM   C12323895   0.243   8.589   5.700  0.1412 -0.0050  0.3273
   25HTM   C12423896   0.276   8.471   5.761 -0.2113 -0.2507  0.0551
   25HTM    S1323897   0.326   8.346   5.642 -0.5774 -0.1214 -0.2364
   26TAL   C12523898   0.198   8.722   5.765  0.8070 -0.1207  0.2861
   26TAL   C12623899   0.261   8.856   5.727  0.1978  0.0698  0.3554
   26TAL   C12723900   0.169   8.970   5.727  1.3295 -1.3203  0.3584
   26TAL   C12823901   0.235   9.111   5.721  1.1040  0.5065 -0.6709
   26TAL   C12923902   0.348   9.140   5.624  0.4129 -1.0079  0.1385
   26TAL   C13023903   0.296   9.124   5.476 -0.1523  0.9827  0.1804
   27HTM   C13123904   0.261   8.439   5.901  0.2451 -0.0904  0.1903
   27HTM   C13223905   0.180   8.506   5.988  0.3553  0.0846  0.1609
   27HTM   C13323906   0.163   8.439   6.114  0.2522  0.1736  0.1949
   27HTM   C13423907   0.232   8.321   6.124  0.0634  0.0666  0.2501
   27HTM    S1423908   0.324   8.286   5.972  0.0008 -0.1565  0.2638
   28TAL   C13523909   0.066   8.491   6.213 -0.5919 -0.4238 -0.7957
   28TAL   C13623910  -0.075   8.483   6.173 -1.0750 -0.4102 -0.1246
   28TAL   C13723911  -0.179   8.497   6.289 -0.2364  0.9928  0.4554
   28TAL   C13823912  -0.196   8.379   6.379  0.8655  1.0446  0.3884
   28TAL   C13923913  -0.317   8.389   6.469 -0.2749  0.7832 -0.0938
   28TAL   C14023914  -0.326   8.272   6.570 -0.0235  0.1667 -0.0787
   29HTM   C14123915   0.237   8.232   6.236  0.3055  0.9521  0.9449
   29HTM   C14223916   0.145   8.206   6.333  0.8145  1.1461  1.4873
   29HTM   C14323917   0.188   8.106   6.428  1.0084  0.7694  1.0091
   29HTM   C14423918   0.312   8.056   6.402  0.6473  0.2881  0.1021
   29HTM    S1523919   0.385   8.132   6.256  0.0295  0.2734 -0.2210
   30TAL   C14523920   0.091   8.057   6.545  0.5532 -0.0282 -0.1694
   30TAL   C14623921  -0.056   7.992   6.518 -0.6925  0.9318 -0.2731
   30TAL   C14723922  -0.034   7.852   6.446  0.6043  0.6392 -0.6629
   30TAL   C14823923  -0.157   7.779   6.394  1.0085 -0.0837  0.9672
   30TAL   C14923924  -0.160   7.815   6.252  0.0593  0.2032  1.1126
   30TAL   C15023925  -0.252   7.701   6.191 -0.5494  0.3698  0.4102
   31HTM   C15123926   0.392   7.949   6.460  1.0100  0.4072  0.2095
   31HTM   C15223927   0.499   7.959   6.544  0.7992 -0.2677  0.5753
   31HTM   C15323928   0.553   7.832   6.585 -0.1697 -0.6204  0.8147
   31HTM   C15423929   0.488   7.725   6.532 -0.6978 -0.2146  0.6314
   31HTM    S1623930   0.351   7.777   6.426 -0.0069  0.6512  0.1383
   32TAL   C15523931   0.675   7.849   6.669 -0.1760 -0.4225 -1.0663
   32TAL   C15623932   0.745   7.729   6.721  0.0114 -1.0429 -0.6104
   32TAL   C15723933   0.868   7.784   6.796 -0.6876  0.2219 -0.4573
   32TAL   C15823934   0.970   7.677   6.862  0.2064  1.2807 -0.1848
   32TAL   C15923935   1.112   7.642   6.796  0.5527 -0.5180 -0.4106
   32TAL   C16023936   1.193   7.585   6.903  0.5965  0.1943 -0.0900
   33HTM   C16123937   0.518   7.582   6.540 -0.0665 -0.0405 -0.1132
   33HTM   C16223938   0.595   7.516   6.449 -0.0506 -0.3687  0.1366
   33HTM   C16323939   0.582   7.372   6.456 -0.3701 -0.3313  0.3707
   33HTM   C16423940   0.495   7.330   6.552 -0.6295  0.0254  0.2995
   33HTM    S1723941   0.422   7.468   6.642 -0.4894  0.3443 -0.0718
   34TAL   C16523942   0.639   7.280   6.343  0.8591 -0.3044  0.4321
   34TAL   C16623943   0.727   7.335   6.224  0.2537  0.1249 -0.1868
   34TAL   C16723944   0.804   7.226   6.163  0.5934  0.0824  0.2459
   34TAL   C16823945   0.861   7.243   6.021 -0.2462  0.1837 -0.2272
   34TAL   C16923946   0.880   7.100   5.957  0.4659  0.4873  0.2610
   34TAL   C17023947   1.010   7.022   5.984  0.4526  0.1695  0.0537
   35HTM   C17123948   0.461   7.209   6.616 -0.6638  0.1708 -0.3173
   35HTM   C17223949   0.532   7.095   6.643 -0.6625  0.0024 -0.9992
   35HTM   C17323950   0.457   6.996   6.715 -0.4836 -0.1948 -1.0831
   35HTM   C17423951   0.329   7.033   6.743 -0.3484 -0.1766 -0.4655
   35HTM    S1823952   0.293   7.198   6.680 -0.4373  0.0929  0.2760
   36TAL   C17523953   0.520   6.866   6.760 -0.6473  0.8953 -0.7550
   36TAL   C17623954   0.660   6.827   6.699 -0.1042 -0.5902 -0.2205
   36TAL   C17723955   0.638   6.774   6.558 -0.3227  0.1473 -0.3327
   36TAL   C17823956   0.776   6.728   6.508  0.2300 -0.0568 -1.0121
   36TAL   C17923957   0.765   6.672   6.365  1.0815  0.7019  0.3476
   36TAL   C18023958   0.846   6.768   6.264  0.5301 -0.1730  0.2152
   37HTM   C18123959   0.218   6.970   6.803 -0.3140  0.7251 -0.0538
   37HTM   C18223960   0.097   6.963   6.741 -0.7538  1.4820  0.6653
   37HTM   C18323961  -0.000   6.884   6.811 -0.5522  1.3813  0.8326
   37HTM   C18423962   0.046   6.831   6.928  0.0413  0.5478  0.2411
   37HTM    S1923963   0.218   6.877   6.958  0.3943 -0.1805 -0.5794
   38TAL   C18523964  -0.138   6.863   6.756  0.6676  0.6579 -0.3185
   38TAL   C18623965  -0.168   6.934   6.617  0.8428  0.1142  0.0389
   38TAL   C18723966  -0.293   6.887   6.525  0.0065  0.6206  0.8704
   38TAL   C18823967  -0.431   6.885   6.591 -0.2231 -0.0867 -0.4070
   38TAL   C18923968  -0.518   6.771   6.591 -0.1792 -0.1640  0.0848
   38TAL   C19023969  -0.564   6.756   6.449  0.6153 -0.7983  1.1176
   39HTM   C19123970  -0.014   6.719   6.997 -0.4052 -0.0159 -0.4307
   39HTM   C19223971  -0.063   6.705   7.123 -1.1744  0.1534 -0.7025
   39HTM   C19323972  -0.098   6.570   7.157 -1.3130  0.1874 -0.7100
   39HTM   C19423973  -0.076   6.480   7.056 -0.6500  0.0438 -0.4439
   39HTM    S2023974  -0.008   6.562   6.910  0.2080 -0.1467 -0.1612
   40TAL   C19523975  -0.131   6.534   7.301 -0.7172 -0.6286  0.6637
   40TAL   C19623976  -0.229   6.639   7.363 -0.2017 -1.0446  0.3074
   40TAL   C19723977  -0.333   6.577   7.450 -0.2299  0.5142 -0.2413
   40TAL   C19823978  -0.448   6.656   7.517 -0.3848  0.2106 -0.1621
   40TAL   C19923979  -0.580   6.575   7.564 -0.4448 -0.6276  0.6754
   40TAL   C20023980  -0.555   6.497   7.696  0.2339 -0.4539  0.5744
   41HTM   C20123981  -0.081   6.331   7.034  0.0183  0.0114 -0.3783
   41HTM   C20223982  -0.016   6.236   7.105  0.1142  0.0337 -0.4357
   41HTM   C20323983  -0.019   6.105   7.044 -0.0453 -0.0046 -0.3479
   41HTM   C20423984  -0.086   6.102   6.926 -0.2629 -0.0560 -0.2232
   41HTM    S2123985  -0.152   6.264   6.882 -0.2838 -0.0601 -0.2074
   42TAL   C20523986   0.066   5.990   7.100 -0.9384 -0.2994 -0.1989
   42TAL   C20623987   0.085   5.992   7.250  0.1450 -0.1074  0.8455
   42TAL   C20723988   0.142   5.861   7.311 -0.0712 -0.7851  0.8040
   42TAL   C20823989   0.024   5.764   7.349 -0.8909 -1.0319 -0.1384
   42TAL   C20923990   0.052   5.639   7.436  0.9217 -0.5278 -0.6273
   42TAL   C21023991  -0.056   5.525   7.454 -1.1678 -0.7301  0.5322
   43HTM   C21123992  -0.090   6.004   6.820 -0.3145 -0.5479  0.7696
   43HTM   C21223993   0.010   5.954   6.742 -0.1972 -0.1976  0.6915
   43HTM   C21323994  -0.037   5.884   6.625 -0.0215  0.3688  0.2698
   43HTM   C21423995  -0.173   5.880   6.614 -0.0048  0.4506  0.0262
   43HTM    S2223996  -0.253   5.966   6.752 -0.2113 -0.1864  0.3129
   44TAL   C21523997   0.063   5.822   6.528 -0.7051  0.2136 -0.3711
   44TAL   C21623998   0.157   5.730   6.587 -1.7557  0.4191 -1.2820
   44TAL   C21723999   0.295   5.723   6.516 -0.3051  0.7743 -1.1605
   44TAL   C21824000   0.412   5.773   6.592 -0.5735  0.1605 -0.3047
   44TAL   C21924001   0.424   5.725   6.737 -0.8815 -0.6878  0.4972
   44TAL   C22024002   0.483   5.588   6.746  0.4853  0.5006 -0.2061
   45HTM   C22124003  -0.267   5.826   6.515 -0.2350 -0.2940  0.6442
   45HTM   C22224004  -0.254   5.823   6.380  0.1273 -0.0094  0.6716
   45HTM   C22324005  -0.371   5.775   6.311  0.2654  0.2462  0.2502
   45HTM   C22424006  -0.474   5.741   6.394  0.0079  0.1566 -0.0982
   45HTM    S2324007  -0.430   5.767   6.567 -0.4321 -0.2608  0.0799
   46TAL   C22524008  -0.374   5.763   6.159 -0.0706 -0.1719  0.5363
   46TAL   C22624009  -0.244   5.754   6.082  0.6887 -0.4370  0.3682
   46TAL   C22724010  -0.242   5.671   5.952  1.1259 -0.2824 -0.0901
   46TAL   C22824011  -0.107   5.689   5.893  0.4076  0.7499  0.6309
   46TAL   C22924012  -0.097   5.646   5.745  0.4989  0.1313  0.1131
   46TAL   C23024013  -0.180   5.718   5.638 -0.4212  0.2967 -0.6277
   47HTM   C23124014  -0.605   5.718   6.339 -0.0625  0.0951 -0.2094
   47HTM   C23224015  -0.720   5.791   6.354  0.0315  0.1974  0.0259
   47HTM   C23324016  -0.835   5.729   6.293 -0.1388  0.3225  0.2220
   47HTM   C23424017  -0.809   5.610   6.233 -0.3622  0.3158  0.1363
   47HTM    S2424018  -0.635   5.565   6.248 -0.3753  0.1494 -0.2014
   48TAL   C23524019  -0.987   5.773   6.274 -0.5318  1.1761 -0.6583
   48TAL   C23624020  -1.035   5.918   6.276  0.0735 -0.5195 -0.4315
   48TAL   C23724021  -0.983   5.996   6.159 -0.7098 -0.1889 -0.4389
   48TAL   C23824022  -0.994   6.155   6.167 -0.2274 -0.4795 -0.3232
   48TAL   C23924023  -0.930   6.225   6.041 -0.2386 -0.3394 -0.2304
   48TAL   C24024024  -1.007   6.236   5.914 -0.3223 -0.5834 -0.5338
    1HTM     C124025   3.213   8.216   9.024 -0.0243 -0.2049  0.0259
    1HTM     C224026   3.268   8.172   9.140 -0.1078  0.4745  0.3357
    1HTM     C324027   3.406   8.210   9.157 -0.2446  0.9432  0.4253
    1HTM     C424028   3.456   8.284   9.053 -0.2654  0.6213  0.1837
    1HTM     S124029   3.331   8.311   8.926 -0.1128 -0.3062 -0.1789
    2TAL     C524030   3.477   8.176   9.282  0.5695  0.9184 -1.2952
    2TAL     C624031   3.477   8.272   9.384  0.2243 -0.6911 -0.7742
    2TAL     C724032   3.471   8.208   9.530 -0.3699 -1.3184  1.3287
    2TAL     C824033   3.482   8.323   9.627  0.2485 -0.0845 -0.6465
    2TAL     C924034   3.619   8.368   9.673 -0.4479  0.1779  0.1163
    2TAL    C1024035   3.706   8.255   9.753  1.3809  0.8208  1.1003
    3HTM    C1124036   3.591   8.336   9.033  0.2448 -0.3162  0.4213
    3HTM    C1224037   3.661   8.410   9.123 -0.1110  0.2956  0.2074
    3HTM    C1324038   3.772   8.481   9.064 -0.5782  0.8454 -0.0350
    3HTM    C1424039   3.786   8.461   8.930 -0.5786  0.6535 -0.0064
    3HTM     S224040   3.659   8.350   8.867  0.0157 -0.2439  0.3318
    4TAL    C1524041   3.819   8.585   9.164 -0.5670  1.2791 -0.0785
    4TAL    C1624042   3.971   8.599   9.160 -0.1813 -0.7281 -0.1948
    4TAL    C1724043   4.050   8.484   9.239  1.0561  0.2881 -0.8119
    4TAL    C1824044   4.039   8.475   9.394 -0.2445  0.3408  0.0049
    4TAL    C1924045   4.138   8.374   9.462 -0.6520  0.2400  0.4352
    4TAL    C2024046   4.102   8.323   9.596  0.5135  0.6130 -0.1084
    5HTM    C2124047   3.870   8.518   8.831 -0.4619 -0.1737 -0.5992
    5HTM    C2224048   3.966   8.457   8.755 -0.5037  0.1011 -0.8819
    5HTM    C2324049   4.029   8.543   8.659 -0.1415  0.6163 -0.1991
    5HTM    C2424050   3.981   8.671   8.661  0.1764  0.7342  0.6045
    5HTM     S324051   3.853   8.692   8.785  0.0420  0.1993  0.5608
    6TAL    C2524052   4.129   8.491   8.576 -0.7026 -0.1985  0.0581
    6TAL    C2624053   4.268   8.481   8.634  0.7215  0.4186  0.0645
    6TAL    C2724054   4.367   8.387   8.571 -1.0106  0.3064 -0.9187
    6TAL    C2824055   4.504   8.439   8.602 -0.3052 -0.1404 -0.5133
    6TAL    C2924056   4.613   8.337   8.553 -0.6159 -1.1595 -0.0649
    6TAL    C3024057   4.632   8.321   8.400  0.7941  0.2757 -0.9614
    7HTM    C3124058   4.007   8.791   8.592  0.2144 -0.5197  0.0138
    7HTM    C3224059   3.956   8.914   8.624 -0.3433 -0.7379 -0.0184
    7HTM    C3324060   3.999   9.019   8.536 -1.0294 -0.6013 -0.2043
    7HTM    C3424061   4.083   8.977   8.437 -0.9948 -0.2786 -0.3140
    7HTM     S424062   4.114   8.800   8.447 -0.0860 -0.1213 -0.1902
    8TAL    C3524063   3.964   9.166   8.558  0.4934 -0.0564  0.2586
    8TAL    C3624064   3.805   9.189   8.575  0.0149  0.0420  0.6095
    8TAL    C3724065   3.756   9.336   8.585  1.7956 -0.1045 -0.3570
    8TAL    C3824066   3.610   9.382   8.623  0.6807 -1.1347 -0.5344
    8TAL    C3924067   3.502   9.305   8.553  0.7924 -0.8498 -0.3320
    8TAL    C4024068   3.363   9.376   8.564 -0.6830 -0.2640  0.1684
    9HTM    C4124069   4.154   9.044   8.328 -0.1659 -0.3382  0.1972
    9HTM    C4224070   4.247   8.995   8.241 -0.5149 -0.6251 -0.0179
    9HTM    C4324071   4.286   9.089   8.139 -0.4748 -0.7522 -0.1199
    9HTM    C4424072   4.223   9.210   8.148 -0.0950 -0.5622  0.0175
    9HTM     S524073   4.109   9.214   8.288  0.2439 -0.2055  0.2885
   10TAL    C4524074   4.380   9.061   8.023  1.0787  0.3318  0.5981
   10TAL    C4624075   4.372   8.914   7.959  0.6991  0.5868 -0.3844
   10TAL    C4724076   4.458   8.898   7.829  0.5740  0.0156  0.3709
   10TAL    C4824077   4.609   8.938   7.856  0.4310  0.1525 -0.6334
   10TAL    C4924078   4.688   8.903   7.738  0.0253  1.1450  0.0592
   10TAL    C5024079   4.835   8.925   7.772 -0.1635 -0.2367  0.1414
   11HTM    C5124080   4.246   9.332   8.065  0.2208  0.3461 -0.0770
   11HTM    C5224081   4.270   9.457   8.114 -0.1533  0.3765  0.0315
   11HTM    C5324082   4.286   9.557   8.012 -0.2511  0.4764  0.1137
   11HTM    C5424083   4.275   9.509   7.885  0.0485  0.5227  0.0684
   11HTM     S624084   4.243   9.331   7.885  0.4806  0.4429 -0.0834
   12TAL    C5524085   4.342   9.694   8.051  0.8080 -0.2006  0.8616
   12TAL    C5624086   4.474   9.704   8.122 -0.2212  0.3823  0.2972
   12TAL    C5724087   4.598   9.623   8.082  0.6641  0.3742 -0.0991
   12TAL    C5824088   4.733   9.646   8.151 -0.3808 -1.2521  0.1679
   12TAL    C5924089   4.729   9.599   8.292  0.0457 -0.5980  0.4347
   12TAL    C6024090   4.852   9.638   8.362 -0.2608 -0.4217 -0.4550
   13HTM    C6124091   4.274   9.572   7.756  0.7211  0.0958  0.2881
   13HTM    C6224092   4.229   9.513   7.641  0.6615 -0.1607  0.4396
   13HTM    C6324093   4.275   9.579   7.521  0.2470 -0.1657  0.2763
   13HTM    C6424094   4.354   9.687   7.544 -0.0095  0.0873  0.0002
   13HTM     S724095   4.379   9.715   7.721  0.2545  0.3533 -0.0757
   14TAL    C6524096   4.230   9.526   7.386 -0.3979  0.0677  1.1466
   14TAL    C6624097   4.150   9.398   7.341 -0.2497  0.7447  0.1828
   14TAL    C6724098   4.141   9.368   7.186  0.7401 -0.4057 -0.6940
   14TAL    C6824099   4.257   9.370   7.085 -0.3042  0.2407  0.1385
   14TAL    C6924100   4.261   9.278   6.962  0.4641  0.6566 -0.1102
   14TAL    C7024101   4.388   9.288   6.885 -0.0384  0.3553 -0.2515
   15HTM    C7124102   4.408   9.796   7.458 -0.1494  0.5920 -0.3625
   15HTM    C7224103   4.382   9.829   7.328 -0.2121  1.0980 -0.2238
   15HTM    C7324104   4.435   9.957   7.289 -0.0060  1.1366  0.1757
   15HTM    C7424105   4.501  10.021   7.390  0.2136  0.6600  0.3418
   15HTM     S824106   4.502   9.924   7.542  0.1772  0.1214  0.0039
   16TAL    C7524107   4.397  10.001   7.142  0.2087  0.7235 -0.2836
   16TAL    C7624108   4.238   9.984   7.117  0.0974 -0.4390  1.0212
   16TAL    C7724109   4.157  10.104   7.054  0.2315 -0.8312  0.0181
   16TAL    C7824110   4.154  10.246   7.118 -0.3711 -0.5150 -0.9477
   16TAL    C7924111   4.014  10.308   7.122 -0.1979 -0.1291 -0.6087
   16TAL    C8024112   3.952  10.312   6.979  0.1500 -0.5376 -0.2324
   17HTM    C8124113   4.545  10.159   7.395 -0.3945 -0.2185  0.2702
   17HTM    C8224114   4.614  10.211   7.500 -0.5195 -0.2606  0.3732
   17HTM    C8324115   4.638  10.353   7.489 -0.3505 -0.2893  0.3730
   17HTM    C8424116   4.588  10.408   7.375 -0.0968 -0.2690  0.2697
   17HTM     S924117   4.505  10.285   7.272 -0.0510 -0.2118  0.1640
   18TAL    C8524118   4.720  10.420   7.598 -0.7567 -0.3273  0.9060
   18TAL    C8624119   4.872  10.405   7.549  0.3461 -0.4622 -1.2787
   18TAL    C8724120   4.966  10.480   7.645  0.2359 -0.0402  0.6393
   18TAL    C8824121   4.944  10.634   7.645 -0.2899  0.6622 -0.2199
   18TAL    C8924122   5.011  10.714   7.759 -0.1465 -0.1313 -0.3666
   18TAL    C9024123   5.019  10.866   7.722  0.3993 -0.4050 -0.3395
   19HTM    C9124124   4.572  10.551   7.361 -0.2015 -0.2092 -0.1967
   19HTM    C9224125   4.450  10.609   7.349 -0.1714 -0.1429 -0.1788
   19HTM    C9324126   4.456  10.749   7.314 -0.0883 -0.0260  0.2842
   19HTM    C9424127   4.582  10.796   7.299 -0.0552 -0.0031  0.6191
   19HTM    S1024128   4.705  10.668   7.328 -0.1266 -0.1284  0.3740
   20TAL    C9524129   4.328  10.830   7.331  0.6074 -0.7595  0.3628
   20TAL    C9624130   4.267  10.838   7.464  0.4144  0.1690  0.1517
   20TAL    C9724131   4.364  10.869   7.584 -0.5604 -0.1318  0.3511
   20TAL    C9824132   4.453  11.003   7.571  0.4647 -0.2227  0.1567
   20TAL    C9924133   4.472  11.043   7.712  0.1515 -0.2888 -0.5810
   20TAL   C10024134   4.544  11.180   7.711  0.0724 -0.8137  0.7195
   21HTM   C10124135   4.624  10.933   7.254 -0.1779 -0.1188 -0.3859
   21HTM   C10224136   4.541  11.033   7.213  0.1011  0.1078 -0.4035
   21HTM   C10324137   4.609  11.158   7.188  0.3512  0.1143  0.2698
   21HTM   C10424138   4.743  11.153   7.210  0.2627 -0.1074  0.8009
   21HTM    S1124139   4.796  10.989   7.264 -0.1463 -0.3434  0.4893
   22TAL   C10524140   4.511  11.274   7.136 -0.7768  0.7021  0.0121
   22TAL   C10624141   4.388  11.308   7.208  1.2163  0.5386 -0.7973
   22TAL   C10724142   4.388  11.346   7.358 -0.0143 -1.1903  0.0833
   22TAL   C10824143   4.483  11.452   7.423  0.3078  0.4859 -0.5876
   22TAL   C10924144   4.489  11.585   7.353  0.4782  1.1844  0.7454
   22TAL   C11024145   4.371  11.668   7.393 -0.8988 -0.0368 -0.4366
   23HTM   C11124146   4.852  11.254   7.197 -0.1709 -0.2651 -0.4450
   23HTM   C11224147   4.833  11.389   7.195 -0.5910 -0.3203 -0.4463
   23HTM   C11324148   4.955  11.464   7.210 -0.8682  0.0601 -0.0579
   23HTM   C11424149   5.066  11.387   7.223 -0.6594  0.4053  0.2398
   23HTM    S1224150   5.026  11.211   7.218 -0.0922  0.2758  0.0510
   24TAL   C11524151   4.951  11.618   7.211  0.5332 -0.1422 -0.0959
   24TAL   C11624152   4.890  11.667   7.353 -0.0186  0.1942  0.7756
   24TAL   C11724153   4.895  11.812   7.393 -0.3926 -0.8653 -0.7400
   24TAL   C11824154   5.015  11.880   7.449 -0.8007  0.1374  0.0655
   24TAL   C11924155   5.144  11.875   7.373 -0.8419 -0.0129  0.7941
   24TAL   C12024156   5.139  11.950   7.240 -0.8219  0.2750 -0.6697
   25HTM   C12124157   5.202  11.430   7.230  0.9235 -0.3474 -0.3601
   25HTM   C12224158   5.301  11.343   7.264  1.4734  0.0308 -0.9565
   25HTM   C12324159   5.429  11.405   7.284  1.2012  0.6237 -1.0273
   25HTM   C12424160   5.427  11.541   7.267  0.4438  0.6975 -0.4849
   25HTM    S1324161   5.263  11.600   7.222  0.0120  0.0187  0.1624
   26TAL   C12524162   5.554  11.336   7.320  0.5289  0.5545  0.9853
   26TAL   C12624163   5.592  11.188   7.290  0.7118  0.3239  0.6751
   26TAL   C12724164   5.744  11.149   7.298  0.2008  0.0271 -0.6167
   26TAL   C12824165   5.819  11.201   7.418 -1.0674  0.0729  0.0522
   26TAL   C12924166   5.959  11.141   7.464  0.3103  0.4351  0.0019
   26TAL   C13024167   5.999  10.999   7.432  1.0552 -0.8473  0.0153
   27HTM   C13124168   5.528  11.638   7.282  0.1183  0.0992 -0.2744
   27HTM   C13224169   5.511  11.765   7.330  0.4802  0.1156 -0.1851
   27HTM   C13324170   5.618  11.855   7.296  0.8715 -0.2329  0.1062
   27HTM   C13424171   5.717  11.797   7.222  0.8080 -0.5150  0.2391
   27HTM    S1424172   5.681  11.623   7.189  0.2447 -0.3612  0.0048
   28TAL   C13524173   5.622  11.997   7.341  0.4624 -1.2925  0.0358
   28TAL   C13624174   5.567  12.038   7.476 -0.1526  0.4022 -0.3881
   28TAL   C13724175   5.553  12.175   7.526 -0.4662  0.2250 -0.5425
   28TAL   C13824176   5.471  12.273   7.445  0.0463  0.6631  0.7677
   28TAL   C13924177   5.476  12.415   7.481 -0.0879  0.3844 -0.1961
   28TAL   C14024178   5.405  12.529   7.398 -1.0262  0.4850 -0.1613
   29HTM   C14124179   5.838  11.849   7.149  0.2580 -0.6580  0.8228
   29HTM   C14224180   5.925  11.949   7.178  0.2828 -0.7488  1.0587
   29HTM   C14324181   6.036  11.958   7.088  0.1254 -0.3722  0.8967
   29HTM   C14424182   6.034  11.864   6.989 -0.0194  0.0058  0.5374
   29HTM    S1524183   5.890  11.757   7.002  0.0322 -0.0853  0.3743
   30TAL   C14524184   6.121  12.083   7.096 -0.8548 -0.0077 -0.5305
   30TAL   C14624185   6.188  12.141   7.222  0.7925 -0.3742 -0.1887
   30TAL   C14724186   6.304  12.053   7.264  0.1730 -0.2479 -1.3973
   30TAL   C14824187   6.432  12.061   7.198 -0.2705  0.3321 -0.5716
   30TAL   C14924188   6.541  11.970   7.248  0.1222  0.4906  0.0348
   30TAL   C15024189   6.672  12.010   7.188 -0.6526 -0.2525  0.5180
   31HTM   C15124190   6.104  11.817   6.872 -0.1870 -0.6450  0.2878
   31HTM   C15224191   6.203  11.899   6.825 -0.1557 -0.4451  0.6964
   31HTM   C15324192   6.277  11.844   6.715  0.0421 -0.0591  0.6325
   31HTM   C15424193   6.235  11.720   6.677  0.1615  0.0352  0.1751
   31HTM    S1624194   6.097  11.663   6.779  0.0324 -0.3593 -0.2133
   32TAL   C15524195   6.380  11.927   6.639  0.6290  0.8416 -0.2250
   32TAL   C15624196   6.336  12.062   6.605  1.0432 -0.0588  0.1815
   32TAL   C15724197   6.438  12.137   6.522  0.2154  0.3273  0.4343
   32TAL   C15824198   6.382  12.270   6.480 -0.3412 -0.5028  0.6831
   32TAL   C15924199   6.485  12.336   6.388 -0.4101 -0.7305  0.7696
   32TAL   C16024200   6.423  12.454   6.299 -0.2277  0.0583  0.3319
   33HTM   C16124201   6.279  11.629   6.574  0.1408  0.6019 -0.9351
   33HTM   C16224202   6.307  11.659   6.444  0.2033 -0.2064 -1.1172
   33HTM   C16324203   6.336  11.543   6.363  0.2532 -0.7194 -0.3877
   33HTM   C16424204   6.330  11.425   6.432  0.2290 -0.3022  0.3506
   33HTM    S1724205   6.287  11.451   6.605  0.1405  0.7793  0.1805
   34TAL   C16524206   6.380  11.567   6.217 -0.5353  0.2923 -1.2029
   34TAL   C16624207   6.408  11.702   6.149  0.2889 -0.3182 -0.7436
   34TAL   C16724208   6.455  11.739   6.007  0.8097  0.0053 -0.0672
   34TAL   C16824209   6.476  11.891   5.983  0.5285  0.6598  0.4720
   34TAL   C16924210   6.345  11.978   5.973  0.8849 -0.9516 -0.9821
   34TAL   C17024211   6.335  12.051   6.100 -0.5547 -0.9383 -1.0793
   35HTM   C17124212   6.367  11.288   6.384 -0.0721 -0.0879  0.2127
   35HTM   C17224213   6.467  11.215   6.442  0.1211  0.1394  0.1667
   35HTM   C17324214   6.488  11.087   6.381  0.3300  0.1514  0.2108
   35HTM   C17424215   6.404  11.061   6.276  0.2957 -0.0667  0.2906
   35HTM    S1824216   6.291  11.199   6.247 -0.0052 -0.3061  0.3166
   36TAL   C17524217   6.584  10.991   6.440  0.6640 -0.3987 -0.1430
   36TAL   C17624218   6.625  10.998   6.598 -0.2605 -0.2000  0.9906
   36TAL   C17724219   6.776  10.986   6.622  0.3126 -0.2415  0.7842
   36TAL   C17824220   6.854  10.889   6.533 -0.6312  0.4961 -0.2107
   36TAL   C17924221   7.005  10.909   6.547  0.1073  0.2668 -0.0065
   36TAL   C18024222   7.085  10.839   6.443  0.0340 -0.5168  0.5494
   37HTM   C18124223   6.399  10.937   6.185  0.0655  0.1316  0.3837
   37HTM   C18224224   6.290  10.895   6.114  0.2912  0.5875 -0.2567
   37HTM   C18324225   6.303  10.761   6.062  0.3518  0.8261 -0.8689
   37HTM   C18424226   6.422  10.702   6.093  0.1722  0.5521 -0.6951
   37HTM    S1924227   6.527  10.811   6.191 -0.0895 -0.0331  0.2625
   38TAL   C18524228   6.184  10.688   5.995 -0.5544  0.1289 -0.6976
   38TAL   C18624229   6.068  10.756   5.935  0.4270 -0.5819  0.3907
   38TAL   C18724230   6.037  10.902   5.929  0.9602 -0.3857 -0.0799
   38TAL   C18824231   5.920  10.956   5.833 -0.9167 -0.2612 -0.9928
   38TAL   C18924232   5.913  11.104   5.853  0.7794  0.6825 -0.1580
   38TAL   C19024233   5.783  11.157   5.803  0.0170  0.2124  0.3181
   39HTM   C19124234   6.472  10.566   6.059 -0.6596 -0.1637 -0.1550
   39HTM   C19224235   6.586  10.528   5.994 -0.7939  0.3193 -0.6948
   39HTM   C19324236   6.614  10.387   6.004 -0.0808  0.4527 -0.7021
   39HTM   C19424237   6.521  10.317   6.075  0.5973  0.0713 -0.1681
   39HTM    S2024238   6.390  10.425   6.137  0.3862 -0.4902  0.3900
   40TAL   C19524239   6.748  10.324   5.955  1.2524 -0.2936 -0.5252
   40TAL   C19624240   6.810  10.385   5.826  1.3564 -0.2058 -0.4036
   40TAL   C19724241   6.957  10.377   5.815  0.1759  0.2940 -0.9123
   40TAL   C19824242   7.036  10.430   5.934 -0.5843  0.9530  0.1101
   40TAL   C19924243   7.188  10.471   5.907 -0.3642 -0.2742 -0.0691
   40TAL   C20024244   7.284  10.364   5.830  0.0946 -0.2280  0.2449
   41HTM   C20124245   6.505  10.186   6.132 -0.1793 -0.0445  0.1321
   41HTM   C20224246   6.483  10.162   6.264  0.4084 -0.2215  0.2015
   41HTM   C20324247   6.448  10.025   6.293  0.9854 -0.3674  0.2385
   41HTM   C20424248   6.443   9.946   6.183  0.8373 -0.3015  0.1974
   41HTM    S2124249   6.482  10.038   6.033 -0.0490 -0.0483  0.1079
   42TAL   C20524250   6.410   9.963   6.432 -1.1525 -1.6803  0.5253
   42TAL   C20624251   6.356  10.060   6.535 -0.5364  0.5399 -0.6853
   42TAL   C20724252   6.209  10.055   6.531  1.1595 -0.0222  0.6916
   42TAL   C20824253   6.135  10.111   6.655 -0.1933 -0.9051  0.1851
   42TAL   C20924254   6.046  10.013   6.734 -1.0929  0.4408  0.4660
   42TAL   C21024255   6.090  10.027   6.875  0.3022 -0.6073 -1.4374
   43HTM   C21124256   6.408   9.806   6.155  0.7857  0.1621 -0.5379
   43HTM   C21224257   6.329   9.751   6.058  1.1054  0.1642 -0.8010
   43HTM   C21324258   6.327   9.607   6.061  0.5970  0.1733 -0.4020
   43HTM   C21424259   6.403   9.552   6.160 -0.1106  0.1785  0.1652
   43HTM    S2224260   6.485   9.680   6.258 -0.1902  0.1714  0.2402
   44TAL   C21524261   6.240   9.536   5.958  0.1772 -0.7388  0.2397
   44TAL   C21624262   6.179   9.603   5.826 -0.6954 -0.1079 -0.0785
   44TAL   C21724263   6.093   9.505   5.751  0.4976  0.0053  0.6542
   44TAL   C21824264   6.155   9.382   5.707 -0.5758  1.0464  0.3541
   44TAL   C21924265   6.057   9.296   5.630 -0.4836  0.8351 -0.2829
   44TAL   C22024266   6.086   9.152   5.626 -0.0269  0.0977 -0.4640
   45HTM   C22124267   6.440   9.418   6.190  0.3019 -0.3891  0.1781
   45HTM   C22224268   6.521   9.380   6.293 -0.2072 -0.9086  0.4027
   45HTM   C22324269   6.539   9.238   6.304 -0.9475 -1.0180  0.3104
   45HTM   C22424270   6.472   9.167   6.209 -1.0029 -0.5818  0.0154
   45HTM    S2324271   6.380   9.275   6.098 -0.1175  0.0052 -0.1702
   46TAL   C22524272   6.625   9.187   6.411  0.0676  0.0845 -0.3931
   46TAL   C22624273   6.759   9.234   6.461 -0.7061  1.0386 -0.0078
   46TAL   C22724274   6.783   9.375   6.507 -0.7964  0.5349  0.5435
   46TAL   C22824275   6.920   9.432   6.514  0.4583 -0.9334  0.8823
   46TAL   C22924276   6.937   9.475   6.651 -0.3572 -0.4321 -0.0882
   46TAL   C23024277   7.070   9.540   6.675  1.0405 -0.8020 -0.2847
   47HTM   C23124278   6.453   9.023   6.194 -0.3471 -0.2680  0.5025
   47HTM   C23224279   6.477   8.923   6.283 -0.1624 -0.5970  0.0850
   47HTM   C23324280   6.426   8.795   6.241 -0.1353 -0.4716 -0.3400
   47HTM   C23424281   6.363   8.798   6.120 -0.2993 -0.0467 -0.2465
   47HTM    S2424282   6.363   8.964   6.050 -0.5024  0.2298  0.3905
   48TAL   C23524283   6.466   8.676   6.326 -1.0294 -0.0692  0.1508
   48TAL   C23624284   6.397   8.543   6.299 -0.6232  1.5461 -0.1245
   48TAL   C23724285   6.474   8.414   6.327 -0.7700  0.3742 -0.2093
   48TAL   C23824286   6.401   8.291   6.280 -0.2495  0.3091 -0.3590
   48TAL   C23924287   6.458   8.163   6.341 -0.4209  1.3012  0.6939
   48TAL   C24024288   6.399   8.105   6.465  0.0109  0.2733 -0.5244
    1HTM     C124289   2.281   7.283   5.258 -0.4189  0.1640  0.6661
    1HTM     C224290   2.278   7.172   5.337 -1.1846  0.4878  1.1245
    1HTM     C324291   2.339   7.190   5.466 -1.2667  0.6595  1.1398
    1HTM     C424292   2.388   7.315   5.486 -0.5634  0.4666  0.6930
    1HTM     S124293   2.361   7.421   5.342  0.2635  0.0499  0.2148
    2TAL     C524294   2.335   7.080   5.572 -0.2515 -0.7312  0.8647
    2TAL     C624295   2.202   7.006   5.587 -0.9922 -0.2235  1.0048
    2TAL     C724296   2.075   7.079   5.632 -0.0395  0.8786 -0.6685
    2TAL     C824297   1.947   7.026   5.581 -0.1624  0.1332  0.7615
    2TAL     C924298   1.908   7.129   5.473 -0.2168  1.1490 -0.8388
    2TAL    C1024299   1.789   7.058   5.407  0.0366  0.0309 -0.2124
    3HTM    C1124300   2.446   7.375   5.597  0.0390  0.9967 -0.3237
    3HTM    C1224301   2.579   7.405   5.604 -0.0036  1.1663 -0.2247
    3HTM    C1324302   2.619   7.462   5.731 -0.0015  0.3736  0.1427
    3HTM    C1424303   2.517   7.475   5.820  0.0427 -0.4005  0.3242
    3HTM     S224304   2.361   7.417   5.751  0.0854 -0.1865  0.0426
    4TAL    C1524305   2.764   7.489   5.758 -0.1715 -0.0331 -1.1705
    4TAL    C1624306   2.874   7.386   5.724 -0.5189 -0.1384 -0.1032
    4TAL    C1724307   2.853   7.242   5.757 -0.4569 -0.0679  0.0481
    4TAL    C1824308   2.962   7.156   5.685 -0.1284  0.6408 -0.0146
    4TAL    C1924309   2.961   7.008   5.728 -0.9554  0.7631 -0.3248
    4TAL    C2024310   2.828   6.935   5.742 -0.9052  0.4002  0.4053
    5HTM    C2124311   2.512   7.521   5.961  0.1796 -0.3779 -0.0037
    5HTM    C2224312   2.403   7.588   6.008  0.1125 -0.3154 -0.2463
    5HTM    C2324313   2.423   7.646   6.139  0.1639  0.4392 -0.5753
    5HTM    C2424314   2.546   7.622   6.192  0.2701  0.9524 -0.5836
    5HTM     S324315   2.648   7.524   6.079  0.3139  0.5187 -0.1730
    6TAL    C2524316   2.328   7.748   6.191  0.0752  0.1804  0.3871
    6TAL    C2624317   2.179   7.698   6.176 -0.0909  0.3634 -0.0752
    6TAL    C2724318   2.063   7.764   6.240 -0.3952 -0.4986 -0.3393
    6TAL    C2824319   2.087   7.774   6.392 -1.1776 -0.9710 -0.1013
    6TAL    C2924320   1.996   7.883   6.433  0.4560  0.6780  0.2419
    6TAL    C3024321   2.042   7.954   6.563  0.7281  0.8060 -0.3362
    7HTM    C3124322   2.604   7.660   6.318 -0.1693  0.1579  0.0937
    7HTM    C3224323   2.559   7.728   6.427 -0.4501 -0.1454  0.1693
    7HTM    C3324324   2.649   7.725   6.540 -0.7327 -0.4463  0.3914
    7HTM    C3424325   2.763   7.654   6.516 -0.6672 -0.3722  0.4849
    7HTM     S424326   2.765   7.586   6.349 -0.2404  0.0868  0.2984
    8TAL    C3524327   2.601   7.800   6.663  0.4801 -0.8276  0.9925
    8TAL    C3624328   2.557   7.718   6.787 -0.0230 -0.5908  0.5298
    8TAL    C3724329   2.512   7.797   6.917 -1.4907 -0.3220 -0.2232
    8TAL    C3824330   2.428   7.720   7.023 -0.1820  0.9392  0.3985
    8TAL    C3924331   2.389   7.804   7.132  0.8731 -1.8671 -0.4929
    8TAL    C4024332   2.319   7.752   7.260 -0.5680  0.0635 -0.6653
    9HTM    C4124333   2.878   7.634   6.610 -0.1352  0.4788  0.3072
    9HTM    C4224334   2.999   7.698   6.605 -0.3263  0.8465  0.3181
    9HTM    C4324335   3.099   7.638   6.690 -0.1040  1.0514  0.2016
    9HTM    C4424336   3.055   7.529   6.758  0.2565  0.8398  0.1018
    9HTM     S524337   2.882   7.493   6.721  0.3439  0.3616  0.1475
   10TAL    C4524338   3.244   7.690   6.697  0.2320 -0.1139  0.3804
   10TAL    C4624339   3.267   7.840   6.694  0.8959 -0.3253  0.8372
   10TAL    C4724340   3.201   7.949   6.602 -0.7677 -0.4850 -0.0293
   10TAL    C4824341   3.297   8.042   6.516 -0.9936  0.0654 -0.3810
   10TAL    C4924342   3.438   8.087   6.556  0.1950  0.1826 -0.2309
   10TAL    C5024343   3.447   8.137   6.701  0.0939 -0.0105  0.2602
   11HTM    C5124344   3.113   7.431   6.855  0.0184 -0.0341 -0.4962
   11HTM    C5224345   3.056   7.386   6.970 -0.5344 -0.1709 -0.8165
   11HTM    C5324346   3.145   7.307   7.052 -0.8900 -0.1805 -0.4318
   11HTM    C5424347   3.270   7.293   6.999 -0.6082 -0.0508  0.1816
   11HTM     S624348   3.285   7.378   6.841  0.1337  0.0945  0.3224
   12TAL    C5524349   3.099   7.261   7.183  0.2817 -0.5075 -0.9582
   12TAL    C5624350   3.040   7.116   7.153 -0.2903  0.6183  0.1279
   12TAL    C5724351   2.958   7.078   7.276  0.2161 -0.1615 -1.4746
   12TAL    C5824352   2.861   6.973   7.251  0.9179 -0.3759  0.6016
   12TAL    C5924353   2.712   6.988   7.196  0.2723  0.7117  0.0231
   12TAL    C6024354   2.647   6.872   7.117 -0.7653  0.5249  1.0888
   13HTM    C6124355   3.382   7.205   7.039 -0.4093 -0.2622  0.0584
   13HTM    C6224356   3.495   7.186   6.966 -0.5013 -0.0470 -0.1457
   13HTM    C6324357   3.596   7.110   7.036 -0.1585  0.3045 -0.2520
   13HTM    C6424358   3.559   7.071   7.161  0.1951  0.3569 -0.1289
   13HTM     S724359   3.393   7.128   7.202  0.1217 -0.0362  0.1330
   14TAL    C6524360   3.741   7.081   6.983  0.5864  0.6702 -0.5857
   14TAL    C6624361   3.849   7.189   6.976 -0.7507  0.2220 -0.7124
   14TAL    C6724362   3.994   7.172   6.949 -0.4510  0.1917  0.4308
   14TAL    C6824363   4.049   7.084   6.841  0.1609 -0.6595  0.5703
   14TAL    C6924364   4.004   7.128   6.694  0.2103  0.6832  0.0448
   14TAL    C7024365   4.044   7.009   6.603  0.4071 -0.4246 -0.5314
   15HTM    C7124366   3.631   6.992   7.258 -0.5993  0.4918  0.1515
   15HTM    C7224367   3.724   7.036   7.348 -0.4524  0.6454 -0.0737
   15HTM    C7324368   3.769   6.934   7.439  0.2750  0.6001 -0.4666
   15HTM    C7424369   3.710   6.813   7.419  0.6826  0.4119 -0.5411
   15HTM     S824370   3.593   6.818   7.283  0.1756  0.2762 -0.1174
   16TAL    C7524371   3.877   6.974   7.545 -0.4813  0.7908  0.0630
   16TAL    C7624372   4.030   6.970   7.502  0.1698  0.3730 -0.5189
   16TAL    C7724373   4.063   7.061   7.384  0.1848  0.2950 -0.6388
   16TAL    C7824374   4.201   7.002   7.332  0.0323 -0.6349  0.4688
   16TAL    C7924375   4.261   7.062   7.212 -0.0939 -0.4951 -0.0848
   16TAL    C8024376   4.399   7.024   7.170 -0.1478 -0.1884  0.5148
   17HTM    C8124377   3.717   6.690   7.482 -0.1895 -0.3698 -0.1236
   17HTM    C8224378   3.807   6.592   7.454 -0.5879 -0.7716 -0.0393
   17HTM    C8324379   3.823   6.495   7.560 -0.8448 -0.6369  0.1251
   17HTM    C8424380   3.745   6.519   7.668 -0.6420 -0.1324  0.1659
   17HTM     S924381   3.644   6.667   7.646 -0.1069  0.2145 -0.0013
   18TAL    C8524382   3.930   6.380   7.565  0.3588 -0.1358 -0.2113
   18TAL    C8624383   4.082   6.414   7.547 -0.9228  0.0696  0.3633
   18TAL    C8724384   4.187   6.297   7.509  1.0413  0.4586  0.9782
   18TAL    C8824385   4.252   6.219   7.628  0.9668  1.5898  0.1876
   18TAL    C8924386   4.347   6.107   7.587 -1.3119 -0.6684  0.0810
   18TAL    C9024387   4.311   6.023   7.473  0.3105 -0.3861  0.5190
   19HTM    C9124388   3.724   6.448   7.793  0.3215  0.1448  0.2151
   19HTM    C9224389   3.605   6.396   7.835  0.4947 -0.3464  0.1155
   19HTM    C9324390   3.614   6.324   7.960  0.6936 -0.3501  0.1001
   19HTM    C9424391   3.739   6.321   8.013  0.6721  0.1383  0.1884
   19HTM    S1024392   3.857   6.409   7.909  0.3970  0.6446  0.2981
   20TAL    C9524393   3.484   6.275   8.021 -0.2265 -0.0858 -0.0374
   20TAL    C9624394   3.447   6.134   7.984  0.8696 -0.0369 -0.6941
   20TAL    C9724395   3.313   6.088   8.060 -1.0075 -0.5514  0.5344
   20TAL    C9824396   3.289   5.944   8.027  0.3449  0.5347 -0.1954
   20TAL    C9924397   3.252   5.914   7.886  0.1889 -0.1015 -0.5182
   20TAL   C10024398   3.211   5.770   7.858 -0.4185 -0.5041 -0.9344
   21HTM   C10124399   3.782   6.226   8.110  0.2216 -0.4211 -0.0368
   21HTM   C10224400   3.862   6.122   8.076 -0.0350 -0.7182  0.2522
   21HTM   C10324401   3.902   6.040   8.188 -0.3378 -0.5811  0.4625
   21HTM   C10424402   3.852   6.083   8.308 -0.3121 -0.1796  0.3340
   21HTM    S1124403   3.749   6.230   8.288  0.0998  0.0583 -0.0660
   22TAL   C10524404   3.994   5.921   8.147  0.2984 -0.4196 -1.1181
   22TAL   C10624405   4.062   5.795   8.218  0.0248  0.4323  0.2263
   22TAL   C10724406   3.964   5.708   8.294  0.6695  0.0168  0.3393
   22TAL   C10824407   3.835   5.670   8.214 -0.2942  0.1098  0.5639
   22TAL   C10924408   3.769   5.555   8.274  0.6436 -0.3653 -0.3654
   22TAL   C11024409   3.635   5.520   8.202 -1.4536 -0.4500 -0.3383
   23HTM   C11124410   3.876   6.039   8.442 -0.1092 -0.1095 -0.3257
   23HTM   C11224411   3.977   5.975   8.505 -0.2608 -0.0865 -0.0589
   23HTM   C11324412   3.961   5.967   8.648 -0.4369  0.2607 -0.0594
   23HTM   C11424413   3.846   6.026   8.693 -0.4195  0.5025 -0.3262
   23HTM    S1224414   3.750   6.096   8.558 -0.1778  0.3092 -0.6000
   24TAL   C11524415   4.067   5.905   8.734  0.8608  0.6997 -0.0383
   24TAL   C11624416   4.105   5.761   8.691 -0.1933 -0.4002 -0.2812
   24TAL   C11724417   4.007   5.638   8.678 -0.9003  0.1310 -0.2605
   24TAL   C11824418   3.947   5.572   8.799 -0.1297  1.1439 -0.2767
   24TAL   C11924419   3.792   5.553   8.777 -0.7513 -0.3418 -0.9163
   24TAL   C12024420   3.700   5.679   8.800  1.4821 -0.7396 -0.2148
   25HTM   C12124421   3.845   6.080   8.833  0.4951 -0.4254  0.2183
   25HTM   C12224422   3.842   6.014   8.952  1.0934 -0.4188  0.2468
   25HTM   C12324423   3.846   6.100   9.067  1.3149 -0.3904  0.2179
   25HTM   C12424424   3.853   6.232   9.036  0.8855 -0.3758  0.1676
   25HTM    S1324425   3.855   6.259   8.858  0.1624 -0.3967  0.1522
   26TAL   C12524426   3.816   6.031   9.201  0.1115 -0.3327 -0.7288
   26TAL   C12624427   3.666   6.013   9.234 -0.2045  0.8484  0.4835
   26TAL   C12724428   3.647   5.962   9.377 -0.3735  1.0368 -0.0311
   26TAL   C12824429   3.660   6.063   9.496 -0.4747 -0.0875  1.1819
   26TAL   C12924430   3.586   6.187   9.490  0.8930  0.3138  0.8321
   26TAL   C13024431   3.585   6.260   9.626  0.3069  0.6036  0.2005
   27HTM   C13124432   3.878   6.336   9.126  0.8776  0.2489  0.0497
   27HTM   C13224433   3.924   6.332   9.255  0.6177  0.5324  0.1533
   27HTM   C13324434   3.956   6.462   9.309 -0.2685  0.7415  0.2198
   27HTM   C13424435   3.936   6.564   9.221 -0.6842  0.6174  0.1668
   27HTM    S1424436   3.873   6.505   9.063  0.0167  0.2236  0.0280
   28TAL   C13524437   4.014   6.475   9.452 -0.1729 -0.6544  0.2445
   28TAL   C13624438   3.986   6.369   9.551 -0.3334 -0.7758 -0.4334
   28TAL   C13724439   4.047   6.427   9.687  0.7058  0.4462  0.3834
   28TAL   C13824440   4.100   6.299   9.754 -0.1208 -0.0338  0.5728
   28TAL   C13924441   4.111   6.325   9.901  0.0434 -0.0546 -0.6756
   28TAL   C14024442   4.124   6.202   9.992  0.3729  0.4948 -0.7426
   29HTM   C14124443   3.963   6.706   9.231  0.5317  0.3228 -0.2268
   29HTM   C14224444   3.884   6.807   9.184  0.6965  0.1576 -0.8740
   29HTM   C14324445   3.934   6.938   9.214  0.4478  0.2649 -0.9234
   29HTM   C14424446   4.051   6.938   9.284  0.0929  0.5118 -0.3135
   29HTM    S1524447   4.108   6.770   9.318  0.0455  0.6293  0.3757
   30TAL   C14524448   3.860   7.065   9.156  0.2640  1.1042  0.0106
   30TAL   C14624449   3.738   7.065   9.055 -0.5262 -0.0096  0.2407
   30TAL   C14724450   3.691   7.201   9.034 -0.0359 -0.2193  0.0912
   30TAL   C14824451   3.645   7.213   8.891 -0.4909  0.1995  0.3416
   30TAL   C14924452   3.596   7.353   8.850 -0.1811  0.5522 -0.3890
   30TAL   C15024453   3.696   7.461   8.811  1.0557 -0.2916 -0.1443
   31HTM   C15124454   4.123   7.054   9.353 -0.2618  0.0288 -0.0827
   31HTM   C15224455   4.179   7.168   9.304  0.1162 -0.2383 -0.2799
   31HTM   C15324456   4.240   7.250   9.406  0.4081 -0.2738 -0.4244
   31HTM   C15424457   4.230   7.199   9.532  0.2524 -0.0339 -0.3373
   31HTM    S1624458   4.142   7.041   9.532 -0.2791  0.2580 -0.0642
   32TAL   C15524459   4.290   7.399   9.368 -0.2233  0.0448 -0.1532
   32TAL   C15624460   4.302   7.431   9.227 -0.0432  0.4143  0.7795
   32TAL   C15724461   4.378   7.556   9.216  0.8450 -1.3315 -0.9006
   32TAL   C15824462   4.384   7.638   9.085  0.2019 -0.2031 -0.3560
   32TAL   C15924463   4.267   7.695   9.008  0.1906  0.1214 -0.5362
   32TAL   C16024464   4.275   7.806   8.904 -0.1507  0.1716  0.2091
   33HTM   C16124465   4.291   7.239   9.662 -0.0490  0.2783  0.0555
   33HTM   C16224466   4.370   7.347   9.687 -0.3014  0.4830 -0.0203
   33HTM   C16324467   4.405   7.363   9.826 -0.4239  0.7237 -0.0162
   33HTM   C16424468   4.352   7.267   9.907 -0.2651  0.7025  0.0628
   33HTM    S1724469   4.253   7.149   9.813  0.0541  0.3741  0.1386
   34TAL   C16524470   4.507   7.469   9.871 -0.1363 -0.4983 -0.1806
   34TAL   C16624471   4.664   7.468   9.835  1.0972 -0.2524 -0.5194
   34TAL   C16724472   4.722   7.437   9.698 -0.2650 -0.2481  0.0089
   34TAL   C16824473   4.870   7.405   9.694  0.1523 -0.8063 -1.1348
   34TAL   C16924474   4.938   7.441   9.567 -0.5130 -0.1430  0.1907
   34TAL   C17024475   5.089   7.479   9.586  0.5688 -0.5827 -0.1916
   35HTM   C17124476   4.371   7.230  10.047 -0.2157  1.0841 -0.2094
   35HTM   C17224477   4.267   7.195  10.128 -0.5248  1.3841 -0.4695
   35HTM   C17324478   4.299   7.198  10.269 -0.7066  0.7843 -0.4096
   35HTM   C17424479   4.428   7.236  10.295 -0.5362  0.0266 -0.1038
   35HTM    S1824480   4.519   7.271  10.143 -0.1299  0.0122  0.1341
   36TAL   C17524481   4.209   7.166  10.377  0.8818 -0.5379  0.7807
   36TAL   C17624482   4.099   7.263  10.407  1.1510 -0.8092 -1.0423
   36TAL   C17724483   3.994   7.224  10.515 -0.2318 -1.2872  0.0790
   36TAL   C17824484   4.010   7.289  10.650 -0.3035  0.0155  0.7803
   36TAL   C17924485   3.876   7.313  10.710  0.2219  0.5123 -0.0177
   36TAL   C18024486   3.910   7.388  10.850  1.0944  0.0193 -0.3219
   37HTM   C18124487   4.500   7.244  10.419  0.0335 -0.1428 -0.2438
   37HTM   C18224488   4.618   7.178  10.435 -0.3026 -0.7164 -0.0767
   37HTM   C18324489   4.674   7.192  10.567 -0.3606 -0.8920 -0.0327
   37HTM   C18424490   4.599   7.269  10.651 -0.0689 -0.4526 -0.1662
   37HTM    S1924491   4.450   7.330  10.570  0.3047  0.2228 -0.3594
   38TAL   C18524492   4.800   7.114  10.592  0.0403 -0.1988  0.2902
   38TAL   C18624493   4.887   7.043  10.474  0.7688 -0.8613  0.4873
   38TAL   C18724494   4.999   7.122  10.404  1.1903  0.0796 -0.2795
   38TAL   C18824495   5.125   7.050  10.371  0.1005 -0.2558  0.9008
   38TAL   C18924496   5.130   6.929  10.277 -0.4665  0.1235 -0.3489
   38TAL   C19024497   5.253   6.901  10.191 -0.6577  0.9760  1.1737
   39HTM   C19124498   4.619   7.295  10.798  0.3358 -0.6760 -0.7183
   39HTM   C19224499   4.577   7.415  10.846 -0.1515 -0.5543 -1.4078
   39HTM   C19324500   4.636   7.450  10.973 -0.9936 -0.0147 -1.1450
   39HTM   C19424501   4.724   7.357  11.020 -1.1482  0.2750 -0.2551
   39HTM    S2024502   4.737   7.216  10.908 -0.2354 -0.1141  0.3245
   40TAL   C19524503   4.594   7.575  11.052  0.7155 -0.8158  0.1315
   40TAL   C19624504   4.569   7.705  10.969  0.8915  0.3747 -0.3290
   40TAL   C19724505   4.504   7.814  11.059 -0.0536 -0.0481  0.3787
   40TAL   C19824506   4.471   7.943  10.987  0.1263  0.0311  0.0501
   40TAL   C19924507   4.417   8.055  11.082  0.1260  0.1763 -0.0854
   40TAL   C20024508   4.359   8.188  11.019 -0.8280  0.9088  0.1719
   41HTM   C20124509   4.837   7.375  11.121 -0.3791  0.6967 -0.3505
   41HTM   C20224510   4.971   7.383  11.097 -0.4252  0.5969 -0.6385
   41HTM   C20324511   5.050   7.413  11.213 -0.0948 -0.0514 -0.6835
   41HTM   C20424512   4.976   7.429  11.327  0.2030 -0.4457 -0.4297
   41HTM    S2124513   4.800   7.406  11.295  0.0887 -0.0259 -0.1118
   42TAL   C20524514   5.204   7.432  11.228  0.7259  0.0435 -0.3172
   42TAL   C20624515   5.293   7.359  11.130  0.1217  0.4410  0.3858
   42TAL   C20724516   5.290   7.207  11.122 -0.0729 -0.8801  0.7300
   42TAL   C20824517   5.309   7.120  10.992  1.1727 -0.6007 -1.0228
   42TAL   C20924518   5.210   7.145  10.875  0.1493  0.0334 -0.4037
   42TAL   C21024519   5.083   7.080  10.890  0.0399 -0.6129  0.1229
   43HTM   C21124520   5.015   7.435  11.467  0.0476 -0.3656  0.1583
   43HTM   C21224521   5.070   7.340  11.548  0.1003 -0.1891  0.3286
   43HTM   C21324522   5.110   7.391  11.677  0.3964  0.1411  0.1090
   43HTM   C21424523   5.086   7.524  11.693  0.5694  0.2166 -0.2287
   43HTM    S2224524   5.010   7.596  11.546  0.3704 -0.1265 -0.2962
   44TAL   C21524525   5.160   7.293  11.786 -0.5245  0.2583 -1.5022
   44TAL   C21624526   5.155   7.136  11.772  0.8653 -0.5563  0.0591
   44TAL   C21724527   5.071   7.084  11.885  0.8184  0.3977  0.7354
   44TAL   C21824528   5.140   6.953  11.927  0.4434 -0.0481 -0.0961
   44TAL   C21924529   5.170   6.824  11.846 -0.2039 -0.4741  1.0453
   44TAL   C22024530   5.054   6.733  11.818 -0.4297 -1.0715  0.5802
   45HTM   C22124531   5.147   7.604  11.798 -0.7783 -0.1745 -0.2931
   45HTM   C22224532   5.276   7.646  11.814 -0.7150 -0.2493 -0.5999
   45HTM   C22324533   5.295   7.735  11.926 -0.3802 -0.3370 -0.5845
   45HTM   C22424534   5.181   7.761  11.995 -0.1881 -0.3291 -0.2660
   45HTM    S2324535   5.039   7.675  11.924 -0.4171 -0.2093  0.0416
   46TAL   C22524536   5.429   7.788  11.965 -0.0228 -0.3770 -0.0595
   46TAL   C22624537   5.541   7.695  12.028  0.6638 -0.5284 -0.6323
   46TAL   C22724538   5.504   7.618  12.157 -0.0105 -0.3030  0.3768
   46TAL   C22824539   5.617   7.542  12.224 -0.0357 -0.4715 -0.1961
   46TAL   C22924540   5.549   7.443  12.329 -0.9550  0.0681 -0.0287
   46TAL   C23024541   5.644   7.379  12.432 -0.3187  0.5149  0.6406
   47HTM   C23124542   5.156   7.845  12.106 -0.9155 -0.4119 -0.2672
   47HTM   C23224543   5.092   7.965  12.103 -1.8301 -0.8577  0.5138
   47HTM   C23324544   5.088   8.032  12.231 -1.3529 -1.2093  0.7180
   47HTM   C23424545   5.150   7.963  12.331 -0.0744 -1.0313  0.0927
   47HTM    S2424546   5.218   7.807  12.271  0.6314 -0.4012 -0.8096
   48TAL   C23524547   5.016   8.161  12.246  0.5724  1.0864 -0.2062
   48TAL   C23624548   5.089   8.288  12.200  0.5687 -0.0506 -0.2709
   48TAL   C23724549   4.986   8.411  12.216 -0.3370  0.7980  0.2237
   48TAL   C23824550   4.990   8.499  12.345  0.0233  0.2576 -0.8232
   48TAL   C23924551   4.866   8.581  12.358  0.3053 -0.1930 -0.0693
   48TAL   C24024552   4.842   8.602  12.499  0.2643 -0.3212 -1.4402
    1HTM     C124553   1.054   9.602   8.743  0.6787  0.3537 -0.4391
    1HTM     C224554   0.938   9.537   8.770  0.5879  0.3383 -0.8509
    1HTM     C324555   0.918   9.510   8.910  0.2674  0.0117 -0.9575
    1HTM     C424556   1.020   9.553   8.990  0.1138 -0.2226 -0.6272
    1HTM     S124557   1.150   9.633   8.893  0.3640 -0.0469 -0.1519
    2TAL     C524558   0.781   9.445   8.962 -0.2406  0.7312  0.1917
    2TAL     C624559   0.722   9.347   8.874 -0.0426 -1.6845  0.9315
    2TAL     C724560   0.599   9.291   8.930  0.7224 -0.5722 -0.4447
    2TAL     C824561   0.541   9.186   8.856  0.4881 -0.0822 -0.5130
    2TAL     C924562   0.475   9.224   8.736  0.1553  0.3295  0.1262
    2TAL    C1024563   0.406   9.090   8.676  0.4062 -1.1015  1.1634
    3HTM    C1124564   1.012   9.551   9.130  0.0138  0.1000  0.1107
    3HTM    C1224565   1.065   9.653   9.203  0.2040 -0.2003  0.3994
    3HTM    C1324566   1.098   9.617   9.338  0.1732 -0.6514  0.2885
    3HTM    C1424567   1.070   9.487   9.368 -0.0404 -0.6954 -0.0846
    3HTM     S224568   1.000   9.399   9.227 -0.2206 -0.1662 -0.3267
    4TAL    C1524569   1.137   9.740   9.425 -0.5527  0.0484 -0.6603
    4TAL    C1624570   1.287   9.752   9.452 -1.3387  0.8314  0.2588
    4TAL    C1724571   1.330   9.885   9.517  0.5110  0.5011  0.1849
    4TAL    C1824572   1.482   9.905   9.504  0.6368 -0.3014 -0.2234
    4TAL    C1924573   1.559  10.039   9.544  0.2124  0.4579 -0.0199
    4TAL    C2024574   1.708  10.032   9.534  0.4867 -0.5073  0.7710
    5HTM    C2124575   1.103   9.418   9.484 -0.5104  0.1912 -0.4129
    5HTM    C2224576   1.166   9.298   9.502 -0.4658  0.1302 -0.9358
    5HTM    C2324577   1.192   9.267   9.640  0.1528 -0.1523 -1.1075
    5HTM    C2424578   1.148   9.362   9.727  0.5798 -0.3066 -0.7152
    5HTM     S324579   1.070   9.500   9.641  0.2312 -0.1058 -0.0940
    6TAL    C2524580   1.261   9.142   9.689 -0.1274 -0.3287  1.1165
    6TAL    C2624581   1.380   9.083   9.612  0.4271  0.2212 -0.3752
    6TAL    C2724582   1.394   8.929   9.650  1.0814 -0.5476 -0.2693
    6TAL    C2824583   1.524   8.852   9.627 -0.1815 -1.1044 -0.0894
    6TAL    C2924584   1.655   8.924   9.688  1.3460  0.8914 -0.3891
    6TAL    C3024585   1.775   8.843   9.661 -0.2829  0.1412 -0.1938
    7HTM    C3124586   1.120   9.345   9.872  0.1414 -0.7307  0.2487
    7HTM    C3224587   1.005   9.385   9.932 -0.3293 -1.2710 -0.2690
    7HTM    C3324588   1.002   9.361  10.074 -0.7002 -0.9477 -0.2181
    7HTM    C3424589   1.115   9.303  10.122 -0.5124 -0.1607  0.3384
    7HTM     S424590   1.235   9.273   9.990  0.1527  0.2361  0.8453
    8TAL    C3524591   0.890   9.403  10.162  0.3901  0.3412 -0.5307
    8TAL    C3624592   0.748   9.348  10.131  0.1414  0.1459  0.5531
    8TAL    C3724593   0.646   9.404  10.223  0.1224  0.2130  1.3844
    8TAL    C3824594   0.666   9.401  10.371  0.4778  0.6247  0.1016
    8TAL    C3924595   0.687   9.265  10.439  0.4299  0.4907  0.4527
    8TAL    C4024596   0.556   9.194  10.477  0.0143 -0.5746 -0.8414
    9HTM    C4124597   1.150   9.244  10.252 -0.7359 -0.8660 -0.4067
    9HTM    C4224598   1.272   9.256  10.312 -0.5580 -0.2956 -0.8606
    9HTM    C4324599   1.270   9.228  10.454 -0.0121  0.3047 -0.7262
    9HTM    C4424600   1.146   9.195  10.501  0.2263  0.1918 -0.1699
    9HTM     S524601   1.022   9.197  10.370 -0.2237 -0.6881  0.2305
   10TAL    C4524602   1.389   9.233  10.544  0.6198  0.4209  0.3629
   10TAL    C4624603   1.463   9.095  10.564 -0.4042 -0.0391  1.2398
   10TAL    C4724604   1.595   9.103  10.651 -0.8736  0.6772  0.1817
   10TAL    C4824605   1.709   9.192  10.602 -0.2228 -0.2714 -0.5345
   10TAL    C4924606   1.834   9.226  10.685 -0.2585 -0.7860  0.3842
   10TAL    C5024607   1.899   9.112  10.763 -0.0483  0.0172 -0.3350
   11HTM    C5124608   1.098   9.156  10.635 -0.0964  0.6644 -0.2788
   11HTM    C5224609   1.004   9.062  10.666 -0.4084  0.7870 -0.8271
   11HTM    C5324610   0.968   9.059  10.805 -0.5121  0.1848 -0.8602
   11HTM    C5424611   1.034   9.151  10.881 -0.2792 -0.3968 -0.3371
   11HTM     S624612   1.148   9.249  10.781  0.0920 -0.2278  0.2423
   12TAL    C5524613   0.863   8.969  10.858  0.1842  0.3835 -0.9510
   12TAL    C5624614   0.853   8.809  10.841  0.1078 -1.3844  1.2822
   12TAL    C5724615   0.983   8.739  10.858  0.6216 -0.5038  0.6630
   12TAL    C5824616   1.052   8.741  10.998 -0.0589 -0.0483 -0.4060
   12TAL    C5924617   1.191   8.682  11.015  0.4932 -0.1655  0.2622
   12TAL    C6024618   1.233   8.542  10.965  0.6236 -0.2347  0.2587
   13HTM    C6124619   1.031   9.179  11.031 -0.2569  0.5277  0.2067
   13HTM    C6224620   1.072   9.289  11.100 -1.1238  0.7782  0.3367
   13HTM    C6324621   1.048   9.282  11.242 -1.1439  0.4575  0.3179
   13HTM    C6424622   0.989   9.165  11.281 -0.2923 -0.0373  0.1735
   13HTM     S724623   0.959   9.055  11.142  0.6080 -0.1377  0.0492
   14TAL    C6524624   1.098   9.399  11.330 -0.3135 -0.3139  0.2850
   14TAL    C6624625   1.033   9.528  11.296  0.1797  0.3026 -0.5013
   14TAL    C6724626   1.088   9.654  11.380  0.4924 -0.7588  0.6101
   14TAL    C6824627   1.027   9.780  11.338  1.0462 -0.9683 -0.1726
   14TAL    C6924628   1.085   9.909  11.407  0.3167 -0.3607  0.3512
   14TAL    C7024629   1.003  10.043  11.386 -0.2723 -0.0409  0.1785
   15HTM    C7124630   0.968   9.114  11.421  0.1951 -0.0896  0.0869
   15HTM    C7224631   0.921   9.178  11.532  0.6985 -0.1247  0.3255
   15HTM    C7324632   0.903   9.092  11.645  1.1207 -0.1800  0.3524
   15HTM    C7424633   0.936   8.962  11.621  0.9393 -0.1871  0.1343
   15HTM     S824634   0.993   8.939  11.451  0.2155 -0.1239 -0.1240
   16TAL    C7524635   0.845   9.145  11.765 -1.1003 -0.3456  0.0669
   16TAL    C7624636   0.978   9.187  11.836 -0.5217  0.5435 -0.1564
   16TAL    C7724637   0.964   9.229  11.977  0.3405 -0.0848 -0.2411
   16TAL    C7824638   0.974   9.386  11.982  0.6904  0.1785  0.0016
   16TAL    C7924639   0.962   9.445  12.126  1.7492  0.6279 -0.0742
   16TAL    C8024640   0.971   9.599  12.105  0.1936  0.7229 -0.1977
   17HTM    C8124641   0.931   8.852  11.709 -0.2339 -0.2155  0.5928
   17HTM    C8224642   0.942   8.854  11.845 -0.5007 -0.8206  0.6291
   17HTM    C8324643   0.921   8.726  11.907 -0.5017 -1.1253  0.0098
   17HTM    C8424644   0.895   8.625  11.818 -0.2357 -0.7521 -0.4988
   17HTM     S924645   0.895   8.686  11.648  0.0389  0.0191 -0.2329
   18TAL    C8524646   0.934   8.708  12.063  0.9643  0.1822  0.2728
   18TAL    C8624647   1.078   8.682  12.127  0.0620 -0.2661 -1.5945
   18TAL    C8724648   1.199   8.789  12.131  0.6559  1.1940 -0.1290
   18TAL    C8824649   1.156   8.930  12.152  0.3777  0.1274 -0.0217
   18TAL    C8924650   1.247   9.034  12.099  0.3668  0.0851  0.2457
   18TAL    C9024651   1.226   9.164  12.180  0.4208 -0.6479 -0.6861
   19HTM    C9124652   0.872   8.487  11.831  0.1828 -0.0129 -0.2492
   19HTM    C9224653   0.783   8.412  11.903  0.2329 -0.1602 -0.3393
   19HTM    C9324654   0.799   8.270  11.885  0.3379 -0.1283 -0.5001
   19HTM    C9424655   0.899   8.237  11.799  0.3678  0.0431 -0.5328
   19HTM    S1024656   0.982   8.383  11.733  0.2650  0.1787 -0.3616
   20TAL    C9524657   0.691   8.191  11.957  0.1970  0.4471  0.1161
   20TAL    C9624658   0.667   8.179  12.105  0.7313  0.4590  0.3109
   20TAL    C9724659   0.781   8.119  12.185 -0.5429 -0.2432 -0.5365
   20TAL    C9824660   0.888   8.016  12.142 -0.5346  0.6248  0.5416
   20TAL    C9924661   0.829   7.877  12.124  0.5302 -0.1913 -0.5659
   20TAL   C10024662   0.907   7.789  12.036 -0.5038  1.1670 -1.1050
   21HTM   C10124663   0.930   8.109  11.749  0.3000  0.1340 -0.0177
   21HTM   C10224664   1.053   8.052  11.739  0.1389 -0.1686 -0.3151
   21HTM   C10324665   1.051   7.918  11.686 -0.3231 -0.1835 -0.2633
   21HTM   C10424666   0.925   7.874  11.655 -0.5142  0.1081  0.0735
   21HTM    S1124667   0.800   7.999  11.690 -0.1224  0.4263  0.3536
   22TAL   C10524668   1.184   7.857  11.660 -0.3530  0.6162 -0.4424
   22TAL   C10624669   1.275   7.794  11.771  0.0466 -0.8653 -0.2601
   22TAL   C10724670   1.342   7.891  11.872  0.2097 -0.8111  0.3897
   22TAL   C10824671   1.427   7.820  11.976  0.2275 -0.1491 -0.4468
   22TAL   C10924672   1.415   7.862  12.127 -1.6617 -1.0258  1.6029
   22TAL   C11024673   1.296   7.802  12.192 -0.6006  0.4629 -1.3510
   23HTM   C11124674   0.875   7.750  11.591 -0.3823 -0.2260 -0.2951
   23HTM   C11224675   0.777   7.660  11.619 -0.0939 -0.5778 -0.4084
   23HTM   C11324676   0.759   7.560  11.516  0.4233 -0.6868 -0.3997
   23HTM   C11424677   0.843   7.575  11.410  0.5293 -0.4181 -0.2798
   23HTM    S1224678   0.953   7.717  11.432 -0.0202 -0.0036 -0.1676
   24TAL   C11524679   0.659   7.446  11.512  0.1885 -0.5259  0.5061
   24TAL   C11624680   0.512   7.463  11.526 -0.0171 -0.3745 -0.3554
   24TAL   C11724681   0.447   7.586  11.474 -0.1853  0.5151 -0.2608
   24TAL   C11824682   0.402   7.608  11.332  0.4843  0.7634  0.2698
   24TAL   C11924683   0.351   7.486  11.267  0.2998 -0.0760  0.1656
   24TAL   C12024684   0.317   7.497  11.123 -0.3116 -0.2617  0.2864
   25HTM   C12124685   0.873   7.488  11.297 -0.0241  0.3244 -0.4042
   25HTM   C12224686   0.845   7.500  11.165  0.2324  0.2577 -0.4668
   25HTM   C12324687   0.894   7.391  11.084 -0.0706 -0.0509 -0.2401
   25HTM   C12424688   0.960   7.296  11.156 -0.5581 -0.2198 -0.0048
   25HTM    S1324689   0.965   7.337  11.332 -0.6733 -0.0003 -0.0515
   26TAL   C12524690   0.869   7.407  10.939 -0.4263  0.5761 -0.5724
   26TAL   C12624691   0.765   7.306  10.890 -0.0529 -0.6429  0.4863
   26TAL   C12724692   0.757   7.277  10.738 -0.4278 -0.5363  0.2397
   26TAL   C12824693   0.677   7.151  10.694 -0.8016  0.0027 -0.2845
   26TAL   C12924694   0.537   7.153  10.733  1.5308 -0.4572 -0.0107
   26TAL   C13024695   0.463   7.028  10.682 -0.1226  0.1738 -0.2125
   27HTM   C13124696   1.032   7.171  11.115 -0.4470 -0.1139 -0.4692
   27HTM   C13224697   1.088   7.144  10.994  0.3202 -0.0857 -0.1285
   27HTM   C13324698   1.172   7.027  10.994  0.8645  0.2911  0.5266
   27HTM   C13424699   1.180   6.965  11.115  0.5124  0.5503  0.6856
   27HTM    S1424700   1.081   7.050  11.239 -0.5423  0.3369  0.0149
   28TAL   C13524701   1.236   6.954  10.869  0.1605 -0.8553 -0.0331
   28TAL   C13624702   1.307   7.037  10.765 -0.3064  0.4356 -0.2545
   28TAL   C13724703   1.437   7.097  10.828  0.8985 -0.1849  0.3248
   28TAL   C13824704   1.552   7.157  10.745  0.5641 -0.3185 -0.3490
   28TAL   C13924705   1.643   7.053  10.703 -0.2127  0.9470  0.4291
   28TAL   C14024706   1.743   7.108  10.604  0.6703  0.5289  1.2416
   29HTM   C14124707   1.253   6.840  11.163 -0.4841 -0.0214 -0.2041
   29HTM   C14224708   1.320   6.836  11.281 -0.2339  0.2114 -0.3341
   29HTM   C14324709   1.398   6.716  11.300  0.1884  0.4597 -0.4648
   29HTM   C14424710   1.390   6.629  11.195  0.2600  0.4163 -0.4343
   29HTM    S1524711   1.283   6.692  11.064 -0.2039  0.0555 -0.2368
   30TAL   C14524712   1.484   6.704  11.422 -0.3366  0.0961  0.0504
   30TAL   C14624713   1.527   6.818  11.504  0.2636 -0.2709 -0.2502
   30TAL   C14724714   1.606   6.773  11.626 -0.6183 -0.0212  1.0424
   30TAL   C14824715   1.625   6.887  11.734 -0.1224 -0.0573  0.1418
   30TAL   C14924716   1.663   6.821  11.864  0.4262  0.6472 -0.7332
   30TAL   C15024717   1.646   6.899  11.998 -0.5797 -0.0484  0.9671
   31HTM   C15124718   1.469   6.507  11.159 -0.3281  0.0512 -0.4236
   31HTM   C15224719   1.598   6.502  11.115 -0.1850  0.0801 -0.0166
   31HTM   C15324720   1.640   6.371  11.074  0.0930  0.0182  0.4590
   31HTM   C15424721   1.543   6.276  11.088  0.1617 -0.0580  0.4145
   31HTM    S1624722   1.390   6.345  11.153 -0.1214 -0.0575 -0.2365
   32TAL   C15524723   1.779   6.329  11.031 -0.4150 -0.9646 -0.5954
   32TAL   C15624724   1.878   6.368  11.141 -0.0117 -1.1365  0.6087
   32TAL   C15724725   1.988   6.274  11.163 -0.0811 -0.1625 -0.6449
   32TAL   C15824726   2.066   6.321  11.284  0.7845  0.6411  0.4518
   32TAL   C15924727   2.210   6.253  11.272 -0.3530  1.5816  0.1924
   32TAL   C16024728   2.292   6.282  11.395 -0.2901 -0.1796  0.6635
   33HTM   C16124729   1.531   6.137  11.048 -0.3180 -0.0101 -0.5098
   33HTM   C16224730   1.622   6.045  11.005 -0.2296  0.1986 -0.7790
   33HTM   C16324731   1.565   5.917  10.973 -0.0404  0.0858 -0.6709
   33HTM   C16424732   1.430   5.911  10.991  0.0155 -0.2089 -0.3193
   33HTM    S1724733   1.364   6.068  11.050 -0.1680 -0.3681 -0.0957
   34TAL   C16524734   1.650   5.811  10.922  0.2134 -0.2493  0.4394
   34TAL   C16624735   1.714   5.724  11.026 -0.4006  0.0172  0.4096
   34TAL   C16724736   1.782   5.621  10.947 -0.9468 -0.4309 -0.5034
   34TAL   C16824737   1.921   5.568  10.991 -1.3721  0.0457 -0.3998
   34TAL   C16924738   2.021   5.682  11.004  0.6635 -0.8995 -0.4571
   34TAL   C17024739   2.152   5.629  10.952  0.0010 -1.2786  0.8896
   35HTM   C17124740   1.334   5.812  10.945  0.1865  0.0165  0.0783
   35HTM   C17224741   1.220   5.836  10.874  0.1095  0.3036  0.2966
   35HTM   C17324742   1.144   5.717  10.845 -0.3754  0.5214  0.6540
   35HTM   C17424743   1.199   5.603  10.894 -0.6681  0.4001  0.7082
   35HTM    S1824744   1.354   5.636  10.981 -0.3516 -0.0014  0.3090
   36TAL   C17524745   1.011   5.745  10.776  0.4346  0.5158  0.9405
   36TAL   C17624746   0.983   5.814  10.637 -0.1310 -0.2166 -0.0145
   36TAL   C17724747   0.995   5.726  10.512 -0.2702  1.2478  0.4139
   36TAL   C17824748   1.135   5.665  10.467 -0.4125 -0.5883  0.8628
   36TAL   C17924749   1.226   5.787  10.429  0.4183  0.0515  0.8907
   36TAL   C18024750   1.362   5.754  10.392 -0.9080  0.1363  0.2881
   37HTM   C18124751   1.146   5.466  10.906  0.3717  0.3385 -0.5974
   37HTM   C18224752   1.192   5.363  10.981  0.2820  0.7954  0.1062
   37HTM   C18324753   1.118   5.240  10.964 -0.0479  0.8175  1.2011
   37HTM   C18424754   1.015   5.251  10.875 -0.2097  0.3775  1.3324
   37HTM    S1924755   1.003   5.417  10.807  0.0439 -0.1030  0.0736
   38TAL   C18524756   1.149   5.118  11.039 -1.3869  0.3557  0.1808
   38TAL   C18624757   1.118   5.140  11.190 -0.5327 -0.5438 -0.4341
   38TAL   C18724758   0.970   5.139  11.236 -0.2801 -0.2841 -0.3331
   38TAL   C18824759   0.904   5.007  11.193 -0.7306 -0.0767  0.1917
   38TAL   C18924760   0.770   4.967  11.245  0.2980  0.2293 -1.0718
   38TAL   C19024761   0.684   4.892  11.160 -0.2314 -0.3129 -0.2441
   39HTM   C19124762   0.915   5.150  10.847  0.3641 -0.1968  0.1312
   39HTM   C19224763   0.919   5.020  10.805  0.4803 -0.0771 -0.2288
   39HTM   C19324764   0.790   4.963  10.780  0.5390 -0.0669 -0.5782
   39HTM   C19424765   0.686   5.049  10.804  0.4674 -0.1786 -0.4847
   39HTM    S2024766   0.746   5.210  10.860  0.3193 -0.3066  0.0562
   40TAL   C19524767   0.767   4.818  10.735 -0.1385  0.3579  0.6606
   40TAL   C19624768   0.828   4.770  10.601 -0.2899  0.0691  0.5228
   40TAL   C19724769   0.774   4.817  10.475  0.0586 -1.0240  0.2811
   40TAL   C19824770   0.631   4.797  10.438 -0.3163  0.4158  0.5577
   40TAL   C19924771   0.557   4.664  10.455  0.5596 -0.7479 -0.0346
   40TAL   C20024772   0.411   4.690  10.436  0.7396 -0.2221 -0.6595
   41HTM   C20124773   0.538   5.044  10.780 -0.0298  0.0505 -0.1078
   41HTM   C20224774   0.458   5.135  10.717 -0.0916 -0.2090 -0.4079
   41HTM   C20324775   0.322   5.090  10.700 -0.0430 -0.3874 -0.3286
   41HTM   C20424776   0.299   4.965  10.750  0.0558 -0.2639  0.0320
   41HTM    S2124777   0.448   4.894  10.823  0.0954  0.0900  0.3015
   42TAL   C20524778   0.202   5.179  10.659  0.5029 -0.4379  0.0101
   42TAL   C20624779   0.220   5.292  10.558  0.9761 -0.6278 -0.9182
   42TAL   C20724780   0.086   5.369  10.539  0.3519  0.6909  0.8366
   42TAL   C20824781   0.103   5.510  10.476 -0.3522 -0.0061 -0.0736
   42TAL   C20924782  -0.019   5.597  10.494  0.1072  0.3237 -0.5577
   42TAL   C21024783   0.010   5.714  10.406  1.0936  0.1580 -0.2179
   43HTM   C21124784   0.177   4.885  10.770 -0.2847  0.1279 -0.4547
   43HTM   C21224785   0.090   4.827  10.684 -0.8685  0.2828  0.0179
   43HTM   C21324786  -0.012   4.749  10.749 -0.5379  0.2987  0.5707
   43HTM   C21424787  -0.003   4.747  10.885  0.2981  0.1559  0.5197
   43HTM    S2224788   0.137   4.846  10.942  0.7360 -0.0109 -0.2364
   44TAL   C21524789  -0.110   4.682  10.651 -0.3143  0.7117 -0.0865
   44TAL   C21624790  -0.085   4.547  10.593 -0.4467 -0.2700  0.1087
   44TAL   C21724791  -0.230   4.508  10.559 -0.1925  1.2016 -0.3235
   44TAL   C21824792  -0.291   4.385  10.636  0.1869  0.8405 -0.2791
   44TAL   C21924793  -0.401   4.406  10.744 -0.3467  0.3610 -0.0116
   44TAL   C22024794  -0.460   4.268  10.772  0.7512 -0.8798 -0.2113
   45HTM   C22124795  -0.089   4.686  10.976  0.4469  0.2743 -0.1442
   45HTM   C22224796  -0.223   4.657  10.976  0.4995 -0.0075 -0.8143
   45HTM   C22324797  -0.272   4.613  11.104  0.0026 -0.3932 -1.1305
   45HTM   C22424798  -0.177   4.609  11.202 -0.4287 -0.4054 -0.7015
   45HTM    S2324799  -0.016   4.660  11.139 -0.2394  0.0728  0.1416
   46TAL   C22524800  -0.420   4.599  11.134  0.5048  0.4310 -0.6663
   46TAL   C22624801  -0.522   4.689  11.083  0.8578 -0.1247 -0.7433
   46TAL   C22724802  -0.653   4.713  11.158 -0.7327  0.7125 -0.3913
   46TAL   C22824803  -0.763   4.608  11.153  0.7038 -0.3748 -0.3140
   46TAL   C22924804  -0.895   4.675  11.204  0.4150  0.8859  0.2076
   46TAL   C23024805  -0.910   4.751  11.334 -0.8574  0.7646 -0.3801
   47HTM   C23124806  -0.191   4.585  11.339 -0.6048  0.1144  0.0682
   47HTM   C23224807  -0.256   4.472  11.381 -1.5936  0.6479  0.0411
   47HTM   C23324808  -0.252   4.452  11.523 -1.7307  0.5540  0.0321
   47HTM   C23424809  -0.184   4.549  11.591 -0.8466 -0.0512  0.0524
   47HTM    S2424810  -0.120   4.675  11.478  0.2362 -0.5533  0.0845
   48TAL   C23524811  -0.327   4.332  11.575 -0.2706  0.1785  0.7828
   48TAL   C23624812  -0.305   4.297  11.718 -0.5500  0.2795  0.3329
   48TAL   C23724813  -0.318   4.153  11.751 -0.4713 -0.2113  0.2229
   48TAL   C23824814  -0.416   4.114  11.864  0.0782 -0.9906  0.3188
   48TAL   C23924815  -0.458   3.975  11.900  0.3094  0.3472  0.8695
   48TAL   C24024816  -0.568   3.930  11.808  0.7611  0.6990  1.1863
    1HTM     C124817   7.120   4.591   9.634  0.5874 -0.1629 -0.3725
    1HTM     C224818   7.083   4.501   9.729  1.1491 -0.0608 -0.0432
    1HTM     C324819   7.036   4.376   9.675  1.0045 -0.1919  0.3772
    1HTM     C424820   7.037   4.371   9.539  0.3326 -0.3941  0.3683
    1HTM     S124821   7.099   4.525   9.468 -0.1735 -0.4349 -0.1761
    2TAL     C524822   7.003   4.261   9.765  0.5571  0.6457 -0.2102
    2TAL     C624823   7.071   4.123   9.745 -1.0722 -0.4936  0.4367
    2TAL     C724824   7.224   4.147   9.754  0.5826  0.0905 -0.3438
    2TAL     C824825   7.318   4.033   9.779 -0.2149 -0.2073  0.0083
    2TAL     C924826   7.279   3.954   9.907  0.8560  0.5753 -0.2942
    2TAL    C1024827   7.347   3.825   9.931  0.5056 -0.3002  0.3831
    3HTM    C1124828   7.002   4.271   9.441 -0.4732  0.7140  0.6355
    3HTM    C1224829   7.077   4.228   9.335 -0.1954  1.3268  0.5753
    3HTM    C1324830   7.018   4.118   9.263  0.3276  1.2795  0.2062
    3HTM    C1424831   6.898   4.077   9.314  0.4487  0.6306 -0.0145
    3HTM     S224832   6.851   4.175   9.458 -0.0927  0.0243  0.2279
    4TAL    C1524833   7.094   4.045   9.154 -0.1493  0.0860  0.1109
    4TAL    C1624834   7.078   4.107   9.019  0.0694  0.7396  0.9669
    4TAL    C1724835   7.091   4.004   8.905 -0.8960 -0.4939 -0.6877
    4TAL    C1824836   7.234   4.000   8.845 -0.8574  0.3353  0.5601
    4TAL    C1924837   7.238   3.911   8.718  0.0126  0.3636 -1.2276
    4TAL    C2024838   7.354   3.937   8.630  0.6442 -0.9209  0.1450
    5HTM    C2124839   6.804   3.982   9.256  0.0209  0.2442  0.5925
    5HTM    C2224840   6.821   3.885   9.161  0.4948  0.1020  0.8147
    5HTM    C2324841   6.698   3.820   9.123  0.6922  0.0024  0.3450
    5HTM    C2424842   6.588   3.867   9.188  0.3689  0.0686 -0.2350
    5HTM     S324843   6.631   3.998   9.304 -0.2146  0.2634 -0.2333
    6TAL    C2524844   6.680   3.715   9.002  0.0405 -0.5573 -0.1173
    6TAL    C2624845   6.733   3.745   8.871  0.0654  0.5155  0.9790
    6TAL    C2724846   6.887   3.729   8.842  0.3261  1.3635 -0.8320
    6TAL    C2824847   6.940   3.577   8.824  0.8056  0.0397 -0.4610
    6TAL    C2924848   6.959   3.490   8.947  0.0904 -0.8396  0.4535
    6TAL    C3024849   6.994   3.355   8.901 -0.0202  0.5783 -1.1091
    7HTM    C3124850   6.448   3.822   9.201 -0.0774 -0.3589  0.1092
    7HTM    C3224851   6.354   3.824   9.102  0.0398 -0.6450 -0.0098
    7HTM    C3324852   6.220   3.799   9.148 -0.0097 -0.5555 -0.1044
    7HTM    C3424853   6.212   3.779   9.283 -0.1645 -0.2011 -0.0572
    7HTM     S424854   6.374   3.789   9.362 -0.2607  0.0489  0.1109
    8TAL    C3524855   6.114   3.793   9.053  0.9631  1.1529 -0.5062
    8TAL    C3624856   6.028   3.657   9.048 -0.6128 -0.9513  0.1563
    8TAL    C3724857   5.889   3.689   9.000  0.7728  0.0979  1.0066
    8TAL    C3824858   5.800   3.569   9.030  0.8639  1.2437  0.3678
    8TAL    C3924859   5.675   3.557   8.947 -0.3385 -0.7106 -0.3421
    8TAL    C4024860   5.591   3.450   9.030 -0.6478 -1.2288  0.3106
    9HTM    C4124861   6.099   3.777   9.365  0.0721 -0.0806 -0.2688
    9HTM    C4224862   6.012   3.879   9.391  0.5126  0.2910 -0.2134
    9HTM    C4324863   5.910   3.844   9.486  0.4914  0.7589 -0.0625
    9HTM    C4424864   5.919   3.717   9.533  0.0347  0.7441 -0.0029
    9HTM     S524865   6.059   3.629   9.460 -0.4074  0.1333 -0.1334
   10TAL    C4524866   5.802   3.938   9.525 -0.1420 -0.3351 -0.3914
   10TAL    C4624867   5.683   3.954   9.434  0.0401 -0.3934 -0.6381
   10TAL    C4724868   5.573   4.069   9.456  0.2288  0.3805  0.1088
   10TAL    C4824869   5.502   4.060   9.586  0.7131  0.3021 -0.1551
   10TAL    C4924870   5.416   4.172   9.628  0.2737 -0.3215  0.1416
   10TAL    C5024871   5.337   4.131   9.759  0.2536 -0.6890  0.1444
   11HTM    C5124872   5.846   3.632   9.625  0.7844  0.1728 -0.0068
   11HTM    C5224873   5.771   3.524   9.589  1.3070 -0.0300 -0.5112
   11HTM    C5324874   5.742   3.434   9.698  0.8715 -0.1370 -0.7117
   11HTM    C5424875   5.795   3.474   9.817  0.0166 -0.0158 -0.3600
   11HTM     S624876   5.886   3.629   9.801 -0.3071  0.2448  0.2563
   12TAL    C5524877   5.654   3.314   9.671  0.0273  0.2958 -0.3647
   12TAL    C5624878   5.647   3.254   9.528 -0.2004 -0.7780 -0.8218
   12TAL    C5724879   5.787   3.231   9.469  0.1831  0.2476 -0.3852
   12TAL    C5824880   5.772   3.220   9.317  0.6568  0.3019 -0.1839
   12TAL    C5924881   5.907   3.238   9.250  0.0372 -0.7952 -0.2716
   12TAL    C6024882   6.025   3.145   9.283 -0.2010  0.4736  0.7932
   13HTM    C6124883   5.815   3.401   9.941  0.3143  0.1169  0.0003
   13HTM    C6224884   5.735   3.404  10.051  0.2029  0.2945 -0.0859
   13HTM    C6324885   5.784   3.326  10.162 -0.0520  0.2422 -0.0071
   13HTM    C6424886   5.902   3.263  10.136 -0.1349  0.0246  0.1391
   13HTM     S724887   5.960   3.298   9.969  0.1044 -0.1323  0.1890
   14TAL    C6524888   5.698   3.319  10.288  0.7279 -0.0313  0.2782
   14TAL    C6624889   5.691   3.450  10.384 -0.2627  0.0541  0.9519
   14TAL    C6724890   5.823   3.526  10.424 -0.5155 -0.4811 -0.3941
   14TAL    C6824891   5.824   3.641  10.532  0.3138 -0.0659  0.1978
   14TAL    C6924892   5.744   3.636  10.666 -0.0524  0.9679 -0.3039
   14TAL    C7024893   5.767   3.760  10.743 -1.1942  0.0506 -0.2886
   15HTM    C7124894   5.977   3.186  10.231  0.4289  0.5136  0.0017
   15HTM    C7224895   6.105   3.141  10.217  0.4872  0.5799  0.3095
   15HTM    C7324896   6.147   3.052  10.323  0.2176  0.4598  0.3174
   15HTM    C7424897   6.051   3.030  10.417 -0.0464  0.3020  0.0155
   15HTM     S824898   5.899   3.120  10.379  0.0257  0.2927 -0.3046
   16TAL    C7524899   6.297   3.025  10.317 -0.1619 -0.2677  0.8645
   16TAL    C7624900   6.350   2.884  10.335  0.1406  0.6848 -0.1591
   16TAL    C7724901   6.498   2.869  10.378  0.1051  0.2304 -0.0276
   16TAL    C7824902   6.545   2.718  10.396  0.7436 -0.7228  0.0065
   16TAL    C7924903   6.680   2.677  10.450  0.2089 -0.2311 -0.5110
   16TAL    C8024904   6.803   2.748  10.399  0.1258  0.6607  0.5727
   17HTM    C8124905   6.047   2.937  10.540  0.4196 -0.2282  0.5765
   17HTM    C8224906   6.093   2.809  10.547  0.2503 -0.2893  0.5771
   17HTM    C8324907   6.050   2.739  10.665 -0.2006 -0.3740  0.3663
   17HTM    C8424908   5.971   2.813  10.748 -0.3753 -0.3778  0.2051
   17HTM     S924909   5.945   2.979  10.683  0.0194 -0.2735  0.3077
   18TAL    C8524910   6.117   2.601  10.701  0.0591 -0.9524  0.1735
   18TAL    C8624911   6.096   2.474  10.619  0.2673  0.3696 -0.0121
   18TAL    C8724912   6.218   2.376  10.608 -0.3167 -0.7176 -0.0028
   18TAL    C8824913   6.191   2.226  10.595  0.0200  0.0193  0.2878
   18TAL    C8924914   6.230   2.155  10.722 -0.3522  0.5506 -0.0195
   18TAL    C9024915   6.194   2.008  10.718 -0.4022  0.2567  0.4522
   19HTM    C9124916   5.929   2.777  10.885  1.1603 -0.3143  0.1787
   19HTM    C9224917   5.992   2.834  10.991  1.4186 -0.9701  0.3841
   19HTM    C9324918   5.990   2.752  11.110  0.5354 -1.1437  0.2656
   19HTM    C9424919   5.926   2.633  11.093 -0.3962 -0.6204 -0.0302
   19HTM    S1024920   5.862   2.615  10.926 -0.2291  0.1382 -0.1833
   20TAL    C9524921   6.042   2.797  11.244  0.3693  0.2113 -0.0436
   20TAL    C9624922   6.091   2.935  11.255  0.4935 -1.3377 -0.7304
   20TAL    C9724923   6.120   2.958  11.401  0.4571  1.1209  0.4372
   20TAL    C9824924   6.136   3.103  11.440  0.5468  0.0120  0.2562
   20TAL    C9924925   6.256   3.184  11.385  0.3182 -0.3941  0.4253
   20TAL   C10024926   6.384   3.125  11.450 -1.0218  0.5329 -0.1610
   21HTM   C10124927   5.938   2.515  11.168 -0.4518 -0.1930  0.0528
   21HTM   C10224928   6.012   2.404  11.140 -0.2903 -0.1191  0.1797
   21HTM   C10324929   6.008   2.303  11.243  0.1094  0.1223  0.4349
   21HTM   C10424930   5.931   2.338  11.350  0.2528  0.2325  0.5026
   21HTM    S1124931   5.858   2.501  11.329 -0.1088  0.0384  0.2473
   22TAL   C10524932   6.081   2.165  11.226  0.7154 -0.2438 -0.2156
   22TAL   C10624933   6.063   2.094  11.092  0.0338  0.0884 -1.0441
   22TAL   C10724934   5.921   2.066  11.051  0.2297 -0.9511  0.9152
   22TAL   C10824935   5.827   1.993  11.144  0.0641  0.6171 -0.3849
   22TAL   C10924936   5.688   2.059  11.150 -0.7648  0.1807 -0.4913
   22TAL   C11024937   5.592   2.015  11.258 -0.3226  0.0165  0.0410
   23HTM   C11124938   5.892   2.266  11.467  0.0450  0.6375  0.3612
   23HTM   C11224939   5.771   2.267  11.530  0.0421  0.4877  0.3576
   23HTM   C11324940   5.769   2.191  11.652 -0.0674 -0.1241 -0.0141
   23HTM   C11424941   5.888   2.133  11.683 -0.1478 -0.4408 -0.2939
   23HTM    S1224942   6.014   2.169  11.558 -0.0911  0.0126 -0.1082
   24TAL   C11524943   5.637   2.200  11.743 -0.4668  0.7654  0.2761
   24TAL   C11624944   5.572   2.328  11.788 -0.1325  0.1137 -0.8939
   24TAL   C11724945   5.434   2.325  11.861 -0.6236 -0.6538  0.5144
   24TAL   C11824946   5.403   2.237  11.980 -0.5184 -0.0427  0.0789
   24TAL   C11924947   5.280   2.279  12.068 -1.0237 -0.1194 -0.1569
   24TAL   C12024948   5.153   2.316  12.001  1.0442 -0.2469 -0.2633
   25HTM   C12124949   5.935   2.073  11.799  0.2560  0.4842 -0.3084
   25HTM   C12224950   5.895   2.081  11.929  0.2327  0.7897 -0.3341
   25HTM   C12324951   5.977   2.005  12.020 -0.1358  0.5229 -0.2211
   25HTM   C12424952   6.079   1.939  11.959 -0.3934  0.0139 -0.1093
   25HTM    S1324953   6.080   1.967  11.781 -0.1892 -0.1693 -0.1382
   26TAL   C12524954   5.937   2.009  12.168  0.4181  0.7267  0.8448
   26TAL   C12624955   5.808   1.940  12.222 -0.9837  0.1773 -0.5824
   26TAL   C12724956   5.822   1.796  12.250 -0.8862 -1.1290 -0.4912
   26TAL   C12824957   5.697   1.709  12.247 -0.6529 -0.1912 -0.5234
   26TAL   C12924958   5.675   1.631  12.384 -0.8688  0.6866  1.9435
   26TAL   C13024959   5.800   1.545  12.422 -0.8918 -0.0871  0.9241
   27HTM   C13124960   6.178   1.849  12.025  0.0643 -0.6751 -0.0681
   27HTM   C13224961   6.285   1.791  11.963  0.0075 -0.9409  0.0793
   27HTM   C13324962   6.384   1.739  12.054  0.0700 -0.5926  0.2109
   27HTM   C13424963   6.353   1.758  12.185  0.1744 -0.0612  0.1640
   27HTM    S1424964   6.195   1.843  12.205  0.2022  0.0413 -0.0519
   28TAL   C13524965   6.498   1.649  12.004  0.0554  0.0996 -1.0307
   28TAL   C13624966   6.634   1.715  12.030  0.1015  0.3457  0.8360
   28TAL   C13724967   6.735   1.605  12.057  0.0425  0.0060 -0.5455
   28TAL   C13824968   6.783   1.522  11.929 -1.5975 -0.2861  0.5443
   28TAL   C13924969   6.904   1.435  11.935 -0.3733  0.0968  1.5873
   28TAL   C14024970   7.035   1.479  11.866 -0.4152 -0.9596 -0.9551
   29HTM   C14124971   6.431   1.706  12.299  0.0380 -0.5954  0.4173
   29HTM   C14224972   6.490   1.588  12.332  0.8380 -0.1596  0.5940
   29HTM   C14324973   6.557   1.589  12.459  1.2063  0.6019  0.4029
   29HTM   C14424974   6.549   1.709  12.524  0.6874  0.7467  0.0805
   29HTM    S1524975   6.455   1.830  12.429 -0.3146 -0.0738 -0.0074
   30TAL   C14524976   6.621   1.462  12.507  0.7228  1.3791  0.3763
   30TAL   C14624977   6.564   1.322  12.528 -0.2869  0.2062  0.6749
   30TAL   C14724978   6.538   1.267  12.390 -1.1952  0.6806 -0.5451
   30TAL   C14824979   6.490   1.120  12.402 -0.2634 -1.0071 -0.6169
   30TAL   C14924980   6.361   1.086  12.467  0.5774  0.7283 -0.4881
   30TAL   C15024981   6.246   1.191  12.448  0.4284  0.3738  0.3267
   31HTM   C15124982   6.592   1.736  12.659 -0.1672  0.6068  0.1322
   31HTM   C15224983   6.514   1.771  12.765 -0.1677  0.1041  0.3006
   31HTM   C15324984   6.585   1.779  12.890 -0.1392 -0.3453  0.3157
   31HTM   C15424985   6.718   1.750  12.879 -0.1171 -0.1851  0.1587
   31HTM    S1624986   6.763   1.711  12.709 -0.1304  0.5514 -0.0217
   32TAL   C15524987   6.500   1.799  13.007 -0.4684  0.4634 -1.3658
   32TAL   C15624988   6.469   1.685  13.107 -0.0279  0.2744  0.1469
   32TAL   C15724989   6.326   1.630  13.147 -1.1110 -0.1999 -0.1529
   32TAL   C15824990   6.244   1.568  13.034 -0.2475  0.5916 -0.4405
   32TAL   C15924991   6.287   1.426  12.993  0.1800  0.5756  1.0153
   32TAL   C16024992   6.278   1.310  13.091  0.2844 -0.4789  0.4566
   33HTM   C16124993   6.828   1.742  12.976  0.6869  0.2959 -0.1890
   33HTM   C16224994   6.890   1.860  13.006  0.7025  0.3072 -0.2674
   33HTM   C16324995   7.029   1.846  13.040  0.6258  0.2776  0.0353
   33HTM   C16424996   7.073   1.717  13.037  0.5514  0.2437  0.3446
   33HTM    S1724997   6.942   1.603  12.990  0.5730  0.2467  0.2768
   34TAL   C16524998   7.134   1.956  13.047  0.3766  1.8466 -0.2912
   34TAL   C16624999   7.122   2.068  12.967  1.3447  0.7938 -0.5290
   34TAL   C16725000   7.180   2.200  13.013 -0.5650  0.0807 -0.0327
   34TAL   C16825001   7.182   2.243  13.157  0.5944 -1.1832  0.3848
   34TAL   C16925002   7.261   2.367  13.188 -0.4407 -0.3868  0.1044
   34TAL   C17025003   7.254   2.419  13.324  0.3117 -0.3744 -0.1825
   35HTM   C17125004   7.196   1.653  13.077 -0.3500 -0.4202  0.5691
   35HTM   C17225005   7.255   1.553  13.006 -0.5304 -0.4508  0.4606
   35HTM   C17325006   7.383   1.513  13.059 -0.3515 -0.3629  0.1009
   35HTM   C17425007   7.421   1.581  13.170 -0.0349 -0.2654 -0.0649
   35HTM    S1825008   7.298   1.704  13.218  0.0628 -0.2770  0.2226
   36TAL   C17525009   7.471   1.410  12.986  0.4436 -0.1917 -0.2267
   36TAL   C17625010   7.500   1.408  12.836  0.4721  0.0525 -0.4117
   36TAL   C17725011   7.575   1.524  12.795  0.4989 -0.2331 -0.0700
   36TAL   C17825012   7.713   1.557  12.845 -0.1814  0.3842 -0.0633
   36TAL   C17925013   7.762   1.679  12.765 -0.2788 -0.1343  0.2223
   36TAL   C18025014   7.878   1.768  12.832 -0.6551  0.0599  0.1563
   37HTM   C18125015   7.538   1.564  13.255  0.0947  0.1577  0.2354
   37HTM   C18225016   7.662   1.549  13.200  0.1913  0.2308  0.4318
   37HTM   C18325017   7.769   1.585  13.288  0.0362  0.1370  0.6602
   37HTM   C18425018   7.727   1.628  13.411 -0.1787 -0.0076  0.6378
   37HTM    S1925019   7.547   1.625  13.424 -0.2019 -0.0367  0.3242
   38TAL   C18525020   7.909   1.533  13.251 -0.4911 -0.7565 -0.7244
   38TAL   C18625021   7.983   1.608  13.134 -0.9673 -1.8055  0.9947
   38TAL   C18725022   8.132   1.584  13.129  0.9034 -0.6799 -0.2814
   38TAL   C18825023   8.211   1.646  13.018  0.8673 -0.4879  0.0204
   38TAL   C18925024   8.344   1.577  13.008 -0.6038 -0.4497 -0.0843
   38TAL   C19025025   8.423   1.642  12.896  0.3420 -0.1478 -0.8913
   39HTM   C19125026   7.803   1.684  13.524 -0.6753 -0.1916  0.8058
   39HTM   C19225027   7.763   1.800  13.583 -0.6766 -0.4718  1.3636
   39HTM   C19325028   7.866   1.865  13.660 -0.4374 -0.4116  0.9918
   39HTM   C19425029   7.985   1.799  13.658 -0.2531 -0.0854  0.1502
   39HTM    S2025030   7.976   1.649  13.560 -0.3687  0.1731 -0.2407
   40TAL   C19525031   7.857   1.986  13.745 -0.0003 -0.5197  0.2685
   40TAL   C19625032   7.781   2.110  13.701  0.8461 -0.2458  0.6493
   40TAL   C19725033   7.821   2.180  13.575  0.1907 -0.6364 -0.1186
   40TAL   C19825034   7.739   2.310  13.577 -0.5046  0.4214 -0.0648
   40TAL   C19925035   7.748   2.398  13.450  0.5787  1.3568  0.4971
   40TAL   C20025036   7.890   2.446  13.410 -0.1599  0.3843  0.0993
   41HTM   C20125037   8.120   1.819  13.710 -0.0076 -0.6315  0.0447
   41HTM   C20225038   8.197   1.930  13.696 -0.4637 -0.3394 -0.1731
   41HTM   C20325039   8.326   1.920  13.758 -0.4179  0.3159 -0.1408
   41HTM   C20425040   8.349   1.799  13.818  0.0734  0.5234  0.1016
   41HTM    S2125041   8.206   1.690  13.802  0.5195 -0.0975  0.3094
   42TAL   C20525042   8.429   2.027  13.722  0.3838 -0.0894  0.3415
   42TAL   C20625043   8.512   1.997  13.604  0.7831 -0.5345  1.7035
   42TAL   C20725044   8.611   2.114  13.581  0.2483  0.8101 -1.2842
   42TAL   C20825045   8.726   2.068  13.505 -0.1969  0.5223 -0.8760
   42TAL   C20925046   8.811   2.174  13.449  0.1334 -0.3017 -0.2743
   42TAL   C21025047   8.736   2.292  13.374 -0.0906  0.9420  0.1802
   43HTM   C21125048   8.470   1.763  13.890  0.5105  0.8114  0.3305
   43HTM   C21225049   8.532   1.812  14.002  1.1907  0.4315  0.1349
   43HTM   C21325050   8.660   1.752  14.028  0.8266 -0.5276 -0.1757
   43HTM   C21425051   8.696   1.658  13.937 -0.1308 -0.8790 -0.2169
   43HTM    S2225052   8.571   1.636  13.810 -0.6513 -0.0192  0.1362
   44TAL   C21525053   8.748   1.803  14.150 -1.5749  0.2031 -0.3892
   44TAL   C21625054   8.703   1.923  14.226 -1.0884 -0.8398 -0.7413
   44TAL   C21725055   8.800   1.944  14.348 -0.4454  0.5473 -0.6063
   44TAL   C21825056   8.772   2.057  14.452 -0.0703 -0.4356 -0.4168
   44TAL   C21925057   8.856   2.043  14.578  0.3163 -0.2497 -0.6500
   44TAL   C22025058   8.853   2.181  14.662 -1.3430 -0.3119  0.1689
   45HTM   C22125059   8.815   1.575  13.919 -0.2601 -0.0466 -0.0144
   45HTM   C22225060   8.902   1.534  14.015 -0.1760 -0.2423 -0.1733
   45HTM   C22325061   9.018   1.467  13.963 -0.0968  0.0900 -0.4300
   45HTM   C22425062   9.019   1.457  13.827 -0.1205  0.5390 -0.4666
   45HTM    S2325063   8.872   1.532  13.754 -0.2456  0.5773 -0.1775
   46TAL   C22525064   9.127   1.425  14.060 -0.3181  0.1493  0.1781
   46TAL   C22625065   9.122   1.270  14.106  1.3276 -0.2548  0.8666
   46TAL   C22725066   9.229   1.240  14.214  0.2606  0.3805  0.3697
   46TAL   C22825067   9.369   1.268  14.160 -0.0212  0.1976 -0.5388
   46TAL   C22925068   9.433   1.158  14.072  1.3938 -1.0331 -0.4041
   46TAL   C23025069   9.581   1.192  14.058 -0.1770  0.6821 -0.1307
   47HTM   C23125070   9.112   1.387  13.736  0.2455 -0.0572  0.0664
   47HTM   C23225071   9.083   1.323  13.619  0.3033  0.3060 -0.1507
   47HTM   C23325072   9.197   1.263  13.556  0.2892  0.2567 -0.1302
   47HTM   C23425073   9.314   1.281  13.624  0.2203 -0.1440  0.1025
   47HTM    S2425074   9.288   1.377  13.775  0.1680 -0.4930  0.3154
   48TAL   C23525075   9.201   1.196  13.411  0.8128 -0.0455 -0.1011
   48TAL   C23625076   9.151   1.273  13.286  0.3679 -0.3596 -0.4458
   48TAL   C23725077   9.160   1.188  13.164  0.3448 -0.0318 -0.5258
   48TAL   C23825078   9.294   1.184  13.089 -0.4919  0.0742 -0.9389
   48TAL   C23925079   9.287   1.073  12.984 -0.5391  0.4471  0.3493
   48TAL   C24025080   9.223   1.116  12.844  0.1052  0.9509 -0.4194
    1HTM     C125081   0.168   3.192   4.724  0.3890  0.3060 -0.1121
    1HTM     C225082   0.108   3.203   4.602 -0.0309  0.2057  0.0840
    1HTM     C325083   0.036   3.326   4.584 -0.6043 -0.0684  0.4524
    1HTM     C425084   0.041   3.409   4.692 -0.6216 -0.1772  0.5372
    1HTM     S125085   0.138   3.338   4.826  0.0905  0.0599  0.1556
    2TAL     C525086  -0.051   3.371   4.461 -0.2045  0.6125  0.0726
    2TAL     C625087  -0.075   3.280   4.339  1.3109  0.4362  0.6283
    2TAL     C725088   0.008   3.309   4.223 -0.9414 -0.5118 -0.2071
    2TAL     C825089  -0.017   3.197   4.120 -1.3943  0.4815  0.2969
    2TAL     C925090  -0.148   3.185   4.051  0.4230 -0.1012 -0.2015
    2TAL    C1025091  -0.198   3.302   3.971 -0.5788  0.3108  0.4160
    3HTM    C1125092  -0.020   3.543   4.718 -0.0436  0.2722 -0.1770
    3HTM    C1225093  -0.061   3.640   4.632 -0.1357  0.3063 -0.0957
    3HTM    C1325094  -0.095   3.765   4.696  0.0308  0.3135 -0.0207
    3HTM    C1425095  -0.080   3.762   4.831  0.2490  0.2850 -0.0447
    3HTM     S225096  -0.021   3.602   4.889  0.2620  0.2464 -0.1647
    4TAL    C1525097  -0.140   3.876   4.613  0.7096  0.3225 -0.1602
    4TAL    C1625098  -0.277   3.882   4.540 -1.0835 -0.1970 -0.2195
    4TAL    C1725099  -0.282   4.017   4.472  0.0698 -0.2091  0.7109
    4TAL    C1825100  -0.419   4.059   4.416  0.1424  0.6453 -0.1763
    4TAL    C1925101  -0.418   4.112   4.272 -0.2751  0.0161 -0.0560
    4TAL    C2025102  -0.551   4.135   4.212  0.1982 -0.7452  0.2387
    5HTM    C2125103  -0.149   3.854   4.916 -0.6094 -0.3591 -0.3236
    5HTM    C2225104  -0.184   3.827   5.046 -0.6645 -0.5332 -0.3743
    5HTM    C2325105  -0.225   3.943   5.120 -0.4988 -0.6005 -0.1760
    5HTM    C2425106  -0.222   4.059   5.048 -0.3177 -0.4777  0.0259
    5HTM     S325107  -0.166   4.030   4.879 -0.3423 -0.2657 -0.0194
    6TAL    C2525108  -0.302   3.943   5.251  1.6096  0.0336 -0.0532
    6TAL    C2625109  -0.433   3.862   5.267  0.8587  0.3790 -0.2041
    6TAL    C2725110  -0.542   3.899   5.166 -0.2616 -0.5350 -0.0978
    6TAL    C2825111  -0.686   3.855   5.195  0.3741  0.4694 -0.6077
    6TAL    C2925112  -0.784   3.871   5.082  0.5111  0.5483  0.4223
    6TAL    C3025113  -0.762   3.798   4.955 -0.1306 -0.3454  1.1316
    7HTM    C3125114  -0.262   4.193   5.081 -0.0473 -0.1397  0.3449
    7HTM    C3225115  -0.385   4.252   5.066 -0.1128 -0.2669  0.3810
    7HTM    C3325116  -0.381   4.396   5.069 -0.2236 -0.2569  0.0938
    7HTM    C3425117  -0.256   4.447   5.086 -0.2429 -0.1220 -0.1613
    7HTM     S425118  -0.132   4.317   5.100 -0.1213  0.0038 -0.0577
    8TAL    C3525119  -0.510   4.453   5.038  0.1630 -0.1141 -0.4066
    8TAL    C3625120  -0.555   4.595   5.105 -0.4389  0.8977 -0.0716
    8TAL    C3725121  -0.672   4.675   5.041  0.1034  0.7583 -0.0404
    8TAL    C3825122  -0.813   4.613   5.038 -0.4667  1.6409 -0.2015
    8TAL    C3925123  -0.919   4.701   5.093  0.6129  0.2782  0.1547
    8TAL    C4025124  -1.020   4.667   5.209  0.3470  0.0844  0.1229
    9HTM    C4125125  -0.217   4.588   5.089 -0.0112  0.3806  0.4563
    9HTM    C4225126  -0.188   4.665   5.198 -0.3300  0.7671  0.2716
    9HTM    C4325127  -0.161   4.803   5.166 -0.4871  0.7117 -0.1091
    9HTM    C4425128  -0.169   4.831   5.033 -0.2883  0.2828 -0.2148
    9HTM     S525129  -0.212   4.684   4.937  0.1160 -0.0873  0.1614
   10TAL    C4525130  -0.128   4.913   5.263 -0.2332  0.9692  0.9016
   10TAL    C4625131   0.012   4.900   5.339  1.0285  0.2456 -0.4291
   10TAL    C4725132   0.046   4.778   5.439  0.3611 -0.7337  0.9534
   10TAL    C4825133  -0.029   4.737   5.567  0.5817 -1.4954  0.0379
   10TAL    C4925134  -0.162   4.670   5.550 -0.2724 -0.3690 -0.3853
   10TAL    C5025135  -0.156   4.526   5.524 -0.5350  0.1394  0.4744
   11HTM    C5125136  -0.136   4.945   4.953 -0.2423 -0.1372  0.0908
   11HTM    C5225137  -0.222   5.042   4.910 -0.1876 -0.3719 -0.5705
   11HTM    C5325138  -0.158   5.149   4.839 -0.0515 -0.6087 -0.8104
   11HTM    C5425139  -0.023   5.135   4.828 -0.0026 -0.5544 -0.3319
   11HTM     S625140   0.034   4.983   4.907 -0.1255 -0.1974  0.4650
   12TAL    C5525141  -0.253   5.262   4.787 -1.4112  0.2678 -0.9161
   12TAL    C5625142  -0.348   5.320   4.892 -0.6880  0.2336  0.7637
   12TAL    C5725143  -0.486   5.267   4.922  0.7376 -0.4393  0.2444
   12TAL    C5825144  -0.574   5.281   4.799 -0.7196 -0.0333  0.1935
   12TAL    C5925145  -0.619   5.423   4.765 -0.3927  0.1611  0.2728
   12TAL    C6025146  -0.686   5.427   4.635  0.0500  0.6891  0.8726
   13HTM    C6125147   0.083   5.219   4.776  0.1138 -0.0112 -0.1772
   13HTM    C6225148   0.096   5.281   4.655  0.0306  0.0541 -0.1532
   13HTM    C6325149   0.225   5.342   4.635 -0.0090  0.1292 -0.1789
   13HTM    C6425150   0.310   5.328   4.741  0.0440  0.1211 -0.2226
   13HTM     S725151   0.233   5.234   4.875  0.1488  0.0172 -0.2348
   14TAL    C6525152   0.240   5.425   4.511  0.7607 -1.0834  0.8003
   14TAL    C6625153   0.183   5.570   4.530 -0.2155 -0.2378 -0.3266
   14TAL    C6725154   0.195   5.642   4.398  0.4584  0.1119  1.4861
   14TAL    C6825155   0.309   5.739   4.389 -0.2046 -0.9942  0.4551
   14TAL    C6925156   0.320   5.845   4.499 -0.1701 -0.2112  0.5427
   14TAL    C7025157   0.378   5.977   4.447 -0.7971  1.2799  0.5357
   15HTM    C7125158   0.445   5.378   4.771  0.0392  0.2555  0.0405
   15HTM    C7225159   0.562   5.308   4.769 -0.2302 -0.2036  0.0798
   15HTM    C7325160   0.679   5.390   4.786  0.0862 -0.6628  0.1504
   15HTM    C7425161   0.652   5.523   4.802  0.5969 -0.5538  0.1652
   15HTM     S825162   0.474   5.555   4.795  0.7188  0.1427  0.0903
   16TAL    C7525163   0.825   5.337   4.775  0.0456  0.4779 -0.4697
   16TAL    C7625164   0.846   5.208   4.693  0.6921  1.4360 -0.2824
   16TAL    C7725165   0.814   5.207   4.546 -0.8814 -0.3167  0.6181
   16TAL    C7825166   0.901   5.282   4.450 -0.5671 -0.4804  0.3262
   16TAL    C7925167   0.839   5.262   4.315 -0.1139  1.0337  0.2011
   16TAL    C8025168   0.890   5.358   4.208 -0.3262  0.0557  0.0815
   17HTM    C8125169   0.741   5.630   4.844 -0.3603  0.1431  0.3129
   17HTM    C8225170   0.833   5.695   4.767 -0.4581  0.1596  0.2096
   17HTM    C8325171   0.920   5.782   4.842 -0.2200 -0.0235  0.1464
   17HTM    C8425172   0.895   5.783   4.976  0.0595 -0.1797  0.2015
   17HTM     S925173   0.758   5.673   5.018  0.0433 -0.1073  0.3386
   18TAL    C8525174   1.025   5.874   4.774 -0.0910 -0.2049  0.2792
   18TAL    C8625175   0.992   6.020   4.739  1.0683 -0.1658  0.8116
   18TAL    C8725176   0.851   6.074   4.741  0.3827 -0.3796 -1.3146
   18TAL    C8825177   0.835   6.219   4.736  0.1100 -1.1998 -0.9979
   18TAL    C8925178   0.689   6.251   4.756 -1.0360  0.7354  0.2442
   18TAL    C9025179   0.670   6.399   4.730  0.3394 -0.3165  1.1206
   19HTM    C9125180   0.964   5.854   5.076  0.4156 -0.1002 -0.2423
   19HTM    C9225181   1.071   5.810   5.148  0.5712  0.3809 -0.1690
   19HTM    C9325182   1.115   5.902   5.249  0.3311  0.7473 -0.3936
   19HTM    C9425183   1.041   6.017   5.255 -0.0076  0.5458 -0.6378
   19HTM    S1025184   0.910   6.017   5.131 -0.0499 -0.1279 -0.6031
   20TAL    C9525185   1.225   5.864   5.345  0.4285  0.3782 -0.5719
   20TAL    C9625186   1.216   5.721   5.408 -1.0396 -0.4236  0.3342
   20TAL    C9725187   1.136   5.715   5.533  1.1085 -0.4208  0.7478
   20TAL    C9825188   0.979   5.703   5.506 -0.5333 -0.7160  0.3402
   20TAL    C9925189   0.922   5.673   5.638 -0.2878  0.6592 -0.4082
   20TAL   C10025190   0.772   5.634   5.653 -0.2036 -0.6884 -0.3917
   21HTM   C10125191   1.052   6.145   5.328  0.9624  0.3933  0.1698
   21HTM   C10225192   1.057   6.177   5.460  1.7186  0.5251  0.1199
   21HTM   C10325193   1.060   6.319   5.486  1.7114  0.5531 -0.0343
   21HTM   C10425194   1.058   6.395   5.372  0.9498  0.4428 -0.1021
   21HTM    S1125195   1.051   6.293   5.224  0.1766  0.2936  0.0244
   22TAL   C10525196   1.058   6.377   5.621 -0.7070 -0.0230  0.3407
   22TAL   C10625197   1.124   6.294   5.738  0.0747 -0.0546 -0.0104
   22TAL   C10725198   1.273   6.313   5.757  0.6058  0.4892 -0.2770
   22TAL   C10825199   1.307   6.450   5.817 -0.2635 -0.3158  0.0779
   22TAL   C10925200   1.249   6.513   5.948  0.0856 -0.1084 -0.8670
   22TAL   C11025201   1.242   6.449   6.097 -0.1439 -0.3709  0.0198
   23HTM   C11125202   1.089   6.535   5.351  0.2802 -0.0872 -0.1004
   23HTM   C11225203   1.200   6.603   5.391  0.2812 -0.0209 -0.2147
   23HTM   C11325204   1.206   6.738   5.342  0.1335 -0.0058 -0.1925
   23HTM   C11425205   1.100   6.774   5.265  0.0197 -0.0607 -0.0613
   23HTM    S1225206   0.982   6.638   5.248  0.0909 -0.1363  0.0453
   24TAL   C11525207   1.316   6.833   5.394  0.2291 -0.1661  1.9137
   24TAL   C11625208   1.364   6.826   5.535 -0.6172 -0.4207  0.8713
   24TAL   C11725209   1.346   6.953   5.618  0.7892 -0.5457 -0.3844
   24TAL   C11825210   1.452   7.077   5.612 -1.0656  0.6360 -0.7577
   24TAL   C11925211   1.432   7.191   5.700 -0.0962  0.2347 -0.1043
   24TAL   C12025212   1.404   7.136   5.845 -0.8212 -0.2054  0.0403
   25HTM   C12125213   1.057   6.898   5.196 -1.0391 -0.1512 -0.3099
   25HTM   C12225214   1.072   6.909   5.061 -1.4865 -0.3788 -0.3829
   25HTM   C12325215   1.049   7.043   5.012 -0.8346 -0.2711 -0.4141
   25HTM   C12425216   1.016   7.133   5.109  0.1098  0.0389 -0.3650
   25HTM    S1325217   1.012   7.055   5.272  0.2502  0.2200 -0.2749
   26TAL   C12525218   1.050   7.084   4.866 -0.7968 -0.1618 -0.0848
   26TAL   C12625219   1.055   6.970   4.760 -0.7097 -0.9109 -0.1823
   26TAL   C12725220   0.947   6.882   4.769  0.1496  0.3337  0.3876
   26TAL   C12825221   0.905   6.839   4.629  0.6260 -0.5755  0.2335
   26TAL   C12925222   0.761   6.801   4.605 -0.5305  0.7414 -0.1077
   26TAL   C13025223   0.735   6.736   4.468 -0.2216  1.4706 -0.1480
   27HTM   C13125224   0.982   7.274   5.106 -0.4598  0.0476  0.8599
   27HTM   C13225225   0.879   7.335   5.041 -0.7224 -0.1043  1.1276
   27HTM   C13325226   0.873   7.477   5.061 -0.4649 -0.0129  0.5968
   27HTM   C13425227   0.972   7.525   5.142 -0.0059  0.2089 -0.0757
   27HTM    S1425228   1.081   7.393   5.199  0.1378  0.3203 -0.0908
   28TAL   C13525229   0.759   7.564   5.011 -0.0101 -0.7254 -0.1837
   28TAL   C13625230   0.623   7.505   5.044  0.3550 -0.4137 -0.8863
   28TAL   C13725231   0.497   7.544   4.962 -0.6311  0.0627  0.0359
   28TAL   C13825232   0.361   7.488   5.012  0.1302 -1.0483  0.6583
   28TAL   C13925233   0.342   7.336   5.005  0.1720  0.5476 -1.7007
   28TAL   C14025234   0.288   7.287   4.873  1.0995  0.1753  0.8425
   29HTM   C14125235   1.025   7.666   5.155 -0.1982  0.0151 -0.0610
   29HTM   C14225236   1.045   7.721   5.277 -0.1203 -0.3475  0.0942
   29HTM   C14325237   1.097   7.856   5.272  0.2709 -0.4791  0.4658
   29HTM   C14425238   1.116   7.902   5.145  0.4915 -0.2168  0.5937
   29HTM    S1525239   1.071   7.779   5.022  0.2200  0.2203  0.2524
   30TAL   C14525240   1.120   7.932   5.403 -0.1930  0.4547 -0.3717
   30TAL   C14625241   1.004   7.994   5.474  0.1632  0.5433  0.0499
   30TAL   C14725242   1.032   8.080   5.590 -0.4906 -0.1730 -0.7391
   30TAL   C14825243   1.083   7.997   5.703 -0.7631  0.1036 -0.4441
   30TAL   C14925244   1.113   8.069   5.830  0.6811  0.4990  0.5397
   30TAL   C15025245   1.141   7.977   5.951 -1.2080 -0.1386  0.9729
   31HTM   C15125246   1.171   8.033   5.097  1.3544 -0.2503  0.3822
   31HTM   C15225247   1.244   8.051   4.984  1.5489 -0.1061  0.5294
   31HTM   C15325248   1.267   8.190   4.951  0.9936 -0.0541  0.3542
   31HTM   C15425249   1.210   8.277   5.039  0.3756 -0.1585  0.0733
   31HTM    S1625250   1.124   8.191   5.172  0.4478 -0.3322  0.0078
   32TAL   C15525251   1.338   8.234   4.819  0.5416 -0.4448 -0.3765
   32TAL   C15625252   1.451   8.156   4.764 -0.0607 -1.0965  0.2835
   32TAL   C15725253   1.513   8.215   4.638  0.3969  0.5971  0.2045
   32TAL   C15825254   1.629   8.134   4.583 -0.4113  0.1620  0.3792
   32TAL   C15925255   1.677   8.212   4.454 -0.5506  1.0703  0.0929
   32TAL   C16025256   1.732   8.106   4.375 -0.2685 -0.2212  1.3051
   33HTM   C16125257   1.186   8.418   5.029  0.4296 -0.3827  0.0877
   33HTM   C16225258   1.106   8.486   4.943  0.7800 -0.7751 -0.5665
   33HTM   C16325259   1.109   8.629   4.962  0.3770 -0.7143 -0.9307
   33HTM   C16425260   1.191   8.669   5.063 -0.2806 -0.2753 -0.5541
   33HTM    S1725261   1.272   8.529   5.142 -0.4432  0.0978  0.2966
   34TAL   C16525262   1.024   8.731   4.878 -0.2828  0.5612 -1.1477
   34TAL   C16625263   1.005   8.701   4.733  0.3428  0.1845 -0.4226
   34TAL   C16725264   0.881   8.757   4.670 -1.0404 -0.8788  0.9682
   34TAL   C16825265   0.865   8.696   4.535 -1.2829 -0.5495  0.7945
   34TAL   C16925266   0.727   8.624   4.541 -0.0801  0.4128 -0.1871
   34TAL   C17025267   0.727   8.513   4.432 -0.0420  0.1095  0.0235
   35HTM   C17125268   1.231   8.808   5.098 -0.0307 -0.1349  0.0951
   35HTM   C17225269   1.156   8.903   5.162 -0.0527  0.4036 -0.7015
   35HTM   C17325270   1.234   9.010   5.219 -0.0452  0.7181 -1.2927
   35HTM   C17425271   1.368   8.997   5.198 -0.0175  0.4193 -0.9469
   35HTM    S1825272   1.407   8.848   5.105  0.0014 -0.2880  0.1608
   36TAL   C17525273   1.185   9.113   5.321 -0.3928  0.9648 -0.2632
   36TAL   C17625274   1.081   9.079   5.428 -1.2496  0.1436 -0.3930
   36TAL   C17725275   0.937   9.111   5.404  0.4730 -0.4783  0.4295
   36TAL   C17825276   0.892   9.265   5.406  0.5414 -0.1425  0.0126
   36TAL   C17925277   0.742   9.272   5.390  0.6512  0.0197 -1.2879
   36TAL   C18025278   0.699   9.418   5.386 -0.5748 -0.6290  0.3280
   37HTM   C18125279   1.493   9.079   5.235  0.2274  0.6784  0.6704
   37HTM   C18225280   1.540   9.134   5.351  0.2834  1.2095  0.4029
   37HTM   C18325281   1.670   9.193   5.338  0.2541  1.2038  0.0540
   37HTM   C18425282   1.723   9.184   5.213  0.1757  0.6686  0.0553
   37HTM    S1925283   1.611   9.099   5.100  0.1325  0.1260  0.5009
   38TAL   C18525284   1.743   9.264   5.454  0.9002 -0.3168  0.5358
   38TAL   C18625285   1.675   9.322   5.578 -0.1745  0.0009 -0.5513
   38TAL   C18725286   1.584   9.436   5.537  0.5308 -0.5617 -0.9924
   38TAL   C18825287   1.607   9.585   5.521 -0.7198  1.0643  0.5030
   38TAL   C18925288   1.623   9.667   5.646  0.5727 -0.2519  0.7960
   38TAL   C19025289   1.492   9.711   5.706 -0.1371 -0.0875 -0.5826
   39HTM   C19125290   1.853   9.226   5.162 -0.2047 -0.0338  0.2413
   39HTM   C19225291   1.864   9.303   5.051 -0.1576  0.1032  0.3399
   39HTM   C19325292   1.996   9.356   5.031 -0.1202  0.0331  0.3991
   39HTM   C19425293   2.086   9.320   5.127 -0.1386 -0.1573  0.3458
   39HTM    S2025294   2.009   9.215   5.252 -0.2052 -0.2638  0.2154
   40TAL   C19525295   2.036   9.437   4.909  1.9526 -0.0810 -0.1147
   40TAL   C19625296   1.976   9.394   4.765 -0.0284 -0.1231  0.0199
   40TAL   C19725297   2.048   9.288   4.684 -0.2150 -0.5794  0.5578
   40TAL   C19825298   2.193   9.278   4.705 -0.8528 -0.4832 -0.1993
   40TAL   C19925299   2.268   9.152   4.655 -0.5497  0.0696  0.7284
   40TAL   C20025300   2.209   9.012   4.681 -0.0564  0.5653  0.0340
   41HTM   C20125301   2.226   9.376   5.153 -0.3125 -0.2199  0.3672
   41HTM   C20225302   2.345   9.325   5.111 -0.4829 -0.6669  0.4053
   41HTM   C20325303   2.456   9.416   5.128 -0.1909 -0.9766  0.1990
   41HTM   C20425304   2.420   9.536   5.183  0.2020 -0.7663  0.0038
   41HTM    S2125305   2.243   9.543   5.218  0.2340 -0.1558  0.0658
   42TAL   C20525306   2.591   9.387   5.062  0.5612 -0.3093  1.0106
   42TAL   C20625307   2.676   9.280   5.127 -0.0429 -0.0900 -0.2463
   42TAL   C20725308   2.807   9.231   5.059  0.5460 -0.4749  0.5905
   42TAL   C20825309   2.859   9.094   5.096 -0.6452  0.3689 -0.9647
   42TAL   C20925310   2.905   8.983   4.997 -0.4117 -0.9046 -0.5145
   42TAL   C21025311   2.960   8.856   5.053 -0.4187 -0.2306 -0.2313
   43HTM   C21125312   2.502   9.659   5.215  0.6310 -0.5284 -0.4594
   43HTM   C21225313   2.619   9.698   5.156  0.3457 -0.0780 -0.7427
   43HTM   C21325314   2.672   9.822   5.207 -0.0703  0.1948 -0.9633
   43HTM   C21425315   2.595   9.878   5.305 -0.1024 -0.0473 -0.8484
   43HTM    S2225316   2.449   9.778   5.341  0.3942 -0.6436 -0.4494
   44TAL   C21525317   2.804   9.872   5.145 -1.0867 -0.6183  0.2038
   44TAL   C21625318   2.868  10.015   5.135  1.0433  0.9604 -0.6142
   44TAL   C21725319   2.934  10.034   4.987  0.3076  0.0401 -0.6114
   44TAL   C21825320   2.915  10.173   4.942  0.2590  0.7272  0.5170
   44TAL   C21925321   2.977  10.192   4.805 -0.2680 -0.0791 -0.4717
   44TAL   C22025322   2.969  10.336   4.761 -0.3455  0.5548  0.0481
   45HTM   C22125323   2.623   9.991   5.396 -0.6114 -0.0974  0.4944
   45HTM   C22225324   2.597  10.123   5.375 -1.1033 -0.0828  1.1275
   45HTM   C22325325   2.642  10.208   5.482 -0.7799 -0.3636  1.2208
   45HTM   C22425326   2.702  10.141   5.585 -0.0414 -0.5923  0.6588
   45HTM    S2325327   2.706   9.964   5.554  0.3054 -0.4697 -0.0373
   46TAL   C22525328   2.623  10.363   5.461  0.6123  1.3089 -0.0976
   46TAL   C22625329   2.648  10.445   5.572 -0.7174 -1.2657  0.3077
   46TAL   C22725330   2.624  10.601   5.558 -1.3665  0.7256  0.8972
   46TAL   C22825331   2.657  10.683   5.436  0.4415 -0.9024  0.7650
   46TAL   C22925332   2.796  10.651   5.353 -0.5660 -0.4150 -0.2024
   46TAL   C23025333   2.937  10.656   5.421  0.0548  0.0591  0.2091
   47HTM   C23125334   2.756  10.176   5.717  0.3368  0.2511  0.1333
   47HTM   C23225335   2.877  10.220   5.762  0.0818  0.9740  0.1484
   47HTM   C23325336   2.878  10.249   5.903 -0.2282  1.4340  0.0588
   47HTM   C23425337   2.758  10.229   5.965 -0.2096  1.0618 -0.0249
   47HTM    S2425338   2.633  10.170   5.849  0.2042  0.0940  0.0033
   48TAL   C23525339   3.011  10.291   5.971  0.6006 -0.0553 -0.0267
   48TAL   C23625340   2.987  10.328   6.126  0.1107 -0.2940 -0.1426
   48TAL   C23725341   3.107  10.316   6.227 -0.3307  0.3234  0.0525
   48TAL   C23825342   3.131  10.160   6.257  0.9464 -0.6052 -0.0201
   48TAL   C23925343   3.228  10.115   6.362 -0.9728 -0.2986 -0.9923
   48TAL   C24025344   3.234   9.968   6.345 -0.5794  0.1465  0.9335
    1HTM     C125345   5.136   6.209   4.144  0.3571 -0.0366 -0.1420
    1HTM     C225346   5.134   6.088   4.207  0.5697 -0.1938 -0.4325
    1HTM     C325347   5.061   5.987   4.136  0.2992 -0.0066 -0.4256
    1HTM     C425348   5.008   6.030   4.018 -0.1196  0.2934 -0.1297
    1HTM     S125349   5.046   6.204   3.988 -0.2057  0.3632  0.1655
    2TAL     C525350   5.054   5.844   4.178  0.1797 -0.7681 -0.8340
    2TAL     C625351   5.177   5.770   4.225 -1.3094 -0.4470 -0.0164
    2TAL     C725352   5.145   5.630   4.252 -0.1127  0.6059  0.3220
    2TAL     C825353   5.246   5.568   4.350 -0.5636 -1.1887  0.2095
    2TAL     C925354   5.261   5.571   4.497 -1.1640 -0.6026 -0.6293
    2TAL    C1025355   5.375   5.490   4.567  0.0279  0.3506 -0.5285
    3HTM    C1125356   4.922   5.958   3.923 -0.5073  0.1020  0.0958
    3HTM    C1225357   4.894   5.996   3.795 -0.6140  0.4267  0.2121
    3HTM    C1325358   4.799   5.910   3.729 -0.4147  0.3953 -0.0375
    3HTM    C1425359   4.755   5.807   3.807 -0.1558  0.0467 -0.3444
    3HTM     S225360   4.831   5.811   3.971 -0.1437 -0.2715 -0.3416
    4TAL    C1525361   4.760   5.938   3.581  0.1041 -1.0998  1.0764
    4TAL    C1625362   4.687   6.067   3.539 -0.3379 -0.4215  0.8110
    4TAL    C1725363   4.571   6.117   3.627 -2.2327 -1.5919 -0.1014
    4TAL    C1825364   4.505   6.240   3.563 -0.3046  0.3620  0.9087
    4TAL    C1925365   4.596   6.368   3.548 -0.3795  0.3377 -0.1209
    4TAL    C2025366   4.670   6.417   3.666 -0.0538 -0.2208 -0.3073
    5HTM    C2125367   4.691   5.686   3.765  0.1760  0.4476  0.2752
    5HTM    C2225368   4.738   5.561   3.792  0.0017  0.4225  0.4594
    5HTM    C2325369   4.660   5.456   3.732  0.0167  0.4534  0.3859
    5HTM    C2425370   4.554   5.501   3.659  0.2027  0.5019  0.1457
    5HTM     S325371   4.545   5.681   3.660  0.3744  0.5125 -0.0074
    6TAL    C2525372   4.687   5.301   3.738  0.3106 -0.4997 -0.6941
    6TAL    C2625373   4.750   5.241   3.867  0.6004 -1.3897 -0.3261
    6TAL    C2725374   4.906   5.271   3.892  1.4235 -0.1778 -0.1205
    6TAL    C2825375   4.974   5.184   4.005 -0.6081 -0.1799  0.3475
    6TAL    C2925376   4.976   5.028   3.984  0.6910  0.2098 -0.4955
    6TAL    C3025377   5.045   4.971   3.863  0.2524  0.0383  0.3459
    7HTM    C3125378   4.454   5.448   3.563 -0.5481  0.2094  0.3070
    7HTM    C3225379   4.385   5.330   3.574 -1.1508  0.6105  1.0306
    7HTM    C3325380   4.281   5.315   3.476 -1.0245  0.4119  0.9258
    7HTM    C3425381   4.270   5.421   3.390 -0.3255 -0.1405  0.1225
    7HTM     S425382   4.392   5.549   3.428  0.2319 -0.4552 -0.5695
    8TAL    C3525383   4.206   5.189   3.474  0.4694  0.7100 -0.5172
    8TAL    C3625384   4.093   5.177   3.584  0.9480 -0.0296  0.0654
    8TAL    C3725385   4.130   5.140   3.724 -0.2997  0.5279 -0.1771
    8TAL    C3825386   4.190   4.997   3.747 -0.5176  0.3224  1.0494
    8TAL    C3925387   4.266   4.964   3.872 -0.4105  0.5171 -0.1167
    8TAL    C4025388   4.368   5.058   3.926  0.1664 -1.5743 -0.4424
    9HTM    C4125389   4.160   5.455   3.296  0.2099 -0.2020 -0.0612
    9HTM    C4225390   4.126   5.585   3.272 -0.0328 -0.1496  0.5344
    9HTM    C4325391   4.004   5.600   3.197 -0.1802 -0.0241  0.7970
    9HTM    C4425392   3.945   5.482   3.163 -0.0499  0.0189  0.4016
    9HTM     S525393   4.039   5.341   3.225  0.2718 -0.0963 -0.3387
   10TAL    C4525394   3.957   5.737   3.160  0.3770  0.8422 -1.7880
   10TAL    C4625395   4.020   5.812   3.055  0.5615  0.0451  0.4991
   10TAL    C4725396   3.968   5.764   2.907 -0.0493 -0.0383 -0.6953
   10TAL    C4825397   3.878   5.857   2.829 -1.0300 -2.0347 -0.3347
   10TAL    C4925398   3.855   5.816   2.690 -0.6009  0.1003  0.7420
   10TAL    C5025399   3.742   5.889   2.627 -0.4599  0.4791 -0.5297
   11HTM    C5125400   3.812   5.453   3.103  0.3637  0.0726 -0.3350
   11HTM    C5225401   3.789   5.356   3.010  0.1714  0.2129 -0.4352
   11HTM    C5325402   3.662   5.368   2.943  0.0510  0.3406 -0.1853
   11HTM    C5425403   3.589   5.475   2.985  0.1515  0.2979  0.1055
   11HTM     S625404   3.675   5.569   3.113  0.4081  0.0913  0.0862
   12TAL    C5525405   3.623   5.279   2.824  0.8495 -0.8174  0.3117
   12TAL    C5625406   3.669   5.133   2.799 -0.2124  1.0518 -0.5774
   12TAL    C5725407   3.823   5.100   2.812  0.2259 -0.4620 -0.0421
   12TAL    C5825408   3.885   4.956   2.842 -0.4637 -1.0897 -0.1256
   12TAL    C5925409   3.853   4.910   2.976  0.6701 -0.5373  0.6363
   12TAL    C6025410   3.899   4.770   2.982 -0.2149 -0.8532  0.6032
   13HTM    C6125411   3.462   5.534   2.928 -0.2041  0.2512  0.9143
   13HTM    C6225412   3.449   5.667   2.902 -0.4624  0.2836  1.2006
   13HTM    C6325413   3.315   5.707   2.869 -0.4765  0.0340  0.9544
   13HTM    C6425414   3.226   5.604   2.869 -0.2290 -0.1889  0.4806
   13HTM     S725415   3.305   5.448   2.912  0.0433 -0.1000  0.3071
   14TAL    C6525416   3.301   5.850   2.844  0.6740  0.4139  0.9007
   14TAL    C6625417   3.375   5.898   2.719 -1.1059  0.8204  0.2375
   14TAL    C6725418   3.378   6.043   2.679  0.1231 -0.1874  0.0689
   14TAL    C6825419   3.249   6.111   2.634  1.0561 -0.0410 -0.2039
   14TAL    C6925420   3.195   6.086   2.485 -0.2408  0.4626 -0.2250
   14TAL    C7025421   3.080   6.175   2.439 -0.3540 -0.8755 -0.2209
   15HTM    C7125422   3.093   5.619   2.823 -0.0051 -0.6119  0.0389
   15HTM    C7225423   3.047   5.667   2.705  0.4114 -0.8215 -0.2146
   15HTM    C7325424   2.904   5.657   2.689  0.3821 -0.2211 -0.4036
   15HTM    C7425425   2.842   5.600   2.796 -0.0568  0.4462 -0.2943
   15HTM     S825426   2.959   5.555   2.926 -0.4704  0.3677  0.0585
   16TAL    C7525427   2.837   5.710   2.563 -0.3056  0.4204  0.7867
   16TAL    C7625428   2.918   5.732   2.430  1.1421  0.4543 -0.0156
   16TAL    C7725429   3.023   5.634   2.393 -0.3098  0.2589  0.2998
   16TAL    C7825430   2.990   5.480   2.380 -0.5127 -0.3222 -0.1349
   16TAL    C7925431   3.107   5.377   2.348 -0.6904 -0.1076 -0.3217
   16TAL    C8025432   3.109   5.313   2.212  0.6187  0.8953  0.7305
   17HTM    C8125433   2.701   5.569   2.808  0.1497 -0.0666  0.2948
   17HTM    C8225434   2.634   5.451   2.793  0.3809 -0.2422  0.6239
   17HTM    C8325435   2.491   5.466   2.781  0.3828 -0.5217  0.2053
   17HTM    C8425436   2.449   5.595   2.787  0.1530 -0.5590 -0.4430
   17HTM     S925437   2.587   5.709   2.809 -0.0855 -0.2415 -0.5762
   18TAL    C8525438   2.414   5.338   2.770  0.8180 -1.4337  0.7963
   18TAL    C8625439   2.372   5.286   2.913  0.0957  0.0452  0.1178
   18TAL    C8725440   2.352   5.137   2.891 -0.7032 -0.5959 -0.2628
   18TAL    C8825441   2.357   5.055   3.019 -0.3261 -0.1352 -0.4915
   18TAL    C8925442   2.348   4.903   2.988 -0.8280 -0.3303 -1.1869
   18TAL    C9025443   2.401   4.836   3.117 -0.4902  0.2167  0.2832
   19HTM    C9125444   2.325   5.662   2.766  0.0857  0.3913  0.6730
   19HTM    C9225445   2.288   5.771   2.694 -0.3111  0.4301  0.9325
   19HTM    C9325446   2.146   5.795   2.695 -0.4275 -0.2129  0.8157
   19HTM    C9425447   2.075   5.704   2.768 -0.1194 -0.7420  0.4672
   19HTM    S1025448   2.183   5.580   2.841  0.3454 -0.4670  0.2578
   20TAL    C9525449   2.103   5.908   2.612  0.0842 -0.2542 -0.2911
   20TAL    C9625450   2.093   6.053   2.681 -0.4311  0.5344  0.7224
   20TAL    C9725451   1.967   6.063   2.772 -0.4210 -0.2149  0.0447
   20TAL    C9825452   1.991   6.106   2.920 -0.5885 -0.4960 -0.2653
   20TAL    C9925453   1.859   6.104   3.000  0.9433 -0.5128  0.0543
   20TAL   C10025454   1.846   6.177   3.139 -1.3751  0.7589  0.0770
   21HTM   C10125455   1.927   5.694   2.769 -0.3845  0.1612 -0.1680
   21HTM   C10225456   1.843   5.631   2.683 -0.8233  0.5187 -0.0078
   21HTM   C10325457   1.709   5.614   2.735 -0.6288  0.5178  0.5063
   21HTM   C10425458   1.692   5.664   2.860 -0.0416  0.1597  0.7381
   21HTM    S1125459   1.845   5.737   2.924  0.3139 -0.2071  0.3217
   22TAL   C10525460   1.611   5.579   2.622 -0.7389 -0.6577 -0.3442
   22TAL   C10625461   1.467   5.546   2.660  1.7447 -1.0366  0.3076
   22TAL   C10725462   1.367   5.508   2.558  0.1261  0.1460 -0.5129
   22TAL   C10825463   1.263   5.424   2.619  0.7205  0.1655 -0.6490
   22TAL   C10925464   1.181   5.359   2.518 -0.8486  0.7230  0.6939
   22TAL   C11025465   1.083   5.254   2.560  0.3559 -0.2980  0.1803
   23HTM   C11125466   1.578   5.693   2.943  0.1205  0.2115  0.3697
   23HTM   C11225467   1.514   5.811   2.962  0.1406  0.1731  0.6798
   23HTM   C11325468   1.400   5.802   3.050 -0.1403 -0.1358  0.2926
   23HTM   C11425469   1.379   5.676   3.098 -0.3747 -0.3331 -0.3130
   23HTM    S1225470   1.501   5.559   3.035 -0.2579 -0.1425 -0.4420
   24TAL   C11525471   1.316   5.919   3.067 -0.1165 -0.1977 -0.0238
   24TAL   C11625472   1.380   6.040   3.151  0.1149  0.4181  0.3051
   24TAL   C11725473   1.331   6.069   3.295  0.0037  0.2000  1.0834
   24TAL   C11825474   1.361   5.980   3.424  0.2716 -0.3768  0.7492
   24TAL   C11925475   1.501   5.979   3.482 -1.2230 -0.0232 -0.5588
   24TAL   C12025476   1.570   6.109   3.524  0.5521  0.7049 -0.8549
   25HTM   C12125477   1.302   5.637   3.214 -0.0071 -0.2716 -0.1026
   25HTM   C12225478   1.341   5.627   3.344  0.4560 -0.5674 -0.2595
   25HTM   C12325479   1.247   5.558   3.428  0.8989 -1.0381 -0.1377
   25HTM   C12425480   1.136   5.515   3.362  0.7734 -1.1010  0.1120
   25HTM    S1325481   1.141   5.559   3.187  0.0808 -0.5666  0.2136
   26TAL   C12525482   1.271   5.546   3.576  1.6255 -0.1368  0.3249
   26TAL   C12625483   1.328   5.420   3.605 -0.7916  0.2333 -0.1817
   26TAL   C12725484   1.358   5.399   3.752  1.1579 -0.5392 -0.1267
   26TAL   C12825485   1.405   5.264   3.789 -0.2022 -0.6891 -0.0494
   26TAL   C12925486   1.452   5.236   3.935  0.7598 -0.3178 -0.4580
   26TAL   C13025487   1.439   5.088   3.975 -0.5270 -0.0656  0.1550
   27HTM   C13125488   1.004   5.456   3.411 -0.1481  0.0030 -0.4454
   27HTM   C13225489   0.895   5.417   3.339  0.1438 -0.9140 -0.4227
   27HTM   C13325490   0.794   5.351   3.418  0.4039 -1.1278 -0.2637
   27HTM   C13425491   0.826   5.340   3.550  0.3104 -0.3740 -0.1652
   27HTM    S1425492   0.987   5.411   3.585 -0.1168  0.6726 -0.2664
   28TAL   C13525493   0.665   5.290   3.358  0.3744 -0.2732 -0.5872
   28TAL   C13625494   0.545   5.361   3.343  1.2780  1.0329 -0.3271
   28TAL   C13725495   0.488   5.403   3.477 -0.0099  0.4095  0.2017
   28TAL   C13825496   0.340   5.459   3.479 -0.2484 -0.1788  0.1488
   28TAL   C13925497   0.315   5.492   3.630 -0.0909 -0.8524  0.6185
   28TAL   C14025498   0.189   5.569   3.665 -0.3336  0.1171 -0.0861
   29HTM   C14125499   0.755   5.268   3.660 -0.7569 -0.5172 -0.4994
   29HTM   C14225500   0.698   5.320   3.773 -1.4456 -0.7260 -0.7349
   29HTM   C14325501   0.659   5.221   3.870 -1.1311 -0.8603 -0.7432
   29HTM   C14425502   0.686   5.093   3.831 -0.2026 -0.7541 -0.5138
   29HTM    S1525503   0.762   5.088   3.668  0.3509 -0.4739 -0.2679
   30TAL   C14525504   0.627   5.263   4.012  0.3365 -0.3259 -0.6912
   30TAL   C14625505   0.486   5.339   4.011 -1.0650  0.0441 -0.2160
   30TAL   C14725506   0.435   5.330   4.158  0.1641 -0.1294  0.0703
   30TAL   C14825507   0.512   5.408   4.263 -0.7212  0.0210  0.0042
   30TAL   C14925508   0.555   5.547   4.223  1.1008 -0.8867 -0.3387
   30TAL   C15025509   0.637   5.632   4.314 -0.7461  0.0329 -0.1747
   31HTM   C15125510   0.679   4.963   3.907  0.1331 -0.0746  0.1035
   31HTM   C15225511   0.708   4.939   4.038  0.7118 -0.1073 -0.0281
   31HTM   C15325512   0.679   4.804   4.080  0.7140 -0.0627  0.1177
   31HTM   C15425513   0.627   4.726   3.981  0.1371  0.0041  0.3606
   31HTM    S1625514   0.611   4.817   3.826 -0.4583  0.0158  0.4244
   32TAL   C15525515   0.691   4.745   4.221 -0.3951  0.5078 -0.0695
   32TAL   C15625516   0.799   4.820   4.293  0.3617 -0.2488  0.5319
   32TAL   C15725517   0.939   4.786   4.253 -0.2441 -1.0320 -0.3617
   32TAL   C15825518   1.044   4.890   4.318 -0.6305  1.1098 -0.9127
   32TAL   C15925519   1.177   4.904   4.255 -0.2920  0.0512 -0.4077
   32TAL   C16025520   1.284   4.992   4.321  0.5025  0.4572 -0.6079
   33HTM   C16125521   0.559   4.591   3.979  0.1558 -0.0543  0.2927
   33HTM   C16225522   0.489   4.522   4.074 -0.4643  0.3045  0.1097
   33HTM   C16325523   0.436   4.397   4.027 -0.9765  0.5666 -0.0229
   33HTM   C16425524   0.464   4.370   3.897 -0.7470  0.4078  0.0592
   33HTM    S1725525   0.562   4.501   3.822  0.1408 -0.0891  0.3121
   34TAL   C16525526   0.383   4.304   4.142  0.4198  0.4675  0.0584
   34TAL   C16625527   0.295   4.357   4.256 -0.3445  0.8854  0.3173
   34TAL   C16725528   0.165   4.420   4.203  0.2912  0.8685  0.2650
   34TAL   C16825529   0.066   4.312   4.172 -0.0010  0.0948 -0.3279
   34TAL   C16925530  -0.077   4.368   4.158  0.0180 -0.2247  0.1579
   34TAL   C17025531  -0.131   4.270   4.067  0.9185  0.6895 -0.2027
   35HTM   C17125532   0.423   4.260   3.808 -0.2654  0.1815 -0.1918
   35HTM   C17225533   0.459   4.250   3.677 -0.3175 -0.1056 -0.1870
   35HTM   C17325534   0.377   4.159   3.601 -0.2190 -0.4286  0.0888
   35HTM   C17425535   0.279   4.099   3.674 -0.0918 -0.3873  0.2944
   35HTM    S1825536   0.283   4.153   3.846 -0.0865  0.0660  0.1543
   36TAL   C17525537   0.396   4.142   3.451 -0.7297  0.1895 -0.2652
   36TAL   C17625538   0.524   4.199   3.389 -0.3818 -0.3478  0.1932
   36TAL   C17725539   0.548   4.193   3.244 -1.2491  0.4565  0.3621
   36TAL   C17825540   0.527   4.064   3.155  0.0563 -0.1802  0.1969
   36TAL   C17925541   0.506   4.098   3.002 -1.3434  0.6634  0.5648
   36TAL   C18025542   0.500   3.971   2.909 -1.0209 -0.1058  0.2946
   37HTM   C18125543   0.183   4.010   3.630  0.3529 -0.5419  0.0434
   37HTM   C18225544   0.099   3.956   3.723  0.6242 -1.1542 -0.0545
   37HTM   C18325545  -0.004   3.873   3.667  0.6623 -1.0578 -0.2679
   37HTM   C18425546   0.001   3.864   3.531  0.4200 -0.3718 -0.3327
   37HTM    S1925547   0.138   3.960   3.463  0.1225  0.2101 -0.1277
   38TAL   C18525548  -0.108   3.827   3.761  0.3171  0.7899 -0.1552
   38TAL   C18625549  -0.074   3.694   3.817  0.1169  0.1241 -0.2859
   38TAL   C18725550   0.055   3.666   3.896  0.2729  0.0995  0.8810
   38TAL   C18825551   0.061   3.677   4.044  0.7947 -0.5253 -0.4756
   38TAL   C18925552   0.184   3.636   4.108 -1.1237 -0.4652  0.4761
   38TAL   C19025553   0.214   3.694   4.248  0.5217 -0.2377  0.1011
   39HTM   C19125554  -0.096   3.807   3.444  0.2784 -0.3130 -0.1143
   39HTM   C19225555  -0.153   3.683   3.454  0.4549 -0.4271 -0.5087
   39HTM   C19325556  -0.237   3.649   3.342  0.3793 -0.1270 -0.5454
   39HTM   C19425557  -0.245   3.747   3.247  0.1460  0.2158 -0.1791
   39HTM    S2025558  -0.146   3.891   3.292  0.0016  0.1861  0.2440
   40TAL   C19525559  -0.309   3.518   3.340 -0.2293 -0.1994  1.4719
   40TAL   C19625560  -0.428   3.510   3.430 -0.8171  0.1147 -0.1297
   40TAL   C19725561  -0.502   3.381   3.442  0.6844 -0.6130 -0.1879
   40TAL   C19825562  -0.490   3.316   3.580 -0.1036  0.6089  0.3447
   40TAL   C19925563  -0.554   3.177   3.594 -0.5665 -0.1170  0.3967
   40TAL   C20025564  -0.497   3.108   3.711  0.1095 -0.1623 -0.6290
   41HTM   C20125565  -0.329   3.762   3.129  0.1719 -0.7698 -0.8122
   41HTM   C20225566  -0.416   3.678   3.065  0.2606 -0.5745 -1.1985
   41HTM   C20325567  -0.483   3.739   2.953  0.2952 -0.1682 -1.0055
   41HTM   C20425568  -0.447   3.868   2.930  0.2329 -0.0538 -0.4722
   41HTM    S2125569  -0.325   3.925   3.051  0.1250 -0.4533 -0.1699
   42TAL   C20525570  -0.592   3.664   2.867  0.7644  0.1706 -0.5015
   42TAL   C20625571  -0.723   3.619   2.924  2.0126  1.1826 -1.2500
   42TAL   C20725572  -0.821   3.531   2.831  0.7068  0.7937 -0.0814
   42TAL   C20825573  -0.849   3.603   2.699 -0.5137 -0.2355  0.0456
   42TAL   C20925574  -0.960   3.538   2.602 -1.0046 -0.0442 -0.0788
   42TAL   C21025575  -1.100   3.533   2.661 -0.6604 -0.3032  0.0159
   43HTM   C21125576  -0.489   3.962   2.821  0.0089  0.0396 -0.2483
   43HTM   C21225577  -0.610   3.974   2.759  0.0587 -0.3935 -0.4387
   43HTM   C21325578  -0.614   4.077   2.658 -0.0932 -0.5469 -0.5912
   43HTM   C21425579  -0.496   4.143   2.643 -0.2587 -0.2308 -0.5170
   43HTM    S2225580  -0.370   4.081   2.756 -0.2355  0.2891 -0.2468
   44TAL   C21525581  -0.726   4.096   2.560 -0.5417  1.1605 -0.5941
   44TAL   C21625582  -0.735   3.983   2.457  0.0321 -0.2865  0.1820
   44TAL   C21725583  -0.857   4.003   2.370 -0.6536 -0.2141  0.0542
   44TAL   C21825584  -0.994   3.978   2.439  1.0581  0.0247  0.2262
   44TAL   C21925585  -1.112   3.975   2.339 -0.0746 -0.3962  0.2685
   44TAL   C22025586  -1.119   3.862   2.237 -0.0747 -0.8336  0.4914
   45HTM   C22125587  -0.445   4.243   2.547 -0.1961  0.1058  0.5284
   45HTM   C22225588  -0.314   4.253   2.511 -0.0966 -0.1553  0.8144
   45HTM   C22325589  -0.283   4.369   2.431  0.2387 -0.4011  0.5771
   45HTM   C22425590  -0.392   4.448   2.406  0.3952 -0.3272  0.1101
   45HTM    S2325591  -0.541   4.382   2.482  0.1288  0.0612 -0.0674
   46TAL   C22525592  -0.146   4.399   2.387 -0.3944  0.5221  0.6608
   46TAL   C22625593  -0.085   4.281   2.324  0.1002 -0.0622  0.4665
   46TAL   C22725594   0.048   4.309   2.248  1.1786 -0.1895  0.7145
   46TAL   C22825595   0.157   4.223   2.276 -0.1839  0.2125  0.9470
   46TAL   C22925596   0.277   4.262   2.346  0.0549 -1.0085 -0.6727
   46TAL   C23025597   0.359   4.161   2.427  0.0140  0.6663  0.6402
   47HTM   C23125598  -0.411   4.576   2.334 -0.3006 -0.1205  0.3382
   47HTM   C23225599  -0.489   4.608   2.227 -0.2372 -0.1792  0.2747
   47HTM   C23325600  -0.481   4.746   2.188  0.0474 -0.2733 -0.0094
   47HTM   C23425601  -0.396   4.820   2.265  0.2014 -0.2864 -0.1626
   47HTM    S2425602  -0.320   4.720   2.394 -0.0032 -0.1800  0.0418
   48TAL   C23525603  -0.566   4.824   2.084  0.7645 -0.2073 -0.5259
   48TAL   C23625604  -0.651   4.760   1.978 -0.5389  1.1798  0.9453
   48TAL   C23725605  -0.574   4.652   1.892  0.5050  0.9117  0.1372
   48TAL   C23825606  -0.678   4.568   1.799  0.1109 -0.2338  0.2276
   48TAL   C23925607  -0.805   4.500   1.857 -1.5021 -0.5816  0.2128
   48TAL   C24025608  -0.759   4.375   1.931  0.1980  1.0035 -0.0811
    1HTM     C125609   1.041   7.567   5.697 -0.2496  0.0510  0.6908
    1HTM     C225610   0.928   7.634   5.657 -0.1929  0.0273  0.4894
    1HTM     C325611   0.827   7.548   5.600  0.2545  0.1062 -0.4654
    1HTM     C425612   0.862   7.417   5.596  0.5389  0.1901 -0.9917
    1HTM     S125613   1.027   7.390   5.665  0.2616  0.1759 -0.3172
    2TAL     C525614   0.698   7.601   5.573  0.7367  0.8813  0.1419
    2TAL     C625615   0.678   7.738   5.518  0.0897  0.8614  1.1057
    2TAL     C725616   0.541   7.780   5.483 -0.0181 -0.0726  1.1276
    2TAL     C825617   0.430   7.788   5.590 -1.0171 -0.0757  1.7711
    2TAL     C925618   0.473   7.878   5.704  0.5299 -0.4909  0.7172
    2TAL    C1025619   0.355   7.914   5.790  0.2934  0.8763 -0.9043
    3HTM    C1125620   0.789   7.306   5.547 -0.3434  0.4097 -0.0843
    3HTM    C1225621   0.758   7.190   5.611 -0.2106  0.5465  0.2313
    3HTM    C1325622   0.695   7.092   5.527  0.2044  0.1153  0.4086
    3HTM    C1425623   0.677   7.133   5.398  0.3880 -0.3501  0.2282
    3HTM     S225624   0.740   7.301   5.374  0.0483 -0.2795 -0.1828
    4TAL    C1525625   0.655   6.955   5.587 -0.0404 -0.1286  0.3154
    4TAL    C1625626   0.767   6.872   5.647 -0.2715  1.2011  0.3600
    4TAL    C1725627   0.708   6.736   5.680 -0.1341 -0.1072 -0.3247
    4TAL    C1825628   0.753   6.667   5.810 -0.0033 -1.1215 -0.7024
    4TAL    C1925629   0.901   6.646   5.835 -0.3667 -0.8482 -0.6780
    4TAL    C2025630   0.921   6.550   5.961 -0.1068 -0.7325  0.0883
    5HTM    C2125631   0.636   7.056   5.283 -0.0010  0.3218 -0.7306
    5HTM    C2225632   0.681   7.084   5.158 -0.8394  0.6344 -0.9781
    5HTM    C2325633   0.615   7.011   5.053 -0.9804  0.2757 -0.6394
    5HTM    C2425634   0.518   6.926   5.099 -0.2495 -0.3104 -0.1337
    5HTM     S325635   0.504   6.933   5.279  0.6808 -0.4557 -0.0454
    6TAL    C2525636   0.667   7.042   4.913  0.1092  0.0641  1.2879
    6TAL    C2625637   0.614   7.187   4.885 -0.2648  0.1626  0.1430
    6TAL    C2725638   0.646   7.204   4.737 -0.5843  0.6048 -0.2913
    6TAL    C2825639   0.609   7.342   4.675 -0.0112 -0.2175  0.4473
    6TAL    C2925640   0.582   7.342   4.528 -0.5643 -0.0364  0.1437
    6TAL    C3025641   0.709   7.299   4.448  1.6854 -0.9766  1.2808
    7HTM    C3125642   0.432   6.847   5.016 -0.0208  0.5801  0.1828
    7HTM    C3225643   0.460   6.776   4.903  0.2750  0.6918  0.1853
    7HTM    C3325644   0.346   6.710   4.846  0.5230  0.3306  0.1042
    7HTM    C3425645   0.231   6.729   4.917  0.4164 -0.0564  0.0401
    7HTM     S425646   0.258   6.834   5.061 -0.0089  0.0058  0.0772
    8TAL    C3525647   0.355   6.607   4.725 -0.6153 -0.0944 -0.7692
    8TAL    C3625648   0.322   6.662   4.584 -0.1792 -0.5333  0.0925
    8TAL    C3725649   0.416   6.633   4.471  0.0866  0.0911  0.4896
    8TAL    C3825650   0.376   6.714   4.342 -0.0072  1.7681  0.0898
    8TAL    C3925651   0.449   6.651   4.224 -0.2279  1.0204 -0.1552
    8TAL    C4025652   0.380   6.674   4.084 -0.5417  0.3771 -0.0081
    9HTM    C4125653   0.090   6.708   4.874 -0.2301 -0.1274 -0.3396
    9HTM    C4225654   0.028   6.770   4.770 -0.5474 -0.3970 -0.3138
    9HTM    C4325655  -0.094   6.706   4.729 -0.7615 -0.4168  0.3301
    9HTM    C4425656  -0.125   6.595   4.802 -0.6073 -0.1625  0.7955
    9HTM     S525657  -0.001   6.562   4.928 -0.1762  0.1241  0.4538
   10TAL    C4525658  -0.186   6.767   4.637 -0.7038 -1.1990 -0.8200
   10TAL    C4625659  -0.179   6.718   4.498 -0.1569  0.5427  0.3400
   10TAL    C4725660  -0.296   6.757   4.413 -0.6935  0.0626  1.1816
   10TAL    C4825661  -0.369   6.643   4.331 -0.0917  0.1675 -0.0522
   10TAL    C4925662  -0.284   6.568   4.235 -0.7511 -0.1722  0.0412
   10TAL    C5025663  -0.344   6.451   4.156  0.1226  0.1447  0.1641
   11HTM    C5125664  -0.230   6.499   4.809  0.0957  0.6322 -0.7760
   11HTM    C5225665  -0.298   6.474   4.925  0.0200  1.2615 -0.6729
   11HTM    C5325666  -0.424   6.407   4.905  0.0181  1.1766 -0.3906
   11HTM    C5425667  -0.452   6.381   4.774  0.0925  0.4824 -0.2788
   11HTM     S625668  -0.320   6.440   4.665  0.1710 -0.1226 -0.5228
   12TAL    C5525669  -0.509   6.358   5.022 -0.6507  0.1003 -0.5597
   12TAL    C5625670  -0.442   6.273   5.126  0.5870 -0.3294  0.7608
   12TAL    C5725671  -0.537   6.184   5.202 -0.4276 -0.0398 -0.7772
   12TAL    C5825672  -0.452   6.136   5.320  0.2228 -0.5761 -0.6418
   12TAL    C5925673  -0.537   6.064   5.432  0.2184 -0.7514 -0.3302
   12TAL    C6025674  -0.442   5.981   5.511 -0.7696 -0.7505 -0.3942
   13HTM    C6125675  -0.561   6.302   4.708  0.2156  0.6504 -0.1664
   13HTM    C6225676  -0.638   6.203   4.760  0.6096  0.5720  0.2869
   13HTM    C6325677  -0.728   6.144   4.664  0.1516  0.4396  0.7887
   13HTM    C6425678  -0.720   6.198   4.539 -0.5917  0.4172  0.7176
   13HTM     S725679  -0.596   6.330   4.533 -0.7721  0.5624  0.0063
   14TAL    C6525680  -0.836   6.043   4.682  0.9109  0.2445 -0.2574
   14TAL    C6625681  -0.798   5.928   4.767 -0.0683 -0.6373  0.2308
   14TAL    C6725682  -0.902   5.821   4.801 -0.0331 -0.4168 -0.2093
   14TAL    C6825683  -0.863   5.737   4.926 -0.2834 -1.0594  0.4996
   14TAL    C6925684  -0.968   5.635   4.973 -0.2188 -0.0240 -0.9170
   14TAL    C7025685  -1.005   5.497   4.897  0.0798 -0.6191 -0.2692
   15HTM    C7125686  -0.788   6.155   4.413 -0.3358 -0.8224 -0.1262
   15HTM    C7225687  -0.919   6.125   4.391 -0.1698 -1.3456 -0.4284
   15HTM    C7325688  -0.950   6.100   4.253  0.1433 -0.9319 -0.5790
   15HTM    C7425689  -0.843   6.111   4.170  0.2160 -0.0931 -0.3916
   15HTM     S825690  -0.693   6.154   4.260 -0.1074  0.2417 -0.0072
   16TAL    C7525691  -1.095   6.081   4.207 -0.2576 -0.5690  0.2470
   16TAL    C7625692  -1.137   5.928   4.193  0.5975  0.4552 -0.4244
   16TAL    C7725693  -1.235   5.897   4.081  0.2604 -0.3857  0.4062
   16TAL    C7825694  -1.351   5.980   4.052 -0.2550  0.3182  0.4744
   16TAL    C7925695  -1.465   5.954   4.150  0.3941  0.7091 -0.7002
   16TAL    C8025696  -1.583   5.993   4.082  0.1000  0.2664 -0.5480
   17HTM    C8125697  -0.816   6.109   4.025  0.4980  0.0692 -0.4127
   17HTM    C8225698  -0.705   6.153   3.960  0.5169 -0.4231 -0.7192
   17HTM    C8325699  -0.720   6.160   3.817  0.2015 -0.4892 -0.6899
   17HTM    C8425700  -0.844   6.122   3.773 -0.0575 -0.0473 -0.3613
   17HTM     S925701  -0.951   6.074   3.910  0.0772  0.4906 -0.0609
   18TAL    C8525702  -0.601   6.219   3.739  0.5170  0.0808  0.1731
   18TAL    C8625703  -0.594   6.372   3.752 -0.1249  0.5420 -0.1169
   18TAL    C8725704  -0.455   6.419   3.716 -0.4232  1.4118 -0.0273
   18TAL    C8825705  -0.452   6.565   3.676  0.7224 -0.6054 -0.3577
   18TAL    C8925706  -0.391   6.616   3.551  0.7006  0.9077  0.2728
   18TAL    C9025707  -0.248   6.577   3.530  0.7863  0.5140 -1.0859
   19HTM    C9125708  -0.896   6.113   3.636 -0.5414 -0.2377 -0.4162
   19HTM    C9225709  -1.029   6.104   3.608 -0.4799 -0.3415 -0.6805
   19HTM    C9325710  -1.057   6.088   3.468 -0.1993 -0.0944 -0.7686
   19HTM    C9425711  -0.946   6.084   3.389 -0.0470  0.1977 -0.5714
   19HTM    S1025712  -0.795   6.101   3.487 -0.2472  0.1833 -0.2566
   20TAL    C9525713  -1.203   6.096   3.419 -0.5127 -0.2348 -1.0761
   20TAL    C9625714  -1.304   6.191   3.496  0.7258 -0.1931  0.8788
   20TAL    C9725715  -1.306   6.347   3.457 -0.7721  1.0854 -0.1922
   20TAL    C9825716  -1.381   6.391   3.328  1.5060  1.1745  0.0328
   20TAL    C9925717  -1.363   6.352   3.189 -0.5908  1.1018  0.6328
   20TAL   C10025718  -1.334   6.204   3.132  0.6320 -0.8751 -0.2386
   21HTM   C10125719  -0.930   6.083   3.252  0.6545  0.1486 -0.2668
   21HTM   C10225720  -0.825   6.123   3.175  0.2148  0.6192 -0.6361
   21HTM   C10325721  -0.842   6.094   3.035 -0.2928  0.8596 -0.6283
   21HTM   C10425722  -0.960   6.033   3.006 -0.2395  0.5722 -0.2530
   21HTM    S1125723  -1.060   6.006   3.154  0.4603 -0.0292  0.1225
   22TAL   C10525724  -0.745   6.142   2.933  0.9199 -0.3004  1.0116
   22TAL   C10625725  -0.589   6.097   2.946  1.1149  0.9064 -0.9361
   22TAL   C10725726  -0.484   6.172   2.867  0.5997 -0.2534 -0.2994
   22TAL   C10825727  -0.480   6.326   2.877 -0.3653 -0.1763  0.2958
   22TAL   C10925728  -0.391   6.390   2.777  0.1841 -1.6044  1.2847
   22TAL   C11025729  -0.438   6.537   2.717 -0.6917 -0.3176  0.4992
   23HTM   C11125730  -1.013   6.001   2.878  0.3088  0.0655  0.1286
   23HTM   C11225731  -1.138   6.043   2.841  0.6683  0.8616 -0.2185
   23HTM   C11325732  -1.180   5.991   2.713  0.6754  1.1166 -0.3274
   23HTM   C11425733  -1.088   5.909   2.654  0.3214  0.5153 -0.0635
   23HTM    S1225734  -0.940   5.892   2.756 -0.0515 -0.4272  0.3464
   24TAL   C11525735  -1.324   6.017   2.654  1.2102  0.3718  0.0111
   24TAL   C11625736  -1.456   6.041   2.747  0.8737  0.3395  0.9008
   24TAL   C11725737  -1.600   6.054   2.679  0.2141  1.5063  0.7579
   24TAL   C11825738  -1.692   6.162   2.735  0.0618  0.0204  0.5179
   24TAL   C11925739  -1.812   6.200   2.636 -0.6063  0.6256  0.0241
   24TAL   C12025740  -1.776   6.247   2.492  0.6824 -0.2676 -0.7918
   25HTM   C12125741  -1.100   5.828   2.542  0.2673  0.7583 -0.4566
   25HTM   C12225742  -1.205   5.759   2.488  0.0865  0.8929 -0.2773
   25HTM   C12325743  -1.174   5.695   2.363 -0.0501  0.3921 -0.0573
   25HTM   C12425744  -1.046   5.714   2.322  0.0273 -0.1244 -0.0691
   25HTM    S1325745  -0.953   5.816   2.439  0.2798 -0.0171 -0.3609
   26TAL   C12525746  -1.286   5.606   2.311  0.1383 -0.2892 -0.5917
   26TAL   C12625747  -1.436   5.638   2.329  0.9876  0.0072  0.2740
   26TAL   C12725748  -1.493   5.783   2.310 -0.7855 -1.5767 -0.0508
   26TAL   C12825749  -1.623   5.787   2.241  0.6984 -0.2136  0.8634
   26TAL   C12925750  -1.745   5.695   2.290 -0.9653  0.4526  0.3411
   26TAL   C13025751  -1.841   5.637   2.182  0.0313  0.6436  0.0815
   27HTM   C13125752  -0.980   5.652   2.213  0.3116  0.0338 -0.2669
   27HTM   C13225753  -0.846   5.629   2.207  0.3233  0.1501 -0.4753
   27HTM   C13325754  -0.807   5.542   2.100  0.2112  0.0418 -0.4285
   27HTM   C13425755  -0.911   5.498   2.024  0.1143 -0.1569 -0.1844
   27HTM    S1425756  -1.068   5.565   2.082  0.1577 -0.2236  0.0068
   28TAL   C13525757  -0.667   5.516   2.064 -0.5248 -0.1912  0.2594
   28TAL   C13625758  -0.589   5.633   1.999 -0.1923  0.0741 -0.1769
   28TAL   C13725759  -0.640   5.709   1.882  0.0819 -0.5252  0.0862
   28TAL   C13825760  -0.536   5.766   1.784  0.2429 -0.2872  0.4472
   28TAL   C13925761  -0.582   5.802   1.637 -0.7382 -0.5579  0.0857
   28TAL   C14025762  -0.676   5.702   1.558 -1.0926 -0.8657  0.7753
   29HTM   C14125763  -0.919   5.404   1.914  0.0193  0.5372 -0.0453
   29HTM   C14225764  -0.816   5.349   1.843  0.1678  0.5318  0.1712
   29HTM   C14325765  -0.859   5.274   1.728  0.3910  0.2590  0.2633
   29HTM   C14425766  -0.994   5.272   1.711  0.4127  0.0567  0.1171
   29HTM    S1525767  -1.079   5.364   1.841  0.1505  0.1959 -0.1504
   30TAL   C14525768  -0.747   5.217   1.638  0.8727  0.3813 -0.4761
   30TAL   C14625769  -0.699   5.071   1.656 -0.7818  0.7002  0.3793
   30TAL   C14725770  -0.592   5.028   1.548  0.2075 -0.2553  0.0337
   30TAL   C14825771  -0.450   5.077   1.571 -0.1649  0.1626 -0.5080
   30TAL   C14925772  -0.331   4.998   1.508  0.1590  0.0172 -0.3182
   30TAL   C15025773  -0.315   5.042   1.364 -0.6744 -0.6098  0.8191
   31HTM   C15125774  -1.071   5.184   1.626 -0.0856  0.2028 -0.2122
   31HTM   C15225775  -1.142   5.079   1.678  0.1509  0.1200 -0.0549
   31HTM   C15325776  -1.177   4.979   1.581  0.3049 -0.0646  0.0799
   31HTM   C15425777  -1.133   5.006   1.455  0.1857 -0.1228  0.0254
   31HTM    S1625778  -1.043   5.163   1.449 -0.1331  0.0526 -0.2023
   32TAL   C15525779  -1.261   4.854   1.612  0.9802 -1.0496  0.2997
   32TAL   C15625780  -1.410   4.879   1.644 -0.2667 -0.0547  0.2678
   32TAL   C15725781  -1.484   4.746   1.654  1.0356 -1.3695  0.2723
   32TAL   C15825782  -1.632   4.777   1.706 -0.2232  0.1110 -0.2899
   32TAL   C15925783  -1.703   4.688   1.811  0.5335 -1.4243 -0.5759
   32TAL   C16025784  -1.617   4.641   1.931  0.0021 -0.8522  0.9923
   33HTM   C16125785  -1.143   4.937   1.332  0.4005 -0.2335 -0.1676
   33HTM   C16225786  -1.038   4.941   1.245  0.0386 -0.5491 -0.6310
   33HTM   C16325787  -1.046   4.844   1.140 -0.7083 -0.5388 -0.5937
   33HTM   C16425788  -1.158   4.765   1.146 -0.9165 -0.2152 -0.1018
   33HTM    S1725789  -1.262   4.809   1.287 -0.1791  0.1042  0.3560
   34TAL   C16525790  -0.929   4.826   1.039  0.0303 -1.1172  0.4776
   34TAL   C16625791  -0.818   4.720   1.051 -0.3517 -0.6961 -0.5787
   34TAL   C16725792  -0.827   4.577   1.024  1.1511 -0.2158 -0.1519
   34TAL   C16825793  -0.801   4.534   0.874  0.2610 -0.4618  0.6620
   34TAL   C16925794  -0.832   4.382   0.854  0.6555 -0.7679 -1.1007
   34TAL   C17025795  -0.789   4.333   0.725  0.0999  0.1861  0.4257
   35HTM   C17125796  -1.182   4.641   1.071  0.5216 -0.2268 -0.0894
   35HTM   C17225797  -1.198   4.620   0.937  0.7665 -0.4979 -0.0782
   35HTM   C17325798  -1.230   4.483   0.904  0.2866 -0.4574  0.1933
   35HTM   C17425799  -1.238   4.401   1.012 -0.3241 -0.1557  0.3891
   35HTM    S1825800  -1.205   4.489   1.165 -0.3409  0.1029  0.2447
   36TAL   C17525801  -1.229   4.459   0.750  0.6257  0.1327 -0.3851
   36TAL   C17625802  -1.300   4.562   0.667  0.1975  0.3800  0.2967
   36TAL   C17725803  -1.327   4.510   0.518  0.7190 -0.3681 -0.6071
   36TAL   C17825804  -1.209   4.531   0.421  0.7518  0.0399 -0.0682
   36TAL   C17925805  -1.124   4.665   0.432 -1.1394  1.1257  0.7613
   36TAL   C18025806  -1.032   4.678   0.312  0.8751  0.9913  1.2468
   37HTM   C18125807  -1.255   4.266   1.006  0.5397  0.0986  0.0064
   37HTM   C18225808  -1.345   4.181   1.063  0.6149  0.2973  0.4243
   37HTM   C18325809  -1.334   4.045   1.018  0.2296  0.2323  0.5154
   37HTM   C18425810  -1.236   4.026   0.925 -0.1391 -0.0157  0.1670
   37HTM    S1925811  -1.149   4.180   0.888 -0.0276 -0.1881 -0.3069
   38TAL   C18525812  -1.413   3.944   1.082  0.2798  0.2242  0.1612
   38TAL   C18625813  -1.356   3.882   1.206 -0.5364  0.8883 -0.7521
   38TAL   C18725814  -1.458   3.791   1.268 -0.1387  1.1715 -0.0057
   38TAL   C18825815  -1.391   3.675   1.358  0.7074 -0.2409  0.5159
   38TAL   C18925816  -1.288   3.591   1.295  0.8258 -0.9966  0.6150
   38TAL   C19025817  -1.178   3.536   1.384  0.0486 -0.2206 -0.6678
   39HTM   C19125818  -1.216   3.906   0.852  0.5375 -0.1500 -0.1230
   39HTM   C19225819  -1.099   3.838   0.869  0.5705 -0.1913 -0.5080
   39HTM   C19325820  -1.089   3.719   0.789  0.2997 -0.1503 -0.6026
   39HTM   C19425821  -1.199   3.696   0.711  0.0602 -0.0775 -0.2897
   39HTM    S2025822  -1.324   3.825   0.733  0.1591 -0.0551  0.1521
   40TAL   C19525823  -0.958   3.647   0.776 -0.3814  0.2644 -0.1106
   40TAL   C19625824  -0.913   3.568   0.899  1.0440  0.8089  0.1555
   40TAL   C19725825  -0.862   3.423   0.864 -1.0089  0.8851 -0.8033
   40TAL   C19825826  -0.839   3.308   0.963  1.3649  0.8850  0.2276
   40TAL   C19925827  -0.815   3.326   1.111  0.2438 -0.4932  0.2063
   40TAL   C20025828  -0.699   3.268   1.187  0.0076 -0.8117 -0.1896
   41HTM   C20125829  -1.233   3.590   0.621  0.2034  0.4792  0.4856
   41HTM   C20225830  -1.235   3.455   0.642  0.7508  0.4583  0.4298
   41HTM   C20325831  -1.295   3.380   0.535  1.0233  0.2602  0.4145
   41HTM   C20425832  -1.339   3.457   0.432  0.6833  0.1302  0.4586
   41HTM    S2125833  -1.307   3.632   0.462 -0.0123  0.2486  0.5234
   42TAL   C20525834  -1.283   3.230   0.546  0.2367 -0.2205  0.0398
   42TAL   C20625835  -1.138   3.181   0.520 -0.5535 -0.0238  0.0001
   42TAL   C20725836  -1.127   3.034   0.561  0.6417  0.0538  0.8947
   42TAL   C20825837  -0.983   3.027   0.625  0.0778 -1.1080 -0.3082
   42TAL   C20925838  -0.973   2.959   0.758 -0.2827 -0.2769 -0.7901
   42TAL   C21025839  -0.991   2.810   0.768  0.4327  0.6598  0.2132
   43HTM   C21125840  -1.397   3.430   0.306  0.0116  0.4978  0.5533
   43HTM   C21225841  -1.361   3.490   0.189  0.3004  0.6276  0.7070
   43HTM   C21325842  -1.401   3.416   0.072  0.5212  0.7953  0.5254
   43HTM   C21425843  -1.467   3.301   0.099  0.4006  0.7935  0.2334
   43HTM    S2225844  -1.485   3.275   0.277 -0.0041  0.5781  0.1644
   44TAL   C21525845  -1.377   3.469  -0.066 -0.5832  1.0534  0.3352
   44TAL   C21625846  -1.370   3.617  -0.107  0.2870 -0.0988 -0.8134
   44TAL   C21725847  -1.507   3.696  -0.107 -0.7185 -0.2713  0.6060
   44TAL   C21825848  -1.564   3.737   0.026 -0.5045  0.3826  0.2578
   44TAL   C21925849  -1.489   3.862   0.070  0.2450 -0.1234  0.2337
   44TAL   C22025850  -1.512   3.882   0.214  0.5783 -0.3474  0.4188
   45HTM   C22125851  -1.539   3.197   0.018  0.3799 -0.5396  0.6246
   45HTM   C22225852  -1.497   3.124  -0.089  0.4885 -0.7603  0.8166
   45HTM   C22325853  -1.590   3.021  -0.129  0.2656 -0.4698  0.5810
   45HTM   C22425854  -1.703   3.016  -0.052 -0.0132 -0.0277  0.2095
   45HTM    S2325855  -1.700   3.142   0.077 -0.0151  0.0568  0.1277
   46TAL   C22525856  -1.548   2.940  -0.252  0.0935  0.4983 -0.5018
   46TAL   C22625857  -1.567   2.972  -0.404 -0.4015  0.3898 -0.1442
   46TAL   C22725858  -1.711   3.004  -0.433 -0.2743  0.6827  0.3101
   46TAL   C22825859  -1.749   3.015  -0.586  0.3725  0.3354  0.3993
   46TAL   C22925860  -1.818   3.146  -0.629 -0.5401  0.2917 -0.6112
   46TAL   C23025861  -1.724   3.269  -0.609 -0.3038 -0.5912  0.1572
   47HTM   C23125862  -1.818   2.927  -0.049  0.0421  0.0323 -0.1739
   47HTM   C23225863  -1.940   2.959   0.003 -0.1409 -0.0579 -0.5438
   47HTM   C23325864  -2.045   2.868  -0.037  0.0229 -0.0761 -0.9487
   47HTM   C23425865  -2.003   2.768  -0.119  0.3309  0.0002 -0.8876
   47HTM    S2425866  -1.826   2.779  -0.152  0.4389  0.1016 -0.3092
   48TAL   C23525867  -2.188   2.903   0.003 -0.1370 -0.6364 -0.1806
   48TAL   C23625868  -2.293   2.801  -0.027 -1.0532 -0.6314 -0.1422
   48TAL   C23725869  -2.305   2.688   0.069 -0.3083 -0.4863 -0.4589
   48TAL   C23825870  -2.319   2.724   0.224  0.0161 -0.2561 -0.1875
   48TAL   C23925871  -2.363   2.599   0.304  0.0054 -0.4810 -0.9200
   48TAL   C24025872  -2.284   2.593   0.434 -0.2657  0.0210  0.0923
    1HTM     C125873   5.963   8.011   3.493  0.1449  0.4668 -0.0385
    1HTM     C225874   5.840   7.975   3.541  0.1373  0.1684 -0.2774
    1HTM     C325875   5.736   7.979   3.441  0.3564 -0.2793 -0.5288
    1HTM     C425876   5.780   8.017   3.318  0.5310 -0.3225 -0.4816
    1HTM     S125877   5.957   8.053   3.318  0.4314  0.2032 -0.1131
    2TAL     C525878   5.578   7.963   3.468 -1.1590  0.2116 -0.6981
    2TAL     C625879   5.523   7.830   3.518  0.2480 -0.4762 -0.0074
    2TAL     C725880   5.549   7.704   3.434 -0.1399  0.5504  0.6292
    2TAL     C825881   5.438   7.658   3.331 -0.0922  0.8686  0.3029
    2TAL     C925882   5.311   7.645   3.414  0.2450 -0.2414  0.5186
    2TAL    C1025883   5.196   7.696   3.334  0.1956  1.0069  0.1216
    3HTM    C1125884   5.709   8.041   3.191  0.3682  0.5308 -0.0119
    3HTM    C1225885   5.619   7.957   3.133 -0.2403  0.6782  0.6920
    3HTM    C1325886   5.575   7.999   3.003 -0.7685  0.4607  0.7942
    3HTM    C1425887   5.632   8.116   2.961 -0.5627  0.1480  0.1683
    3HTM     S225888   5.746   8.182   3.085  0.3209  0.1032 -0.6049
    4TAL    C1525889   5.465   7.938   2.919 -0.5499  0.5306  0.6877
    4TAL    C1625890   5.438   7.784   2.911  0.6012  1.3904 -0.2493
    4TAL    C1725891   5.288   7.735   2.900 -0.1429 -0.8647  0.1655
    4TAL    C1825892   5.257   7.599   2.949 -0.0879  0.0238 -0.5095
    4TAL    C1925893   5.346   7.475   2.901 -0.6710  0.0135  0.7665
    4TAL    C2025894   5.324   7.341   2.959  0.9751  0.1541 -0.4811
    5HTM    C2125895   5.637   8.211   2.854 -0.4186 -0.1430  0.1751
    5HTM    C2225896   5.720   8.316   2.828 -0.2625 -0.2315  0.3197
    5HTM    C2325897   5.690   8.386   2.706 -0.0428 -0.1328  0.3210
    5HTM    C2425898   5.583   8.335   2.639 -0.0311  0.0312  0.1776
    5HTM     S325899   5.512   8.193   2.724 -0.2990  0.0738  0.0286
    6TAL    C2525900   5.769   8.503   2.664  0.8550  0.0119  0.6213
    6TAL    C2625901   5.781   8.635   2.743  1.8269 -0.3277 -0.2341
    6TAL    C2725902   5.868   8.735   2.684 -1.1414 -0.3210 -0.6189
    6TAL    C2825903   6.019   8.695   2.677 -0.3751 -1.1771 -0.0118
    6TAL    C2925904   6.119   8.778   2.600  0.1237  0.7358  1.8188
    6TAL    C3025905   6.188   8.684   2.510 -0.2862  0.0993  0.0514
    7HTM    C3125906   5.521   8.380   2.512  0.3088  0.5837 -0.2323
    7HTM    C3225907   5.528   8.333   2.384  0.4075  0.6571 -0.2545
    7HTM    C3325908   5.449   8.407   2.290  0.1605  0.4690 -0.1986
    7HTM    C3425909   5.382   8.512   2.345 -0.1269  0.2521 -0.1338
    7HTM     S425910   5.413   8.525   2.522 -0.1075  0.2689 -0.1385
    8TAL    C3525911   5.463   8.367   2.149 -0.0650  0.8693  0.7895
    8TAL    C3625912   5.392   8.240   2.096  0.2563 -0.3077  1.2805
    8TAL    C3725913   5.244   8.241   2.075 -0.1036 -0.3758 -0.1474
    8TAL    C3825914   5.199   8.370   1.980 -0.3448  0.8227  0.2831
    8TAL    C3925915   5.048   8.380   1.961  0.2344  0.1793  0.1596
    8TAL    C4025916   4.963   8.474   2.054 -0.1593  0.6656  0.8047
    9HTM    C4125917   5.304   8.618   2.285  0.2433  0.4405 -0.5153
    9HTM    C4225918   5.300   8.656   2.154  0.2618  0.8810 -0.3908
    9HTM    C4325919   5.236   8.783   2.133  0.3155  0.9830  0.0322
    9HTM    C4425920   5.190   8.842   2.247  0.3378  0.6206  0.2303
    9HTM     S525921   5.226   8.741   2.392  0.2925  0.1182 -0.1047
   10TAL    C4525922   5.222   8.843   1.992 -0.3642  0.4532  0.0815
   10TAL    C4625923   5.262   8.774   1.862 -0.1269 -0.5174 -0.0852
   10TAL    C4725924   5.408   8.758   1.832 -0.0509 -0.8966 -0.0415
   10TAL    C4825925   5.426   8.682   1.699  0.4518 -0.5260  0.8480
   10TAL    C4925926   5.556   8.600   1.672  0.2626 -0.1301 -0.7932
   10TAL    C5025927   5.544   8.478   1.573 -0.8741  0.4187 -0.6740
   11HTM    C5125928   5.116   8.973   2.256 -0.0125  0.0425  0.0792
   11HTM    C5225929   5.103   9.078   2.169  0.3582  0.2413  0.2581
   11HTM    C5325930   5.027   9.188   2.221  0.3576  0.2306  0.2795
   11HTM    C5425931   4.982   9.167   2.348 -0.0138  0.0232  0.1170
   11HTM     S625932   5.032   9.006   2.412 -0.3944 -0.1760 -0.0772
   12TAL    C5525933   4.992   9.311   2.133  0.9969  0.3080 -0.2648
   12TAL    C5625934   4.891   9.276   2.014 -0.4520 -0.1515  0.7713
   12TAL    C5725935   4.935   9.377   1.906 -1.2262  0.2579  0.3498
   12TAL    C5825936   4.826   9.395   1.801 -0.5345 -0.0813  1.0366
   12TAL    C5925937   4.885   9.460   1.676  0.9625 -0.1017  0.1079
   12TAL    C6025938   4.781   9.490   1.566 -0.5579 -0.1005  0.1986
   13HTM    C6125939   4.910   9.243   2.460  0.0962  0.1787  0.2950
   13HTM    C6225940   4.842   9.359   2.440  0.8276  0.7260  0.8687
   13HTM    C6325941   4.761   9.399   2.552  1.2147  0.7868  1.1320
   13HTM    C6425942   4.767   9.313   2.658  0.7781  0.2857  0.7590
   13HTM     S725943   4.877   9.174   2.623 -0.1629 -0.3059  0.0407
   14TAL    C6525944   4.669   9.527   2.544 -0.0323  0.6566  0.6441
   14TAL    C6625945   4.751   9.647   2.504 -0.0502 -0.2870  0.4236
   14TAL    C6725946   4.667   9.769   2.507 -0.3449  0.0207  0.6724
   14TAL    C6825947   4.664   9.847   2.631 -0.0268 -0.0311  0.3156
   14TAL    C6925948   4.633   9.993   2.602 -0.0070 -0.8098  0.2919
   14TAL    C7025949   4.646  10.073   2.730 -1.0186  0.2928 -0.2146
   15HTM    C7125950   4.699   9.320   2.784 -0.1795  0.5214  0.1195
   15HTM    C7225951   4.728   9.235   2.887 -0.1154  0.1981 -0.1605
   15HTM    C7325952   4.626   9.231   2.989 -0.3380 -0.5858 -0.4015
   15HTM    C7425953   4.520   9.312   2.964 -0.5721 -0.8599 -0.3053
   15HTM     S825954   4.539   9.401   2.808 -0.5288 -0.1441  0.1002
   16TAL    C7525955   4.633   9.136   3.117 -0.7675  0.2184 -0.4114
   16TAL    C7625956   4.580   8.991   3.107 -0.0045  0.6404  0.6940
   16TAL    C7725957   4.603   8.888   3.220  0.2115  0.0381 -0.7131
   16TAL    C7825958   4.556   8.925   3.364 -0.2729 -0.1417 -0.7690
   16TAL    C7925959   4.425   8.997   3.380  0.3213 -1.0513  0.1139
   16TAL    C8025960   4.324   8.893   3.381  0.3767 -0.1426 -0.0132
   17HTM    C8125961   4.411   9.356   3.040  0.4842 -0.1451 -0.1576
   17HTM    C8225962   4.290   9.364   2.978  0.5684  0.0484 -0.2957
   17HTM    C8325963   4.178   9.361   3.068  0.4570  0.1409 -0.4299
   17HTM    C8425964   4.213   9.350   3.199  0.2880  0.0174 -0.3941
   17HTM     S925965   4.393   9.342   3.219  0.2560 -0.2270 -0.1866
   18TAL    C8525966   4.040   9.374   3.013 -0.2366 -0.0693  0.8312
   18TAL    C8625967   3.952   9.242   2.988 -0.5764  0.1970 -0.4328
   18TAL    C8725968   3.799   9.261   2.968 -0.4876  1.4175  0.1424
   18TAL    C8825969   3.716   9.137   3.006  0.4283 -0.5759 -1.8321
   18TAL    C8925970   3.560   9.145   3.012 -0.3552 -0.2658  0.4061
   18TAL    C9025971   3.519   9.110   2.873 -0.4256 -0.4037 -0.1083
   19HTM    C9125972   4.130   9.319   3.308 -0.1688  1.6571 -0.0153
   19HTM    C9225973   4.171   9.232   3.405  0.7118  1.6418 -0.3758
   19HTM    C9325974   4.071   9.209   3.506  1.0334  0.4120 -0.3175
   19HTM    C9425975   3.955   9.277   3.486  0.3979 -0.5101  0.0874
   19HTM    S1025976   3.962   9.377   3.337 -0.6643  0.1078  0.4293
   20TAL    C9525977   4.101   9.126   3.628 -0.7443 -1.0997 -0.9062
   20TAL    C9625978   4.241   9.148   3.692 -0.4793  0.1076 -0.0671
   20TAL    C9725979   4.278   9.294   3.736  0.1262 -0.7380  0.3848
   20TAL    C9825980   4.364   9.302   3.863  0.4797  0.0686 -0.0367
   20TAL    C9925981   4.316   9.417   3.951  0.5181 -0.1891  0.4001
   20TAL   C10025982   4.423   9.463   4.054 -0.1806 -0.2980  0.3066
   21HTM   C10125983   3.817   9.255   3.536 -0.1289 -0.4213 -0.0524
   21HTM   C10225984   3.703   9.307   3.483 -0.1195 -0.6466 -0.3008
   21HTM   C10325985   3.587   9.289   3.566 -0.1409 -0.3161 -0.2555
   21HTM   C10425986   3.612   9.223   3.682 -0.1667  0.1611  0.0274
   21HTM    S1125987   3.787   9.178   3.696 -0.1660  0.2311  0.2604
   22TAL   C10525988   3.463   9.363   3.532  0.1755  0.8155 -0.4888
   22TAL   C10625989   3.397   9.316   3.402  0.4155  0.1818  0.4086
   22TAL   C10725990   3.273   9.221   3.402 -0.4849  0.0560  0.2322
   22TAL   C10825991   3.147   9.292   3.460 -0.7170 -0.0909 -0.4294
   22TAL   C10925992   3.049   9.181   3.512  0.2839 -0.6841  0.1295
   22TAL   C11025993   2.915   9.240   3.550  0.0408  0.2981 -0.9429
   23HTM   C11125994   3.514   9.176   3.789 -0.2931  0.2445  0.0119
   23HTM   C11225995   3.422   9.260   3.843 -1.0046  0.1945 -1.0453
   23HTM   C11325996   3.325   9.193   3.926 -1.3667  0.2525 -1.4160
   23HTM   C11425997   3.343   9.058   3.935 -0.9312  0.3470 -0.6413
   23HTM    S1225998   3.485   9.004   3.838 -0.0230  0.3702  0.6262
   24TAL   C11525999   3.225   9.274   4.005 -0.0076 -0.4134  0.3678
   24TAL   C11626000   3.132   9.353   3.904  0.0521  0.5759 -0.0840
   24TAL   C11726001   3.010   9.439   3.950  0.3297 -0.2093  0.3694
   24TAL   C11826002   2.941   9.530   3.856  0.2342 -0.5124 -0.0742
   24TAL   C11926003   3.019   9.649   3.799 -0.5096  0.2712 -0.4694
   24TAL   C12026004   2.927   9.744   3.712  0.7939  0.7218 -0.7733
   25HTM   C12126005   3.277   8.960   4.014 -0.4578 -0.1393 -0.4289
   25HTM   C12226006   3.174   8.879   3.976 -0.4106 -0.2801 -0.2553
   25HTM   C12326007   3.137   8.782   4.077 -0.1760 -0.2663 -0.1527
   25HTM   C12426008   3.211   8.790   4.191 -0.0442 -0.1148 -0.2484
   25HTM    S1326009   3.335   8.921   4.180 -0.2074  0.0232 -0.4768
   26TAL   C12526010   3.011   8.697   4.055 -0.0734 -0.3550  0.1459
   26TAL   C12626011   2.880   8.769   4.029 -1.0813  0.5861  1.1540
   26TAL   C12726012   2.760   8.679   4.040 -0.2596  0.3057  0.0092
   26TAL   C12826013   2.631   8.768   4.041 -0.2896 -0.3711 -0.9772
   26TAL   C12926014   2.509   8.689   4.090 -0.6445 -0.1709 -0.4429
   26TAL   C13026015   2.460   8.741   4.221  0.0736  0.3448 -1.1086
   27HTM   C13126016   3.205   8.713   4.309 -0.4561 -0.2792  0.5698
   27HTM   C13226017   3.158   8.740   4.434 -0.0762 -0.4599  0.7536
   27HTM   C13326018   3.174   8.631   4.527  0.8677 -0.3436  0.7498
   27HTM   C13426019   3.233   8.521   4.472  1.2077 -0.0741  0.5631
   27HTM    S1426020   3.273   8.546   4.298  0.3553  0.0546  0.3762
   28TAL   C13526021   3.112   8.662   4.666 -0.1211  0.4366  0.7448
   28TAL   C13626022   3.215   8.725   4.772  0.1926 -1.1657 -0.0908
   28TAL   C13726023   3.315   8.836   4.726 -0.3468  0.3708  0.2344
   28TAL   C13826024   3.437   8.852   4.818 -0.0933 -0.0822  0.2402
   28TAL   C13926025   3.537   8.936   4.777 -0.8076 -0.3736  1.0356
   28TAL   C14026026   3.504   9.089   4.754  0.1077 -0.9639 -0.7436
   29HTM   C14126027   3.239   8.387   4.525  0.9082  0.1855  0.0705
   29HTM   C14226028   3.252   8.272   4.453  1.0565  0.4387 -0.3142
   29HTM   C14326029   3.267   8.154   4.534  0.3761  0.0849 -0.6839
   29HTM   C14426030   3.265   8.180   4.668 -0.2910 -0.4379 -0.5809
   29HTM    S1526031   3.245   8.356   4.702 -0.1102 -0.5247 -0.0046
   30TAL   C14526032   3.309   8.030   4.465  0.7365 -0.7583  0.1069
   30TAL   C14626033   3.190   7.959   4.396 -0.5121 -0.3652 -0.0561
   30TAL   C14726034   3.212   7.821   4.333  0.0593  0.2958  0.0910
   30TAL   C14826035   3.319   7.798   4.226  0.7565 -0.3471  0.7810
   30TAL   C14926036   3.469   7.803   4.262 -0.8481  0.4610  0.0488
   30TAL   C15026037   3.567   7.783   4.143  0.0722  0.5831 -0.8421
   31HTM   C15126038   3.279   8.091   4.786  0.4116  0.1416 -0.2825
   31HTM   C15226039   3.281   8.114   4.921  0.2943  0.3400 -0.3132
   31HTM   C15326040   3.281   7.994   5.000 -0.0145  0.4592 -0.1307
   31HTM   C15426041   3.278   7.879   4.926 -0.1327  0.3510  0.0392
   31HTM    S1626042   3.276   7.915   4.749  0.1391  0.0888 -0.0186
   32TAL   C15526043   3.286   8.001   5.156 -0.4299 -0.4083  0.7431
   32TAL   C15626044   3.181   8.084   5.232 -0.7531  0.2538 -0.1587
   32TAL   C15726045   3.213   8.142   5.369 -0.6283  0.0292  0.0685
   32TAL   C15826046   3.119   8.250   5.396  1.1626  0.0960 -0.6322
   32TAL   C15926047   3.133   8.290   5.547  0.2081 -0.3102 -0.2589
   32TAL   C16026048   3.016   8.252   5.639  0.1523 -0.2537  1.0184
   33HTM   C16126049   3.295   7.742   4.961 -0.0059  0.1487 -0.1034
   33HTM   C16226050   3.268   7.628   4.892 -1.2175  0.1297  0.3450
   33HTM   C16326051   3.306   7.508   4.961 -2.1011  0.0046  0.6377
   33HTM   C16426052   3.362   7.530   5.083 -1.5633 -0.0720  0.4125
   33HTM    S1726053   3.371   7.706   5.121  0.1138  0.0088 -0.1916
   34TAL   C16526054   3.291   7.367   4.907 -1.0350  0.5815  0.2838
   34TAL   C16626055   3.334   7.336   4.759  0.0158 -0.5194 -0.1140
   34TAL   C16726056   3.490   7.373   4.734  0.0419  0.2619  0.4365
   34TAL   C16826057   3.594   7.272   4.707  0.9306  0.8171  0.1661
   34TAL   C16926058   3.725   7.319   4.661 -0.4539  0.3829  0.1245
   34TAL   C17026059   3.806   7.414   4.750 -0.6265  0.5418  0.1969
   35HTM   C17126060   3.443   7.449   5.178  0.4327  0.0657 -0.0470
   35HTM   C17226061   3.579   7.447   5.184  0.4202 -0.1346  0.2296
   35HTM   C17326062   3.633   7.329   5.245  0.1178 -0.1535  0.4638
   35HTM   C17426063   3.538   7.240   5.286 -0.1005  0.0323  0.3658
   35HTM    S1826064   3.372   7.300   5.250  0.0603  0.2473 -0.0331
   36TAL   C17526065   3.790   7.321   5.259  0.7031 -0.0610 -0.0963
   36TAL   C17626066   3.864   7.283   5.125  0.5497 -0.1883  0.4743
   36TAL   C17726067   4.011   7.329   5.095  0.5147  0.0474 -0.3943
   36TAL   C17826068   4.037   7.480   5.138 -0.6279  0.5772 -0.1694
   36TAL   C17926069   4.160   7.515   5.049  0.0492 -0.4986 -0.8247
   36TAL   C18026070   4.227   7.647   5.099  0.4018 -0.6663 -0.5096
   37HTM   C18126071   3.555   7.132   5.378 -0.7086  0.0654  0.0630
   37HTM   C18226072   3.671   7.064   5.400 -0.4175  0.4897 -0.1564
   37HTM   C18326073   3.656   6.948   5.483  0.1855  0.4950 -0.0329
   37HTM   C18426074   3.528   6.927   5.525  0.3544  0.0748  0.2806
   37HTM    S1926075   3.416   7.053   5.462 -0.2399 -0.3636  0.4455
   38TAL   C18526076   3.790   6.884   5.519 -0.6941 -0.3511  0.3432
   38TAL   C18626077   3.896   6.958   5.594  1.0270 -0.3506 -0.0658
   38TAL   C18726078   3.881   6.953   5.750  0.0875 -0.5066  0.0880
   38TAL   C18826079   4.003   7.001   5.840  0.2409 -0.9712 -0.0220
   38TAL   C18926080   4.137   6.928   5.829 -0.5186 -1.0261  0.0930
   38TAL   C19026081   4.256   6.963   5.916  0.1360 -0.5597  0.3268
   39HTM   C19126082   3.469   6.824   5.619  0.3900 -0.2045  0.0738
   39HTM   C19226083   3.334   6.805   5.633  0.3542 -0.3113 -0.3716
   39HTM   C19326084   3.300   6.685   5.705  0.2074 -0.3685 -0.5347
   39HTM   C19426085   3.409   6.613   5.746  0.1312 -0.3056 -0.2133
   39HTM    S2026086   3.563   6.691   5.696  0.2398 -0.1678  0.3242
   40TAL   C19526087   3.151   6.658   5.729 -0.1832  0.2108  0.2440
   40TAL   C19626088   3.066   6.589   5.626  0.4541 -0.7544 -1.2008
   40TAL   C19726089   2.979   6.483   5.701 -0.9333 -0.6630 -1.3763
   40TAL   C19826090   2.883   6.406   5.618  0.2136 -0.6640 -0.0778
   40TAL   C19926091   2.735   6.396   5.662 -0.6394 -0.3403 -0.1384
   40TAL   C20026092   2.644   6.368   5.546 -1.0004  0.4419 -0.3443
   41HTM   C20126093   3.429   6.492   5.828  0.0135  0.0474 -0.5089
   41HTM   C20226094   3.538   6.445   5.896 -0.0387  0.2345 -0.2888
   41HTM   C20326095   3.516   6.316   5.956 -0.1056  0.4300  0.1094
   41HTM   C20426096   3.391   6.265   5.935 -0.1044  0.3919  0.1931
   41HTM    S2126097   3.290   6.377   5.837 -0.0180  0.1041 -0.2280
   42TAL   C20526098   3.623   6.260   6.053  0.5868  0.1891 -0.0593
   42TAL   C20626099   3.726   6.369   6.106  0.6717 -0.0414 -1.1064
   42TAL   C20726100   3.700   6.369   6.253  0.1880  1.1433 -0.7410
   42TAL   C20826101   3.777   6.477   6.331  0.7152  1.2290  0.5781
   42TAL   C20926102   3.746   6.510   6.476 -0.0644  0.6141  0.1818
   42TAL   C21026103   3.835   6.435   6.584 -0.5517  0.0203  0.1701
   43HTM   C21126104   3.346   6.130   5.954  0.2002 -0.5825 -0.5858
   43HTM   C21226105   3.222   6.083   5.920  0.1551 -0.5935 -0.4120
   43HTM   C21326106   3.191   5.955   5.978  0.0521 -0.3760  0.0206
   43HTM   C21426107   3.290   5.904   6.057  0.0186 -0.1995  0.1767
   43HTM    S2226108   3.432   6.016   6.064  0.1155 -0.2950 -0.2136
   44TAL   C21526109   3.053   5.906   5.946 -0.4910 -0.3933  0.4167
   44TAL   C21626110   2.969   5.847   6.059 -1.2543  0.5440  0.7582
   44TAL   C21726111   2.957   5.916   6.190  0.3694 -0.1001 -0.0610
   44TAL   C21826112   2.859   5.847   6.280  0.1191 -0.5270 -1.4511
   44TAL   C21926113   2.740   5.946   6.297 -0.5283  0.2961 -0.2887
   44TAL   C22026114   2.666   5.926   6.430  0.1176  0.4996 -0.2356
   45HTM   C22126115   3.304   5.786   6.135  0.4229 -0.3810  0.1331
   45HTM   C22226116   3.289   5.780   6.271  0.8208 -0.2418  0.1836
   45HTM   C22326117   3.300   5.647   6.325  1.0431 -0.1789  0.2995
   45HTM   C22426118   3.322   5.551   6.230  0.8149 -0.2700  0.3373
   45HTM    S2326119   3.332   5.622   6.065  0.2973 -0.4438  0.2287
   46TAL   C22526120   3.276   5.618   6.475  0.1881  1.0183  0.4058
   46TAL   C22626121   3.133   5.589   6.532  0.2895 -0.3345 -0.3516
   46TAL   C22726122   3.062   5.717   6.574 -0.1963  0.3346  0.5857
   46TAL   C22826123   2.956   5.684   6.673 -0.0892  0.9536  0.2778
   46TAL   C22926124   2.884   5.806   6.728 -0.2320 -0.4167 -0.4913
   46TAL   C23026125   2.752   5.795   6.788  0.4174  0.2553  0.3465
   47HTM   C23126126   3.328   5.412   6.232  0.4283 -0.3559  0.4315
   47HTM   C23226127   3.425   5.337   6.173  0.4967 -0.4710  0.6844
   47HTM   C23326128   3.402   5.195   6.180  0.1172 -0.4313  0.3014
   47HTM   C23426129   3.287   5.162   6.245 -0.2407 -0.2859 -0.2439
   47HTM    S2426130   3.198   5.308   6.302 -0.1252 -0.1870 -0.3162
   48TAL   C23526131   3.517   5.109   6.137 -0.5047  2.0870  0.6087
   48TAL   C23626132   3.513   4.958   6.127  0.1076 -0.1210  0.1264
   48TAL   C23726133   3.654   4.891   6.109  0.5902  0.5346 -1.3362
   48TAL   C23826134   3.659   4.738   6.121  0.7710  0.8489 -0.7279
   48TAL   C23926135   3.634   4.677   5.981 -0.8398 -1.2018  0.6023
   48TAL   C24026136   3.612   4.530   5.984 -0.2332  0.2578 -0.5282
    1HTM     C126137   6.128   1.416   2.421  0.1488  0.0072  0.0411
    1HTM     C226138   6.192   1.361   2.313 -0.0952  0.1676 -0.1891
    1HTM     C326139   6.154   1.224   2.286 -0.2973  0.2703 -0.4238
    1HTM     C426140   6.060   1.176   2.373 -0.2071  0.1882 -0.3725
    1HTM     S126141   6.013   1.299   2.496  0.1424 -0.0269 -0.0211
    2TAL     C526142   6.222   1.172   2.160  0.2858 -0.0592 -0.5113
    2TAL     C626143   6.355   1.103   2.180 -0.4603  0.1716  0.0572
    2TAL     C726144   6.402   1.029   2.054 -1.3480  0.4818 -0.1017
    2TAL     C826145   6.556   1.065   2.050  0.5389 -1.3167 -0.7435
    2TAL     C926146   6.632   0.988   1.952 -0.2999 -0.6898 -0.2551
    2TAL    C1026147   6.769   1.036   1.933 -0.4718 -0.7537  0.3240
    3HTM    C1126148   6.000   1.048   2.374 -0.6104 -0.1517 -0.1546
    3HTM    C1226149   5.946   0.979   2.270 -0.9130 -0.4052  0.1640
    3HTM    C1326150   5.881   0.857   2.308 -0.6436 -0.4069  0.6250
    3HTM    C1426151   5.886   0.832   2.442 -0.1358 -0.1548  0.6578
    3HTM     S226152   5.973   0.962   2.531  0.0432  0.1065  0.1049
    4TAL    C1526153   5.813   0.777   2.204  0.6941  0.5498 -0.0839
    4TAL    C1626154   5.661   0.820   2.195  0.2204  0.0560  0.0032
    4TAL    C1726155   5.591   0.731   2.085 -0.1698  0.6110  0.2919
    4TAL    C1826156   5.531   0.601   2.151 -0.4847 -0.5641  0.3701
    4TAL    C1926157   5.490   0.472   2.076 -0.2171  0.0379  0.2420
    4TAL    C2026158   5.589   0.433   1.970  0.4543 -0.0770  0.1149
    5HTM    C2126159   5.836   0.729   2.527  0.1893  0.1121  0.5398
    5HTM    C2226160   5.902   0.659   2.623 -0.4704  0.3866  1.2152
    5HTM    C2326161   5.827   0.548   2.677 -0.8705  0.5835  1.0663
    5HTM    C2426162   5.703   0.535   2.622 -0.5159  0.4591  0.2775
    5HTM     S326163   5.672   0.661   2.497  0.3577  0.0807 -0.3435
    6TAL    C2526164   5.911   0.455   2.770  0.7385  0.4373 -0.0384
    6TAL    C2626165   6.002   0.513   2.876  0.8031  1.0558 -0.3459
    6TAL    C2726166   6.078   0.396   2.944 -0.1039  0.5354  0.1986
    6TAL    C2826167   6.147   0.419   3.078 -0.8002  0.0208 -0.3295
    6TAL    C2926168   6.075   0.354   3.198  0.6905  0.6603 -0.1005
    6TAL    C3026169   6.127   0.419   3.330  0.2815 -0.2127  0.5304
    7HTM    C3126170   5.599   0.433   2.654 -0.5432 -0.0492  0.2528
    7HTM    C3226171   5.481   0.419   2.588 -0.1911 -0.6404 -0.2815
    7HTM    C3326172   5.401   0.308   2.635  0.1812 -1.0964 -0.7056
    7HTM    C3426173   5.459   0.238   2.736  0.1127 -0.8528 -0.4946
    7HTM     S426174   5.620   0.306   2.781 -0.4312 -0.0222  0.2619
    8TAL    C3526175   5.276   0.257   2.571 -0.4516 -0.4311 -0.0620
    8TAL    C3626176   5.201   0.333   2.469  0.2036 -0.5033  0.3230
    8TAL    C3726177   5.063   0.281   2.453 -0.4179  0.2413 -0.0170
    8TAL    C3826178   4.991   0.308   2.319  1.1233 -0.0126  1.0850
    8TAL    C3926179   5.056   0.228   2.203 -0.4258  0.3931  0.4678
    8TAL    C4026180   4.999   0.253   2.074 -0.0994  0.7656 -0.7303
    9HTM    C4126181   5.414   0.114   2.807  0.2043 -0.2034 -0.5290
    9HTM    C4226182   5.288   0.067   2.831  0.0687 -0.1594 -1.1299
    9HTM    C4326183   5.284  -0.061   2.897 -0.2929 -0.2587 -1.3376
    9HTM    C4426184   5.408  -0.112   2.923 -0.4327 -0.3783 -0.8949
    9HTM     S526185   5.539  -0.002   2.866 -0.1164 -0.3748 -0.1758
   10TAL    C4526186   5.167  -0.131   2.950 -0.1932  0.6562 -0.2036
   10TAL    C4626187   5.017  -0.101   2.948  0.1085 -0.5312 -0.0173
   10TAL    C4726188   4.967   0.018   3.019  0.3644  0.3494 -0.0806
   10TAL    C4826189   4.821   0.005   3.038  0.3956  0.8092  0.0800
   10TAL    C4926190   4.765  -0.084   3.151  0.6195  0.8752 -1.0436
   10TAL    C5026191   4.617  -0.062   3.174  0.6030  0.2479 -0.2010
   11HTM    C5126192   5.444  -0.241   2.983 -0.4332  0.3739 -0.1736
   11HTM    C5226193   5.550  -0.250   3.069 -0.8435  0.5295  0.3623
   11HTM    C5326194   5.582  -0.385   3.108 -0.8749  0.5803  0.5661
   11HTM    C5426195   5.500  -0.479   3.052 -0.4881  0.4629  0.1856
   11HTM     S626196   5.376  -0.403   2.945 -0.0512  0.2785 -0.4648
   12TAL    C5526197   5.688  -0.395   3.211  0.0128  0.6534 -0.2439
   12TAL    C5626198   5.692  -0.298   3.328  0.4991 -0.5919 -0.1618
   12TAL    C5726199   5.771  -0.342   3.456  0.1765  0.7248  0.6848
   12TAL    C5826200   5.912  -0.388   3.428 -0.8132  0.3471 -0.2799
   12TAL    C5926201   5.992  -0.457   3.540 -0.0938 -0.2469  0.2237
   12TAL    C6026202   6.122  -0.518   3.481  0.1144  0.5908 -0.6444
   13HTM    C6126203   5.504  -0.624   3.071  0.0040  0.0892  0.1925
   13HTM    C6226204   5.395  -0.703   3.094  0.0222  0.0589  0.1764
   13HTM    C6326205   5.427  -0.842   3.113  0.0468  0.0503  0.0716
   13HTM    C6426206   5.560  -0.869   3.104  0.0475  0.0731  0.0079
   13HTM     S726207   5.656  -0.720   3.071  0.0166  0.1084  0.0758
   14TAL    C6526208   5.309  -0.939   3.126 -0.2812 -0.4211  0.8951
   14TAL    C6626209   5.181  -0.925   3.040 -0.0979  0.7575  0.2129
   14TAL    C6726210   5.038  -0.947   3.098 -0.4042  0.1369  0.6218
   14TAL    C6826211   4.978  -0.864   3.208  0.1710  0.1423 -0.5840
   14TAL    C6926212   5.030  -0.894   3.348 -0.4352 -0.0588  0.0896
   14TAL    C7026213   5.031  -1.029   3.419 -0.0084 -0.4501  0.0581
   15HTM    C7126214   5.637  -0.988   3.146  0.1565  0.5257 -0.6582
   15HTM    C7226215   5.599  -1.085   3.233 -0.4549  0.8910 -0.5057
   15HTM    C7326216   5.706  -1.174   3.271 -0.8421  0.7102  0.1894
   15HTM    C7426217   5.825  -1.144   3.214 -0.5259  0.2071  0.5670
   15HTM     S826218   5.813  -1.000   3.106  0.2919 -0.0801  0.0700
   16TAL    C7526219   5.680  -1.300   3.360  0.5434  1.0867  0.9992
   16TAL    C7626220   5.586  -1.296   3.480 -0.2630  0.0021 -0.2158
   16TAL    C7726221   5.611  -1.421   3.561 -0.1273  0.0877 -0.6334
   16TAL    C7826222   5.500  -1.415   3.670  0.0583 -0.4555 -0.4455
   16TAL    C7926223   5.507  -1.527   3.782  0.8199 -0.1688  0.1979
   16TAL    C8026224   5.600  -1.508   3.890  0.5606  0.6032  0.2110
   17HTM    C8126225   5.950  -1.223   3.201  0.2485  0.1015 -0.3406
   17HTM    C8226226   6.049  -1.210   3.107  0.3761 -0.1826 -0.2455
   17HTM    C8326227   6.159  -1.301   3.127  0.2221 -0.3142  0.0190
   17HTM    C8426228   6.145  -1.382   3.236 -0.0227 -0.1308  0.1254
   17HTM     S926229   5.989  -1.350   3.322 -0.0784  0.2257 -0.1018
   18TAL    C8526230   6.276  -1.284   3.037 -0.2252 -0.0982 -0.8425
   18TAL    C8626231   6.248  -1.255   2.888 -0.3927 -0.4593 -0.0538
   18TAL    C8726232   6.183  -1.365   2.813  0.0175 -0.1746 -0.3573
   18TAL    C8826233   6.278  -1.427   2.716  0.1011  0.1956  0.4952
   18TAL    C8926234   6.275  -1.586   2.715  0.7063 -0.6960  0.2693
   18TAL    C9026235   6.383  -1.654   2.640 -1.1498 -1.6388 -0.6096
   19HTM    C9126236   6.237  -1.467   3.295  0.6820  0.4510  0.2778
   19HTM    C9226237   6.280  -1.485   3.423  1.2673  0.3657  0.0780
   19HTM    C9326238   6.365  -1.600   3.440  0.8184 -0.0272 -0.2735
   19HTM    C9426239   6.387  -1.669   3.325 -0.1095 -0.2418 -0.3417
   19HTM    S1026240   6.302  -1.594   3.184 -0.4910  0.0381  0.0355
   20TAL    C9526241   6.426  -1.634   3.571 -0.3237 -0.1694 -0.1113
   20TAL    C9626242   6.489  -1.504   3.649 -0.1951 -0.3545  0.5624
   20TAL    C9726243   6.586  -1.536   3.761 -0.7997  0.2980 -0.0539
   20TAL    C9826244   6.683  -1.427   3.807 -1.0045  0.2309 -0.4726
   20TAL    C9926245   6.799  -1.477   3.911 -0.2733 -0.2710  1.2024
   20TAL   C10026246   6.928  -1.408   3.911 -0.5951  0.2771 -0.2761
   21HTM   C10126247   6.479  -1.781   3.303 -0.0180  0.0010 -0.1635
   21HTM   C10226248   6.567  -1.800   3.200 -0.4452 -0.1129 -0.5175
   21HTM   C10326249   6.624  -1.932   3.198 -0.6349 -0.1924 -0.7582
   21HTM   C10426250   6.580  -2.013   3.298 -0.3524 -0.1393 -0.5876
   21HTM    S1126251   6.461  -1.929   3.404  0.1795  0.0167 -0.1061
   22TAL   C10526252   6.731  -1.956   3.080  0.1444 -0.3002  0.0933
   22TAL   C10626253   6.740  -2.100   3.022  0.3948 -0.9902  0.8506
   22TAL   C10726254   6.815  -2.102   2.892 -0.1291 -0.0409 -0.3663
   22TAL   C10826255   6.880  -2.237   2.834  0.0045 -1.1785  0.4982
   22TAL   C10926256   6.957  -2.334   2.924 -0.5896 -0.0220 -0.1047
   22TAL   C11026257   7.003  -2.473   2.861 -0.1670 -1.0951 -0.9415
   23HTM   C11126258   6.609  -2.145   3.341  0.2030  0.4091 -0.0241
   23HTM   C11226259   6.524  -2.242   3.385  0.0237  0.5680 -0.0167
   23HTM   C11326260   6.587  -2.370   3.401 -0.1972  0.4692  0.0587
   23HTM   C11426261   6.719  -2.372   3.368 -0.1862  0.2349  0.1087
   23HTM    S1226262   6.776  -2.209   3.315  0.1062  0.1199  0.0641
   24TAL   C11526263   6.500  -2.489   3.429  0.7912  0.4394 -0.9219
   24TAL   C11626264   6.370  -2.522   3.347 -0.5177  0.3999 -0.5999
   24TAL   C11726265   6.299  -2.647   3.380 -0.1690 -0.1320  0.1703
   24TAL   C11826266   6.240  -2.717   3.270  0.1303  0.8289  0.4999
   24TAL   C11926267   6.340  -2.757   3.164  0.0182  1.0488 -1.2198
   24TAL   C12026268   6.279  -2.831   3.050  0.7470 -0.6220  0.1782
   25HTM   C12126269   6.808  -2.484   3.335 -0.2544 -0.1192 -1.1988
   25HTM   C12226270   6.783  -2.614   3.301  0.1868 -0.0584 -1.7862
   25HTM   C12326271   6.899  -2.685   3.255  0.7368  0.1600 -0.7917
   25HTM   C12426272   7.013  -2.610   3.254  0.7153  0.2657  0.5538
   25HTM    S1326273   6.981  -2.442   3.311 -0.0075  0.0964  0.6702
   26TAL   C12526274   6.883  -2.841   3.253 -0.0365  0.6783  0.8236
   26TAL   C12626275   6.793  -2.904   3.143  0.1412  0.6160 -0.9947
   26TAL   C12726276   6.819  -2.856   3.009 -0.6130  0.6509  0.4284
   26TAL   C12826277   6.891  -2.961   2.920 -0.5914  0.7312 -1.1287
   26TAL   C12926278   7.031  -2.926   2.888  0.8809  0.1012 -0.2950
   26TAL   C13026279   7.101  -3.007   2.791  1.6993  0.0646  0.3265
   27HTM   C13126280   7.143  -2.648   3.197 -0.2209 -0.1991  0.1879
   27HTM   C13226281   7.253  -2.569   3.180  0.0298 -0.4104  0.7850
   27HTM   C13326282   7.375  -2.643   3.157 -0.0770 -0.6335  0.9273
   27HTM   C13426283   7.357  -2.778   3.156 -0.4095 -0.5921  0.4384
   27HTM    S1426284   7.185  -2.823   3.184 -0.6148 -0.2657 -0.2446
   28TAL   C13526285   7.512  -2.570   3.115  0.2924 -0.1073 -0.9813
   28TAL   C13626286   7.601  -2.481   3.217  0.2393  0.7424  0.0022
   28TAL   C13726287   7.714  -2.417   3.142  0.0566 -0.5660 -1.4596
   28TAL   C13826288   7.812  -2.506   3.077 -0.2395  0.5645  0.3354
   28TAL   C13926289   7.924  -2.418   3.020  0.0034 -0.2406  0.0521
   28TAL   C14026290   8.053  -2.475   3.047 -0.7790 -0.7693 -0.4197
   29HTM   C14126291   7.453  -2.888   3.134  0.5715  0.2565 -0.9273
   29HTM   C14226292   7.564  -2.904   3.212  0.8777  0.6193 -1.2774
   29HTM   C14326293   7.632  -3.029   3.189  0.6299  0.3884 -0.7781
   29HTM   C14426294   7.573  -3.107   3.094  0.1347 -0.1507 -0.0471
   29HTM    S1526295   7.426  -3.029   3.026 -0.0587 -0.4104  0.0680
   30TAL   C14526296   7.766  -3.062   3.264  0.6890 -0.4622  0.4270
   30TAL   C14626297   7.761  -3.055   3.417 -0.4508  0.4849 -0.3361
   30TAL   C14726298   7.726  -3.177   3.497  0.9749 -0.0877  0.4953
   30TAL   C14826299   7.680  -3.153   3.643  0.2159  0.1212  0.2531
   30TAL   C14926300   7.632  -3.260   3.729 -0.1639 -0.1280 -0.7370
   30TAL   C15026301   7.602  -3.186   3.868 -0.1577  0.7450  0.6282
   31HTM   C15126302   7.606  -3.246   3.051 -0.2945 -0.5987  0.5168
   31HTM   C15226303   7.702  -3.328   3.104 -0.3313 -0.6592  0.4910
   31HTM   C15326304   7.715  -3.454   3.036  0.1118 -0.3496 -0.0100
   31HTM   C15426305   7.629  -3.469   2.931  0.4864 -0.0529 -0.3661
   31HTM    S1626306   7.524  -3.323   2.910  0.3074 -0.1424 -0.0944
   32TAL   C15526307   7.802  -3.565   3.097  0.4297 -0.3292 -0.0865
   32TAL   C15626308   7.946  -3.521   3.138  0.5517 -0.1465 -0.1789
   32TAL   C15726309   7.976  -3.447   3.266 -0.7211  1.0281 -1.1419
   32TAL   C15826310   7.936  -3.515   3.396  0.4213  0.8644  0.1788
   32TAL   C15926311   7.992  -3.434   3.512  0.6109  0.5790 -0.2157
   32TAL   C16026312   8.089  -3.503   3.604  0.2009 -0.5647 -0.8316
   33HTM   C16126313   7.606  -3.583   2.846  0.1071 -1.0428  0.0282
   33HTM   C16226314   7.619  -3.715   2.877  0.1615 -1.2136 -0.6745
   33HTM   C16326315   7.583  -3.804   2.770  0.1824 -0.6610 -1.1497
   33HTM   C16426316   7.543  -3.740   2.657  0.1441 -0.0692 -0.8093
   33HTM    S1726317   7.547  -3.561   2.677  0.0781 -0.1641  0.1453
   34TAL   C16526318   7.622  -3.950   2.785  0.5731  0.0845 -0.7803
   34TAL   C16626319   7.749  -4.023   2.764 -0.7502  0.3387  0.0255
   34TAL   C16726320   7.867  -3.969   2.841  0.0514 -0.3945 -0.4755
   34TAL   C16826321   8.003  -4.010   2.789  0.2826  0.6478  0.0251
   34TAL   C16926322   8.041  -4.148   2.741  0.3305 -0.5458  0.3875
   34TAL   C17026323   8.188  -4.138   2.690  0.3737  0.8716 -0.1146
   35HTM   C17126324   7.512  -3.787   2.525  1.1690 -0.2682 -0.5280
   35HTM   C17226325   7.536  -3.712   2.414  0.8175 -0.5479 -0.8004
   35HTM   C17326326   7.527  -3.786   2.290 -0.1786 -0.7249 -0.6365
   35HTM   C17426327   7.495  -3.917   2.307 -0.5866 -0.5803 -0.2390
   35HTM    S1826328   7.475  -3.959   2.482  0.2620 -0.2063 -0.0394
   36TAL   C17526329   7.531  -3.706   2.162 -0.1791 -0.0039  1.0299
   36TAL   C17626330   7.538  -3.777   2.024  0.0500 -1.4795  0.7727
   36TAL   C17726331   7.569  -3.668   1.920 -0.2197  0.3250  0.3463
   36TAL   C17826332   7.570  -3.720   1.777 -0.0528 -0.0420  0.4319
   36TAL   C17926333   7.591  -3.607   1.692 -0.4191 -0.3383 -0.0155
   36TAL   C18026334   7.587  -3.685   1.561  0.0373 -0.3473 -0.0796
   37HTM   C18126335   7.488  -4.044   2.229 -0.0096 -0.9461  1.1350
   37HTM   C18226336   7.580  -4.114   2.157  0.2328 -1.2088  1.6935
   37HTM   C18326337   7.528  -4.234   2.096  0.2201 -0.9805  1.2524
   37HTM   C18426338   7.396  -4.254   2.121 -0.0319 -0.5435  0.3577
   37HTM    S1926339   7.326  -4.124   2.224 -0.2747 -0.3855  0.0000
   38TAL   C18526340   7.629  -4.327   2.022 -0.3346 -0.5244 -0.1242
   38TAL   C18626341   7.592  -4.361   1.873  0.5904  0.4661 -0.9358
   38TAL   C18726342   7.689  -4.439   1.792 -0.9693  0.4444 -0.6110
   38TAL   C18826343   7.808  -4.355   1.739  0.0961 -1.0737 -0.1293
   38TAL   C18926344   7.898  -4.399   1.620 -0.6939 -0.7294  0.3647
   38TAL   C19026345   7.836  -4.420   1.486  1.2258 -0.6005 -0.0904
   39HTM   C19126346   7.318  -4.372   2.101  0.0716 -0.4125  0.1313
   39HTM   C19226347   7.302  -4.481   2.180 -0.1619 -0.5506 -0.1036
   39HTM   C19326348   7.219  -4.584   2.122 -0.3102 -0.2868 -0.3605
   39HTM   C19426349   7.173  -4.552   1.998 -0.1900  0.0521 -0.3215
   39HTM    S2026350   7.230  -4.389   1.945  0.1225  0.0647  0.0456
   40TAL   C19526351   7.207  -4.706   2.214  0.6046  0.6685 -0.0921
   40TAL   C19626352   7.283  -4.736   2.350  1.0325  0.3177  0.1201
   40TAL   C19726353   7.188  -4.751   2.471  0.4519 -1.2600  0.2229
   40TAL   C19826354   7.077  -4.850   2.487  0.2894 -0.3091 -0.3182
   40TAL   C19926355   6.954  -4.830   2.580  0.2774 -1.1647  0.2438
   40TAL   C20026356   6.970  -4.814   2.732 -0.8994  0.3364 -0.2943
   41HTM   C20126357   7.102  -4.656   1.921 -0.0580 -0.5917  0.3578
   41HTM   C20226358   7.039  -4.772   1.953 -0.0846 -0.6268  0.1797
   41HTM   C20326359   6.983  -4.841   1.840 -0.1775 -0.3965  0.0846
   41HTM   C20426360   7.003  -4.777   1.721 -0.2218 -0.1861  0.1900
   41HTM    S2126361   7.095  -4.623   1.744 -0.1488 -0.2627  0.4195
   42TAL   C20526362   6.898  -4.971   1.837 -0.2200 -0.4960 -0.2993
   42TAL   C20626363   6.889  -5.065   1.952 -0.2657 -0.2159 -0.7740
   42TAL   C20726364   7.007  -5.149   2.000  0.1262 -0.6972  0.7776
   42TAL   C20826365   6.994  -5.222   2.138  0.5031 -0.2853  0.5067
   42TAL   C20926366   7.009  -5.126   2.268  0.5757 -0.0953  0.5353
   42TAL   C21026367   7.036  -5.205   2.386  0.7056  0.4271 -0.0020
   43HTM   C21126368   6.978  -4.805   1.582 -0.1534  0.0366  0.0712
   43HTM   C21226369   7.052  -4.868   1.487  0.1832  0.4390  0.0632
   43HTM   C21326370   6.991  -4.866   1.356  0.4150  0.5674 -0.0456
   43HTM   C21426371   6.870  -4.803   1.353  0.2551  0.2629 -0.1204
   43HTM    S2226372   6.824  -4.739   1.515 -0.2040 -0.2133 -0.0589
   44TAL   C21526373   7.058  -4.944   1.241  0.4025  0.1870  0.2236
   44TAL   C21626374   7.025  -5.090   1.231 -0.1153  0.0993 -1.2582
   44TAL   C21726375   7.034  -5.147   1.092  1.2365  0.2290 -0.0394
   44TAL   C21826376   6.986  -5.287   1.071 -0.1335  0.6383 -0.0322
   44TAL   C21926377   6.850  -5.305   1.013  0.2178 -0.0703 -0.1670
   44TAL   C22026378   6.786  -5.437   0.984 -0.2333 -0.3002 -0.9784
   45HTM   C22126379   6.769  -4.766   1.244 -0.8988  0.5023  0.3575
   45HTM   C22226380   6.718  -4.644   1.210 -1.0196  0.2738 -0.3060
   45HTM   C22326381   6.639  -4.646   1.089 -0.4563 -0.3232 -0.6795
   45HTM   C22426382   6.630  -4.770   1.032  0.0937 -0.5500 -0.3009
   45HTM    S2326383   6.721  -4.894   1.126 -0.0579 -0.0230  0.5636
   46TAL   C22526384   6.560  -4.514   1.046 -0.1840  0.3799 -0.9851
   46TAL   C22626385   6.646  -4.392   1.069  0.4374 -1.7479  0.8902
   46TAL   C22726386   6.583  -4.247   1.040  0.1656  0.5851  0.3902
   46TAL   C22826387   6.648  -4.135   1.115  0.3251 -0.4805  0.5831
   46TAL   C22926388   6.792  -4.113   1.082  0.5619 -0.5547 -0.5638
   46TAL   C23026389   6.897  -4.132   1.195 -0.2826  0.3550  0.0535
   47HTM   C23126390   6.547  -4.817   0.923 -0.2522  0.6478 -0.2400
   47HTM   C23226391   6.533  -4.948   0.888 -0.0961  0.5077  0.2158
   47HTM   C23326392   6.445  -4.969   0.776  0.0094  0.0215  0.2224
   47HTM   C23426393   6.392  -4.855   0.725 -0.0661 -0.2092 -0.2283
   47HTM    S2426394   6.449  -4.709   0.816 -0.2784  0.1730 -0.6997
   48TAL   C23526395   6.415  -5.111   0.720 -0.1120  0.0568 -0.0098
   48TAL   C23626396   6.463  -5.231   0.808  0.2599 -1.0576  0.5320
   48TAL   C23726397   6.486  -5.382   0.755  0.6274 -1.7197 -0.3390
   48TAL   C23826398   6.372  -5.484   0.766 -0.0247 -0.4096  0.2265
   48TAL   C23926399   6.402  -5.625   0.708 -0.2302  0.2109 -0.0784
   48TAL   C24026400   6.466  -5.651   0.570  0.2229 -0.2222  0.7820
    1HTM     C126401   7.180   4.655   8.960 -0.6899  0.3914 -0.6449
    1HTM     C226402   7.110   4.575   8.875 -0.7281  0.6067 -0.8197
    1HTM     C326403   7.178   4.548   8.751 -0.4653  0.3405 -0.6211
    1HTM     C426404   7.300   4.608   8.741 -0.2266 -0.0778 -0.2944
    1HTM     S126405   7.339   4.704   8.889 -0.3160 -0.1684 -0.2123
    2TAL     C526406   7.106   4.465   8.648  0.9763  1.0306 -0.0811
    2TAL     C626407   7.017   4.339   8.688  0.0189  0.4030 -1.0258
    2TAL     C726408   6.924   4.272   8.591  1.1282  0.4803 -0.0129
    2TAL     C826409   6.787   4.209   8.645 -0.3899  0.3007  0.1065
    2TAL     C926410   6.702   4.307   8.722  0.5989 -1.1359  0.2705
    2TAL    C1026411   6.559   4.265   8.768  1.0973 -0.8452 -0.0069
    3HTM    C1126412   7.400   4.598   8.640  0.4780  0.4499 -0.0539
    3HTM    C1226413   7.532   4.567   8.659  0.7211  1.3070 -0.2735
    3HTM    C1326414   7.603   4.537   8.537  0.5901  1.3000 -0.3479
    3HTM    C1426415   7.525   4.545   8.426  0.2471  0.4373 -0.1852
    3HTM     S226416   7.355   4.591   8.466  0.0614 -0.4398  0.0767
    4TAL    C1526417   7.751   4.523   8.536  1.1670  0.8697  1.4349
    4TAL    C1626418   7.825   4.437   8.628 -1.0553  1.4005  1.2178
    4TAL    C1726419   7.794   4.286   8.602 -0.2712 -0.0847 -1.9041
    4TAL    C1826420   7.809   4.211   8.480  0.8316 -0.1845  0.4823
    4TAL    C1926421   7.952   4.199   8.426  0.2383  0.9424  1.3055
    4TAL    C2026422   7.977   4.247   8.285  0.7073 -0.5950 -0.1787
    5HTM    C2126423   7.549   4.504   8.294  0.4980  0.4941 -0.0115
    5HTM    C2226424   7.487   4.408   8.220  0.4179  0.3514  0.2358
    5HTM    C2326425   7.543   4.391   8.088  0.3701  0.0002  0.2582
    5HTM    C2426426   7.648   4.474   8.062  0.4139 -0.1248  0.0274
    5HTM     S326427   7.685   4.581   8.203  0.5196  0.1935 -0.2374
    6TAL    C2526428   7.492   4.289   7.994  0.1370  0.6456  0.3173
    6TAL    C2626429   7.337   4.308   7.968  0.4024 -0.5416  0.6988
    6TAL    C2726430   7.296   4.442   7.890  0.5218 -0.4312 -0.4847
    6TAL    C2826431   7.172   4.456   7.806  0.5872  0.3496 -0.4147
    6TAL    C2926432   7.050   4.443   7.894 -0.5077  0.2618  0.1612
    6TAL    C3026433   6.929   4.415   7.810  0.4891 -0.5063 -0.0682
    7HTM    C3126434   7.746   4.478   7.956 -0.3871  0.1006  0.2388
    7HTM    C3226435   7.881   4.490   7.964 -0.3583 -0.2524  0.3191
    7HTM    C3326436   7.949   4.479   7.838 -0.2855 -0.6971  0.3928
    7HTM    C3426437   7.864   4.458   7.732 -0.2587 -0.6836  0.3688
    7HTM     S426438   7.692   4.451   7.785 -0.3240 -0.1033  0.2502
    8TAL    C3526439   8.104   4.474   7.851  0.2950  0.3613  0.9457
    8TAL    C3626440   8.150   4.332   7.861 -0.8360  0.3253 -0.1781
    8TAL    C3726441   8.299   4.300   7.838  1.6205  0.4251 -0.2094
    8TAL    C3826442   8.315   4.146   7.847 -0.1197 -0.3021 -0.5518
    8TAL    C3926443   8.464   4.091   7.828  1.5155  0.3626 -1.4937
    8TAL    C4026444   8.476   3.940   7.861  0.0561  0.0640  0.1382
    9HTM    C4126445   7.895   4.439   7.589 -0.1727  0.1875 -0.3765
    9HTM    C4226446   7.808   4.411   7.487  0.0670 -0.2145 -0.4736
    9HTM    C4326447   7.871   4.409   7.358  0.3306 -0.5085 -0.3463
    9HTM    C4426448   8.004   4.436   7.360  0.2921 -0.3311 -0.1521
    9HTM     S526449   8.062   4.466   7.528 -0.0835  0.2259 -0.1147
   10TAL    C4526450   7.798   4.396   7.225  0.5324 -0.4414 -0.0886
   10TAL    C4626451   7.662   4.462   7.212 -0.4055  0.5265  0.8364
   10TAL    C4726452   7.603   4.431   7.078 -0.4249 -0.5070 -1.3622
   10TAL    C4826453   7.479   4.519   7.052  0.6349  0.3025  0.1908
   10TAL    C4926454   7.406   4.520   6.915 -1.2072 -0.2773  0.4326
   10TAL    C5026455   7.488   4.539   6.779 -0.0248 -0.0183  0.2475
   11HTM    C5126456   8.119   4.434   7.268 -0.1531  0.4931 -0.0178
   11HTM    C5226457   8.127   4.388   7.140  0.3366 -0.1755  0.2403
   11HTM    C5326458   8.257   4.400   7.081  0.6499 -0.8022  0.7803
   11HTM    C5426459   8.350   4.456   7.164  0.3998 -0.6114  0.9338
   11HTM     S626460   8.278   4.498   7.324 -0.2567  0.3823  0.4041
   12TAL    C5526461   8.290   4.367   6.928 -0.0344 -0.0038  0.6586
   12TAL    C5626462   8.182   4.437   6.829 -1.2801 -0.2017  0.8397
   12TAL    C5726463   8.239   4.459   6.682  0.7562  0.5841  0.6957
   12TAL    C5826464   8.383   4.505   6.664  0.3077  0.3040  0.6468
   12TAL    C5926465   8.446   4.466   6.526 -0.6030 -0.7112 -0.3147
   12TAL    C6026466   8.592   4.500   6.522 -1.8427  0.1040 -0.1861
   13HTM    C6126467   8.496   4.473   7.152  0.4750  0.5676 -0.8276
   13HTM    C6226468   8.571   4.508   7.044  1.0881  0.0205 -0.5919
   13HTM    C6326469   8.711   4.526   7.075  1.0965 -0.7768 -0.1009
   13HTM    C6426470   8.742   4.505   7.206  0.4898 -0.8380  0.0379
   13HTM     S726471   8.596   4.459   7.302 -0.1442  0.1142 -0.4446
   14TAL    C6526472   8.803   4.569   6.963 -0.3308 -0.1355  0.8283
   14TAL    C6626473   8.809   4.507   6.817  0.0024 -0.1812 -0.5974
   14TAL    C6726474   8.814   4.353   6.825 -1.2340  0.4104  0.2644
   14TAL    C6826475   8.885   4.306   6.698 -0.3275 -0.0946 -0.1316
   14TAL    C6926476   9.031   4.279   6.715  0.7711  0.2731  0.0885
   14TAL    C7026477   9.120   4.394   6.734 -0.4368 -0.4741 -1.2645
   15HTM    C7126478   8.859   4.525   7.289  0.1961 -0.1583 -0.3252
   15HTM    C7226479   8.888   4.450   7.399  0.3951 -0.8804 -0.8575
   15HTM    C7326480   9.019   4.474   7.453  0.3219 -0.8978 -0.6719
   15HTM    C7426481   9.090   4.567   7.385  0.0675 -0.1889  0.0021
   15HTM     S826482   8.997   4.633   7.245 -0.1013  0.5615  0.4584
   16TAL    C7526483   9.083   4.395   7.570  0.5632  0.9687 -0.6688
   16TAL    C7626484   9.038   4.433   7.714  0.1496  0.5121  0.3642
   16TAL    C7726485   8.894   4.383   7.752 -0.6304 -0.0684 -0.0895
   16TAL    C7826486   8.913   4.308   7.878  0.1423 -0.2487  0.5652
   16TAL    C7926487   8.792   4.223   7.924  0.4381 -0.2997  0.3213
   16TAL    C8026488   8.822   4.153   8.065  0.6608  0.6703 -0.4475
   17HTM    C8126489   9.220   4.622   7.401 -0.0029  0.1977 -0.1285
   17HTM    C8226490   9.321   4.624   7.310  0.1481  0.0861  0.0346
   17HTM    C8326491   9.449   4.659   7.365  0.1051 -0.0912  0.2484
   17HTM    C8426492   9.446   4.684   7.499 -0.0785 -0.1150  0.2486
   17HTM     S926493   9.279   4.665   7.566 -0.2123  0.0865 -0.0236
   18TAL    C8526494   9.576   4.688   7.288  0.4762  0.0215  0.3460
   18TAL    C8626495   9.613   4.593   7.178  0.6270  1.2155 -1.5496
   18TAL    C8726496   9.685   4.474   7.254  0.9601  0.1774 -1.2524
   18TAL    C8826497   9.838   4.461   7.229 -1.4795  0.8458 -0.4132
   18TAL    C8926498   9.874   4.336   7.316 -0.2482 -0.5972  0.0038
   18TAL    C9026499  10.021   4.312   7.364 -0.2995  0.0489 -0.2747
   19HTM    C9126500   9.556   4.723   7.599  0.2520  0.1438 -0.1773
   19HTM    C9226501   9.557   4.825   7.689  0.3252  0.2737 -0.3248
   19HTM    C9326502   9.685   4.847   7.751  0.2892  0.1312 -0.1987
   19HTM    C9426503   9.782   4.761   7.708  0.1887 -0.1073  0.0449
   19HTM    S1026504   9.718   4.645   7.585  0.1310 -0.1712  0.1346
   20TAL    C9526505   9.694   4.974   7.835 -0.8612 -0.1331  0.4907
   20TAL    C9626506   9.648   4.977   7.980 -0.4994  0.5315 -0.5022
   20TAL    C9726507   9.704   5.089   8.079 -0.5094 -0.3364 -0.0623
   20TAL    C9826508   9.859   5.092   8.094  0.2045  0.2314  0.4779
   20TAL    C9926509   9.927   5.227   8.080  0.5721  0.0336  0.6552
   20TAL   C10026510  10.070   5.203   8.075  0.3885  0.5337 -0.5377
   21HTM   C10126511   9.922   4.755   7.733 -0.1850 -0.4808  0.0252
   21HTM   C10226512   9.990   4.776   7.850 -0.0494 -0.3794 -0.0702
   21HTM   C10326513  10.133   4.771   7.836 -0.0571  0.0495 -0.3135
   21HTM   C10426514  10.175   4.747   7.709 -0.1985  0.2753 -0.4038
   21HTM    S1126515  10.036   4.728   7.595 -0.3340 -0.0385 -0.1869
   22TAL   C10526516  10.232   4.805   7.943 -0.4354 -0.0674 -0.2065
   22TAL   C10626517  10.182   4.866   8.076  1.0406  0.4677  0.5451
   22TAL   C10726518  10.279   4.905   8.189 -0.5616  0.4954 -0.2245
   22TAL   C10826519  10.389   5.002   8.154 -0.2329  0.1488 -0.1824
   22TAL   C10926520  10.465   5.067   8.271  0.6282 -0.1267  0.0947
   22TAL   C11026521  10.380   5.137   8.374 -0.3693 -0.8057  0.4649
   23HTM   C11126522  10.313   4.741   7.657 -0.1418  0.0516 -0.0946
   23HTM   C11226523  10.403   4.835   7.617 -0.1501  0.0644 -0.0842
   23HTM   C11326524  10.518   4.780   7.550 -0.2368  0.0966 -0.2620
   23HTM   C11426525  10.516   4.644   7.540 -0.2945  0.1082 -0.4080
   23HTM    S1226526  10.367   4.575   7.613 -0.2436  0.0795 -0.3317
   24TAL   C11526527  10.638   4.870   7.505 -0.4326  0.2882 -0.3140
   24TAL   C11626528  10.745   4.886   7.616  0.0693  1.5681  0.9147
   24TAL   C11726529  10.711   4.949   7.759  0.5041 -0.0959  1.0435
   24TAL   C11826530  10.776   4.869   7.879 -0.0745 -0.2819 -0.5966
   24TAL   C11926531  10.736   4.930   8.023  0.1594 -0.1750  1.2144
   24TAL   C12026532  10.800   4.850   8.141 -0.2250  0.1859  0.1605
   25HTM   C12126533  10.614   4.542   7.500 -0.4847 -0.2873  0.0464
   25HTM   C12226534  10.636   4.420   7.555 -0.0932 -0.0007  0.5428
   25HTM   C12326535  10.756   4.356   7.508  0.1394  0.2116  0.8425
   25HTM   C12426536  10.826   4.430   7.417 -0.0746  0.0869  0.5747
   25HTM    S1326537  10.744   4.587   7.383 -0.5906 -0.3113 -0.0822
   26TAL   C12526538  10.786   4.207   7.541  1.0928  0.1348  0.1039
   26TAL   C12626539  10.720   4.151   7.666  0.1239  0.0227  0.4634
   26TAL   C12726540  10.784   4.044   7.755  0.7799  0.0470  0.3011
   26TAL   C12826541  10.911   4.096   7.824  0.3500  0.2566  0.8665
   26TAL   C12926542  10.902   4.213   7.923 -0.1764  0.3118  0.7602
   26TAL   C13026543  11.055   4.243   7.934 -0.9862  0.8816 -0.3777
   27HTM   C13126544  10.964   4.407   7.365  0.0262  0.2622 -0.2076
   27HTM   C13226545  11.030   4.500   7.292  0.5278  0.0696 -0.0055
   27HTM   C13326546  11.160   4.458   7.248  0.3257 -0.5115 -0.0536
   27HTM   C13426547  11.193   4.331   7.287 -0.3300 -0.7623 -0.2926
   27HTM    S1426548  11.061   4.256   7.384 -0.7463 -0.2801 -0.4768
   28TAL   C13526549  11.260   4.543   7.169 -0.3655  0.8144 -0.7316
   28TAL   C13626550  11.203   4.583   7.039 -1.8611  0.3674  0.3393
   28TAL   C13726551  11.270   4.496   6.924  0.8425 -0.3274 -1.2740
   28TAL   C13826552  11.218   4.532   6.790  0.0163 -0.0361 -0.0011
   28TAL   C13926553  11.331   4.537   6.682 -0.3188 -0.6743  0.1633
   28TAL   C14026554  11.298   4.558   6.532 -0.0142 -0.5015  0.2518
   29HTM   C14126555  11.304   4.252   7.251  0.6355  0.1714 -0.5686
   29HTM   C14226556  11.379   4.226   7.140  0.9536 -0.1361 -0.2859
   29HTM   C14326557  11.475   4.120   7.158  0.6091 -0.3787  0.1510
   29HTM   C14426558  11.473   4.066   7.283  0.0283 -0.2563  0.2014
   29HTM    S1526559  11.349   4.144   7.388 -0.1297  0.1783 -0.3028
   30TAL   C14526560  11.566   4.096   7.044 -0.8819 -0.2021  1.1015
   30TAL   C14626561  11.531   3.996   6.934  0.2653 -0.2540  0.0653
   30TAL   C14726562  11.628   3.955   6.834 -0.1043 -0.1003  1.1534
   30TAL   C14826563  11.578   3.843   6.737  0.4496  0.4594  0.1415
   30TAL   C14926564  11.657   3.844   6.615 -0.1866  0.2412  0.3864
   30TAL   C15026565  11.728   3.712   6.602 -0.4536  0.3425  0.5386
   31HTM   C15126566  11.546   3.966   7.341  0.0145  0.0506  0.1719
   31HTM   C15226567  11.680   3.945   7.346  0.0563  0.4085  0.6181
   31HTM   C15326568  11.719   3.834   7.428  0.0750  0.4578  0.6762
   31HTM   C15426569  11.614   3.769   7.486  0.0475  0.1375  0.2746
   31HTM    S1626570  11.457   3.844   7.440 -0.0047 -0.2543 -0.2120
   32TAL   C15526571  11.864   3.796   7.426  0.5199 -0.9618  0.6459
   32TAL   C15626572  11.938   3.811   7.291 -1.3440 -0.4042  0.2965
   32TAL   C15726573  12.098   3.813   7.298  0.4645 -0.2724  0.6433
   32TAL   C15826574  12.160   3.798   7.151  0.1833  0.2986 -0.0514
   32TAL   C15926575  12.158   3.906   7.038 -0.1448  0.3677  0.9890
   32TAL   C16026576  12.084   3.873   6.920  0.4886 -0.6733  0.3681
   33HTM   C16126577  11.626   3.670   7.580 -0.2045  0.3392  0.2303
   33HTM   C16226578  11.562   3.550   7.573 -0.2148  0.3544  0.0243
   33HTM   C16326579  11.601   3.458   7.677 -0.0370  0.0796 -0.2841
   33HTM   C16426580  11.695   3.507   7.762  0.1090 -0.1451 -0.3131
   33HTM    S1726581  11.742   3.676   7.717  0.0326 -0.0262  0.0497
   34TAL   C16526582  11.544   3.319   7.692 -0.3045  0.0619 -0.8152
   34TAL   C16626583  11.408   3.297   7.641  0.0833 -0.4089  0.4139
   34TAL   C16726584  11.355   3.162   7.672 -0.0148  1.4507 -0.9102
   34TAL   C16826585  11.423   3.057   7.584 -0.1217 -0.0774  0.3327
   34TAL   C16926586  11.340   2.934   7.564  0.1066  0.3476 -0.4725
   34TAL   C17026587  11.395   2.852   7.454  0.2702 -0.3164 -0.3920
   35HTM   C17126588  11.770   3.466   7.883  0.7568  0.4299 -0.0344
   35HTM   C17226589  11.825   3.549   7.975  0.8821  0.3450 -0.0323
   35HTM   C17326590  11.882   3.481   8.088  0.4904  0.2726  0.1235
   35HTM   C17426591  11.870   3.345   8.082  0.0664  0.3023  0.2398
   35HTM    S1826592  11.785   3.293   7.932  0.1297  0.4249  0.1614
   36TAL   C17526593  11.973   3.543   8.188 -0.7643 -0.5709  0.4590
   36TAL   C17626594  11.913   3.599   8.316  0.5674 -0.2321 -0.4315
   36TAL   C17726595  11.809   3.711   8.304 -0.5240  0.3760 -0.6392
   36TAL   C17826596  11.777   3.769   8.448  0.6104  0.6095 -0.4004
   36TAL   C17926597  11.693   3.899   8.461  0.6289  1.0308  0.3253
   36TAL   C18026598  11.670   3.945   8.614  0.1486  0.4842 -0.4300
   37HTM   C18126599  11.896   3.228   8.165 -0.7002 -0.4764 -0.5206
   37HTM   C18226600  11.985   3.125   8.152 -1.0224 -0.7371 -0.6540
   37HTM   C18326601  11.984   3.033   8.262 -0.5223 -0.2621 -0.2475
   37HTM   C18426602  11.896   3.066   8.361  0.1813  0.3607  0.1960
   37HTM    S1926603  11.806   3.217   8.321  0.2673  0.3960  0.1338
   38TAL   C18526604  12.072   2.903   8.245 -0.0686  0.1457  0.0906
   38TAL   C18626605  12.013   2.764   8.259  0.2743  0.0259 -0.6889
   38TAL   C18726606  11.910   2.730   8.145 -0.5587 -0.6150  0.3752
   38TAL   C18826607  11.792   2.640   8.181 -0.0436 -1.8274 -0.1162
   38TAL   C18926608  11.693   2.700   8.286 -0.1365 -0.1642  1.1394
   38TAL   C19026609  11.553   2.635   8.297  0.0780  0.3114  0.6925
   39HTM   C19126610  11.851   2.992   8.475 -0.2436  0.2056 -0.1082
   39HTM   C19226611  11.721   2.980   8.516 -0.1145  0.5379  0.4158
   39HTM   C19326612  11.704   2.892   8.629  0.1017  0.4757  0.4010
   39HTM   C19426613  11.821   2.838   8.674  0.1374  0.0959 -0.1342
   39HTM    S2026614  11.962   2.893   8.577 -0.1011 -0.2150 -0.6651
   40TAL   C19526615  11.574   2.864   8.684 -0.1144 -0.0149  0.1929
   40TAL   C19626616  11.537   2.967   8.790 -0.2723  0.9329 -1.0710
   40TAL   C19726617  11.546   2.879   8.919 -0.9635 -0.4789 -0.3884
   40TAL   C19826618  11.497   2.949   9.046 -0.1787 -0.6703 -0.2334
   40TAL   C19926619  11.577   3.068   9.100  0.2545  0.3298 -0.8898
   40TAL   C20026620  11.732   3.082   9.088  0.4731  1.0251 -0.3352
   41HTM   C20126621  11.851   2.748   8.787 -0.0275  0.0810 -0.0047
   41HTM   C20226622  11.892   2.804   8.905 -0.1320 -0.0515  0.0954
   41HTM   C20326623  11.906   2.710   9.012  0.3348 -0.2664 -0.1521
   41HTM   C20426624  11.877   2.581   8.977  0.7952 -0.2978 -0.4413
   41HTM    S2126625  11.827   2.570   8.804  0.6741 -0.0565 -0.4230
   42TAL   C20526626  11.979   2.733   9.136 -0.4032 -0.5567 -0.7472
   42TAL   C20626627  12.114   2.816   9.126 -0.7591  0.8261  0.4487
   42TAL   C20726628  12.216   2.765   9.023  0.0184 -0.2935  0.1176
   42TAL   C20826629  12.352   2.839   9.042 -0.0259  1.3071  0.3747
   42TAL   C20926630  12.376   2.985   9.024  0.3437 -0.1933  0.6835
   42TAL   C21026631  12.523   3.014   9.010 -0.0023 -0.3169 -0.6449
   43HTM   C21126632  11.881   2.449   9.048 -0.1353  0.1376 -0.5711
   43HTM   C21226633  11.937   2.328   9.019  0.0601  0.1390 -0.2108
   43HTM   C21326634  11.916   2.229   9.121  0.0351  0.3461 -0.0119
   43HTM   C21426635  11.844   2.274   9.227 -0.1793  0.5027 -0.2200
   43HTM    S2226636  11.796   2.447   9.207 -0.3678  0.3998 -0.6876
   44TAL   C21526637  11.990   2.098   9.117 -0.0506  0.0529 -0.8113
   44TAL   C21626638  12.044   2.044   8.986 -0.2825 -0.4862  0.9430
   44TAL   C21726639  12.149   1.931   8.995 -0.8711 -0.4696  0.1474
   44TAL   C21826640  12.104   1.802   9.069  0.8114  0.3329  0.4885
   44TAL   C21926641  12.017   1.724   8.965  0.2996  0.2093  0.2648
   44TAL   C22026642  11.918   1.617   9.009 -1.2160  0.5813 -0.4433
   45HTM   C22126643  11.809   2.210   9.352 -0.1631 -0.7292 -0.7433
   45HTM   C22226644  11.691   2.250   9.408 -1.0192 -1.4998 -1.8799
   45HTM   C22326645  11.647   2.166   9.517 -1.3039 -1.5496 -2.0330
   45HTM   C22426646  11.730   2.062   9.543 -0.6649 -0.8170 -1.0126
   45HTM    S2326647  11.873   2.061   9.432  0.3540 -0.0010  0.2303
   46TAL   C22526648  11.507   2.193   9.577 -0.3748  0.6167 -0.3751
   46TAL   C22626649  11.480   2.294   9.684 -0.2233  0.0760  0.2335
   46TAL   C22726650  11.484   2.446   9.639  0.1549  0.9362  0.3500
   46TAL   C22826651  11.473   2.480   9.490 -0.2511  0.7159 -0.3893
   46TAL   C22926652  11.462   2.622   9.460  0.3966  0.2281  0.1459
   46TAL   C23026653  11.436   2.653   9.319  0.2352 -0.8593  0.7857
   47HTM   C23126654  11.729   1.962   9.647  0.2282  0.0915 -0.0153
   47HTM   C23226655  11.798   1.845   9.651  0.4183  0.2010 -0.0875
   47HTM   C23326656  11.790   1.777   9.778  0.3834  0.0226 -0.1843
   47HTM   C23426657  11.714   1.843   9.870  0.1667 -0.2229 -0.1860
   47HTM    S2426658  11.646   1.996   9.803 -0.0115 -0.2480 -0.0648
   48TAL   C23526659  11.862   1.652   9.826 -0.4193 -0.3051 -0.2852
   48TAL   C23626660  11.814   1.517   9.784 -0.5791 -0.3751 -0.5434
   48TAL   C23726661  11.664   1.504   9.787  0.3998 -0.6209 -0.0259
   48TAL   C23826662  11.600   1.366   9.835 -0.7968 -0.8420  0.1019
   48TAL   C23926663  11.446   1.365   9.834  0.1808 -0.4018  0.4858
   48TAL   C24026664  11.409   1.233   9.882  0.0875  0.5322 -0.8977
    1HTM     C126665   3.630   1.245   4.181  0.0069  0.1964 -0.2331
    1HTM     C226666   3.606   1.172   4.294 -0.3712  0.3132 -0.2356
    1HTM     C326667   3.483   1.097   4.289 -0.5686  0.6425 -0.3961
    1HTM     C426668   3.413   1.113   4.173 -0.3410  0.7769 -0.5161
    1HTM     S126669   3.498   1.224   4.060  0.1441  0.4957 -0.4350
    2TAL     C526670   3.446   1.011   4.409 -0.8671  1.0508 -0.4664
    2TAL     C626671   3.513   0.871   4.440 -0.6517  0.4869  0.9233
    2TAL     C726672   3.679   0.861   4.460  1.0383 -0.5717  0.4994
    2TAL     C826673   3.716   0.874   4.608 -0.5252  0.4946 -0.3482
    2TAL     C926674   3.857   0.908   4.654  0.4675  0.6305 -0.0124
    2TAL    C1026675   3.864   0.865   4.807  0.3866 -0.3525  0.3381
    3HTM    C1126676   3.282   1.055   4.135 -0.0869 -0.1008 -0.6861
    3HTM    C1226677   3.176   1.126   4.087  0.0630 -0.2074 -1.1911
    3HTM    C1326678   3.056   1.047   4.072 -0.0759 -0.0896 -0.7274
    3HTM    C1426679   3.072   0.916   4.109 -0.3316  0.1067  0.1312
    3HTM     S226680   3.240   0.883   4.165 -0.4177  0.1585  0.4230
    4TAL    C1526681   2.920   1.095   4.022  0.0888  0.1060 -0.0768
    4TAL    C1626682   2.883   1.242   4.044  0.1320  0.0622 -0.5622
    4TAL    C1726683   2.857   1.297   4.186  0.3594 -0.7103 -0.8767
    4TAL    C1826684   2.747   1.216   4.266  0.1218  0.1948 -0.3037
    4TAL    C1926685   2.725   1.285   4.400  0.0923  1.2496 -0.7722
    4TAL    C2026686   2.637   1.214   4.506 -0.7992 -0.0559  0.3097
    5HTM    C2126687   2.993   0.797   4.117 -0.3748 -0.2625  0.3765
    5HTM    C2226688   2.995   0.694   4.206 -0.8604 -0.0809  0.6049
    5HTM    C2326689   2.881   0.606   4.195 -1.0769  0.2043  0.5337
    5HTM    C2426690   2.793   0.642   4.098 -0.7565  0.2400  0.2510
    5HTM     S326691   2.846   0.791   4.012 -0.1515 -0.0862  0.0513
    6TAL    C2526692   2.881   0.477   4.279  0.9079  0.1142  0.7801
    6TAL    C2626693   2.977   0.451   4.403 -0.2675 -1.3517 -0.1067
    6TAL    C2726694   3.101   0.369   4.378 -0.9507 -0.3938 -0.6036
    6TAL    C2826695   3.202   0.378   4.496 -0.5999 -0.2541 -0.0540
    6TAL    C2926696   3.280   0.506   4.538  0.2642 -0.3459  0.7449
    6TAL    C3026697   3.374   0.580   4.438  0.5038  0.2980  0.3173
    7HTM    C3126698   2.676   0.572   4.057  0.5173 -0.4362 -0.4710
    7HTM    C3226699   2.578   0.521   4.137  0.7970 -0.5623 -0.2011
    7HTM    C3326700   2.478   0.447   4.065  0.6304 -0.5902  0.0571
    7HTM    C3426701   2.499   0.442   3.930  0.2238 -0.4853 -0.0158
    7HTM     S426702   2.650   0.530   3.884  0.0182 -0.3421 -0.4192
    8TAL    C3526703   2.338   0.423   4.131  0.5595  0.1565  0.3318
    8TAL    C3626704   2.353   0.294   4.218  0.1164 -0.6875  0.3307
    8TAL    C3726705   2.249   0.264   4.321  0.1246  0.5003  0.0665
    8TAL    C3826706   2.276   0.147   4.428  0.4780 -0.0232 -0.2721
    8TAL    C3926707   2.177   0.140   4.548  0.1964 -0.4665  0.6283
    8TAL    C4026708   2.197   0.021   4.638  0.1557  0.5665 -0.7477
    9HTM    C4126709   2.429   0.385   3.816 -0.4805  0.3929 -0.0434
    9HTM    C4226710   2.333   0.442   3.737 -0.5724  0.0444 -0.1869
    9HTM    C4326711   2.279   0.352   3.639 -0.3717 -0.2666 -0.0187
    9HTM    C4426712   2.333   0.227   3.642 -0.1267 -0.1551  0.2530
    9HTM     S526713   2.458   0.212   3.772 -0.1306  0.3552  0.3180
   10TAL    C4526714   2.195   0.408   3.530 -0.1692 -0.0670  0.2535
   10TAL    C4626715   2.181   0.563   3.521  0.2295  0.7350  0.9436
   10TAL    C4726716   2.083   0.601   3.410 -1.2698 -0.5716 -0.2052
   10TAL    C4826717   2.040   0.741   3.437  0.4127 -0.4512  0.3570
   10TAL    C4926718   1.959   0.787   3.315 -0.0121 -1.0593  0.6763
   10TAL    C5026719   1.886   0.921   3.354 -0.4297 -0.5777  0.3397
   11HTM    C5126720   2.300   0.106   3.567 -0.2776  0.2115  0.2526
   11HTM    C5226721   2.356  -0.017   3.579 -0.2378  0.2615  0.5888
   11HTM    C5326722   2.297  -0.117   3.494  0.0420  0.0975  0.5834
   11HTM    C5426723   2.195  -0.070   3.417  0.2156 -0.0773  0.2433
   11HTM     S626724   2.166   0.106   3.446  0.0378 -0.0483 -0.0995
   12TAL    C5526725   2.318  -0.258   3.496  0.0510  1.4714  0.2224
   12TAL    C5626726   2.464  -0.303   3.476 -0.1471  0.0755 -0.4542
   12TAL    C5726727   2.480  -0.448   3.406  0.1704 -0.6677  0.6278
   12TAL    C5826728   2.496  -0.440   3.252 -1.1540 -0.2246  0.0603
   12TAL    C5926729   2.503  -0.555   3.154 -0.0047 -0.2928  1.0464
   12TAL    C6026730   2.595  -0.670   3.190  0.5346 -0.4746 -0.0149
   13HTM    C6126731   2.112  -0.140   3.309 -0.6447  0.1716 -0.2141
   13HTM    C6226732   1.977  -0.156   3.304 -0.6024 -0.0758 -0.6715
   13HTM    C6326733   1.929  -0.212   3.180 -0.0526 -0.4570 -0.7148
   13HTM    C6426734   2.029  -0.239   3.091  0.3245 -0.5000 -0.2905
   13HTM     S726735   2.191  -0.195   3.157  0.0119 -0.0590  0.2007
   14TAL    C6526736   1.782  -0.227   3.152 -0.6495 -0.0300 -0.4515
   14TAL    C6626737   1.702  -0.333   3.234 -0.6845  0.5342  0.6765
   14TAL    C6726738   1.734  -0.475   3.191  0.7491  0.0028 -0.4594
   14TAL    C6826739   1.683  -0.532   3.055 -0.6595  0.4360  0.3698
   14TAL    C6926740   1.673  -0.683   3.064  0.8695 -0.8379  0.4125
   14TAL    C7026741   1.804  -0.769   3.056  0.4134 -0.7427  0.2865
   15HTM    C7126742   2.012  -0.293   2.956  0.2421  0.0443  0.2720
   15HTM    C7226743   1.913  -0.266   2.866  0.2951  0.5188  0.3515
   15HTM    C7326744   1.914  -0.354   2.752  0.0077  0.7505  0.1683
   15HTM    C7426745   2.012  -0.448   2.755 -0.2645  0.4529 -0.0509
   15HTM     S826746   2.113  -0.433   2.904 -0.1783 -0.1480 -0.0428
   16TAL    C7526747   1.784  -0.360   2.664  0.5322 -0.4402 -0.4688
   16TAL    C7626748   1.742  -0.486   2.586 -0.2572 -0.6020 -0.2517
   16TAL    C7726749   1.602  -0.527   2.586  0.2479 -0.3131 -0.4389
   16TAL    C7826750   1.601  -0.677   2.556 -0.4872 -0.7406 -0.2588
   16TAL    C7926751   1.659  -0.777   2.651  0.7158  0.2316 -0.4336
   16TAL    C8026752   1.555  -0.825   2.764  0.1070  0.8414  0.2679
   17HTM    C8126753   2.059  -0.552   2.661 -0.3304  0.3283 -0.5413
   17HTM    C8226754   2.110  -0.676   2.688 -0.1189  0.4928 -0.1788
   17HTM    C8326755   2.160  -0.745   2.572  0.1375  0.2985  0.0453
   17HTM    C8426756   2.148  -0.674   2.456  0.1216 -0.0142 -0.1464
   17HTM     S926757   2.070  -0.513   2.485 -0.2213 -0.0883 -0.6286
   18TAL    C8526758   2.202  -0.887   2.590 -0.2092 -0.5740 -1.1422
   18TAL    C8626759   2.247  -0.935   2.731  0.7240  0.6733  0.1974
   18TAL    C8726760   2.314  -1.072   2.740  0.3086 -0.5612  1.5626
   18TAL    C8826761   2.442  -1.072   2.651 -0.2163  0.5706  0.1918
   18TAL    C8926762   2.562  -1.168   2.667 -0.6005  0.6291 -0.0823
   18TAL    C9026763   2.675  -1.108   2.737 -0.2030 -0.3728 -0.3281
   19HTM    C9126764   2.183  -0.706   2.325 -0.1579 -0.2847  0.3500
   19HTM    C9226765   2.242  -0.613   2.244  0.1151 -0.0978  0.7581
   19HTM    C9326766   2.304  -0.669   2.127  0.3276  0.1924  0.7288
   19HTM    C9426767   2.292  -0.805   2.119  0.2168  0.2265  0.2984
   19HTM    S1026768   2.201  -0.872   2.259 -0.1676 -0.1072 -0.1064
   20TAL    C9526769   2.358  -0.581   2.013 -0.0445  0.8106 -0.8087
   20TAL    C9626770   2.293  -0.445   1.988 -0.1896 -0.9299 -0.5790
   20TAL    C9726771   2.295  -0.379   1.850  0.1158  0.5166  0.3827
   20TAL    C9826772   2.246  -0.241   1.857  0.3055 -0.2755 -0.4583
   20TAL    C9926773   2.365  -0.140   1.863  0.5251  0.2203  0.5232
   20TAL   C10026774   2.324  -0.033   1.962 -1.5550  0.0270  0.9451
   21HTM   C10126775   2.363  -0.903   2.042 -0.1550 -0.3350  0.0291
   21HTM   C10226776   2.385  -0.891   1.908 -0.4237 -0.5193 -0.0324
   21HTM   C10326777   2.461  -0.999   1.851 -0.3384 -0.4823  0.0094
   21HTM   C10426778   2.497  -1.094   1.942 -0.0048 -0.2690  0.1029
   21HTM    S1126779   2.438  -1.054   2.108  0.2295 -0.0973  0.1457
   22TAL   C10526780   2.511  -0.999   1.704 -0.1967 -1.0816 -0.9768
   22TAL   C10626781   2.489  -1.097   1.599 -0.5231  1.3896  0.1434
   22TAL   C10726782   2.359  -1.174   1.580  0.9421 -0.4485  0.0142
   22TAL   C10826783   2.343  -1.261   1.463 -0.5037  0.5202  0.6150
   22TAL   C10926784   2.390  -1.233   1.309 -0.1499  0.8999 -0.0846
   22TAL   C11026785   2.327  -1.113   1.261  0.5072 -0.3225  0.6700
   23HTM   C11126786   2.576  -1.204   1.929 -0.9230  0.0857 -0.3656
   23HTM   C11226787   2.696  -1.208   1.865 -0.9002  0.3331 -0.3414
   23HTM   C11326788   2.761  -1.337   1.871 -0.4549  0.5693  0.0013
   23HTM   C11426789   2.690  -1.431   1.941 -0.1381  0.5022  0.2383
   23HTM    S1226790   2.535  -1.363   2.004 -0.3795  0.1321  0.0457
   24TAL   C11526791   2.876  -1.368   1.784 -0.1283 -0.9905 -0.4677
   24TAL   C11626792   2.971  -1.248   1.766 -0.1806 -1.0608 -0.4798
   24TAL   C11726793   3.106  -1.294   1.705  0.2523  0.3248 -0.2856
   24TAL   C11826794   3.184  -1.177   1.638  0.6207  0.1086  0.0850
   24TAL   C11926795   3.295  -1.219   1.548 -0.0051 -0.7223  0.5172
   24TAL   C12026796   3.440  -1.210   1.598 -0.3044  0.2293 -0.1654
   25HTM   C12126797   2.724  -1.567   1.973 -0.2798  0.5452  0.2270
   25HTM   C12226798   2.671  -1.635   2.078 -0.4017  0.7408  0.2922
   25HTM   C12326799   2.738  -1.759   2.107 -0.6266  0.6447  0.4070
   25HTM   C12426800   2.843  -1.786   2.024 -0.6762  0.3758  0.4294
   25HTM    S1326801   2.864  -1.655   1.901 -0.4409  0.2218  0.3063
   26TAL   C12526802   2.700  -1.855   2.220  0.3606  0.5031 -0.0945
   26TAL   C12626803   2.553  -1.855   2.269  0.4069  0.2351  0.6037
   26TAL   C12726804   2.446  -1.903   2.164  0.1174 -1.3679 -0.2679
   26TAL   C12826805   2.348  -1.985   2.253 -0.9571 -0.3925  0.6267
   26TAL   C12926806   2.218  -2.024   2.181 -0.2985  0.7699  0.7069
   26TAL   C13026807   2.123  -2.093   2.267  0.8510  0.8659 -0.5663
   27HTM   C13126808   2.949  -1.883   2.023 -0.5342 -0.0867  0.0709
   27HTM   C13226809   3.055  -1.913   2.102 -1.0989 -0.8522  0.5620
   27HTM   C13326810   3.155  -1.995   2.038 -1.0053 -0.8900  0.7521
   27HTM   C13426811   3.125  -2.026   1.908 -0.3692 -0.1533  0.4060
   27HTM    S1426812   2.967  -1.955   1.858  0.1650  0.6516 -0.1915
   28TAL   C13526813   3.284  -2.033   2.101  0.2041  0.4296 -1.2249
   28TAL   C13626814   3.400  -1.928   2.089 -0.1022 -0.1578 -0.2375
   28TAL   C13726815   3.513  -1.982   2.185 -0.3535  0.1764 -0.4006
   28TAL   C13826816   3.641  -1.896   2.169  0.2666  0.3672  0.4643
   28TAL   C13926817   3.720  -1.934   2.042 -0.3249  1.3720  0.7319
   28TAL   C14026818   3.781  -2.080   2.048 -0.2302 -0.1333 -0.4253
   29HTM   C14126819   3.193  -2.097   1.805  0.2445  0.1739 -0.1975
   29HTM   C14226820   3.133  -2.185   1.720  0.1367  0.8779 -0.8781
   29HTM   C14326821   3.217  -2.225   1.610  0.2034  1.3703 -1.0110
   29HTM   C14426822   3.340  -2.167   1.611  0.3620  1.0422 -0.4318
   29HTM    S1526823   3.361  -2.057   1.752  0.4401  0.0781  0.3324
   30TAL   C14526824   3.154  -2.338   1.528  0.0480  0.5920  0.3908
   30TAL   C14626825   3.103  -2.476   1.589 -0.6000 -1.1760 -0.7688
   30TAL   C14726826   3.204  -2.551   1.667 -0.4337  1.2437 -0.8459
   30TAL   C14826827   3.150  -2.682   1.722  0.8959  0.5661 -0.1229
   30TAL   C14926828   3.038  -2.680   1.830  0.1944  0.5944 -0.4361
   30TAL   C15026829   3.078  -2.593   1.963 -0.3474  0.3981  0.7334
   31HTM   C15126830   3.433  -2.162   1.500 -0.4373 -0.1627 -0.6843
   31HTM   C15226831   3.432  -2.223   1.378  0.0378 -0.4996 -0.5260
   31HTM   C15326832   3.546  -2.190   1.296  0.6011 -1.0940 -0.0053
   31HTM   C15426833   3.634  -2.105   1.356  0.5553 -1.2106  0.2333
   31HTM    S1626834   3.579  -2.058   1.521 -0.2085 -0.5735 -0.1843
   32TAL   C15526835   3.564  -2.275   1.185 -0.5385  0.6448  1.0259
   32TAL   C15626836   3.471  -2.253   1.056 -0.8163  1.3887  0.3087
   32TAL   C15726837   3.321  -2.259   1.087  0.2059  0.4505  0.1538
   32TAL   C15826838   3.229  -2.249   0.962  0.5976  0.8770  0.6252
   32TAL   C15926839   3.111  -2.169   0.991 -0.5801  0.0729 -0.0357
   32TAL   C16026840   2.985  -2.201   0.913 -0.5523  0.0509 -0.3538
   33HTM   C16126841   3.757  -2.048   1.306  0.4286 -0.5645  0.1969
   33HTM   C16226842   3.867  -2.039   1.386  0.7398 -0.8795 -0.1882
   33HTM   C16326843   3.990  -2.020   1.314  0.4413 -0.4123 -0.5808
   33HTM   C16426844   3.974  -2.013   1.179 -0.0973  0.2588 -0.4950
   33HTM    S1726845   3.801  -2.032   1.132 -0.2710  0.3540  0.0928
   34TAL   C16526846   4.123  -2.018   1.395  0.2771 -0.2342  0.2721
   34TAL   C16626847   4.178  -1.896   1.474 -0.2255 -0.2574  1.3125
   34TAL   C16726848   4.090  -1.807   1.559  0.3760 -0.5397 -0.4638
   34TAL   C16826849   4.160  -1.687   1.628 -0.0786 -0.3453 -0.4332
   34TAL   C16926850   4.080  -1.595   1.723  0.1421  0.1102 -0.0234
   34TAL   C17026851   4.030  -1.630   1.860 -0.6512  0.1149  0.5118
   35HTM   C17126852   4.064  -1.992   1.071 -0.7796  0.3471 -0.2258
   35HTM   C17226853   4.068  -2.064   0.955 -0.8372 -0.1768  0.0905
   35HTM   C17326854   4.149  -2.004   0.852 -0.1594 -1.0824  0.0692
   35HTM   C17426855   4.207  -1.886   0.890  0.4151 -1.2490 -0.2635
   35HTM    S1826856   4.163  -1.842   1.059  0.1423 -0.2674 -0.5779
   36TAL   C17526857   4.168  -2.067   0.717 -0.7892  0.6441 -0.9158
   36TAL   C17626858   4.088  -2.002   0.615 -0.2649 -0.3426 -0.5311
   36TAL   C17726859   3.976  -2.083   0.558  0.5216 -0.3803  0.1401
   36TAL   C17826860   4.021  -2.170   0.441 -0.2243  0.3173  0.2762
   36TAL   C17926861   4.006  -2.113   0.307  0.1301  0.1497  0.2645
   36TAL   C18026862   4.068  -2.204   0.205  0.9238 -0.4706 -0.3850
   37HTM   C18126863   4.295  -1.781   0.824  0.2302 -0.3697  0.2932
   37HTM   C18226864   4.270  -1.709   0.710 -0.8149  0.1502  0.8205
   37HTM   C18326865   4.366  -1.604   0.686 -1.4240  0.7045  0.7582
   37HTM   C18426866   4.464  -1.596   0.781 -0.8436  0.6070  0.1834
   37HTM    S1926867   4.442  -1.721   0.909  0.5283 -0.1984 -0.3277
   38TAL   C18526868   4.373  -1.517   0.554 -0.0195 -1.0987  0.1219
   38TAL   C18626869   4.345  -1.585   0.419  0.0123 -0.6811  0.1241
   38TAL   C18726870   4.236  -1.681   0.395  0.1976 -0.5115  0.0352
   38TAL   C18826871   4.228  -1.736   0.254 -0.2313  0.3302  0.0024
   38TAL   C18926872   4.102  -1.743   0.177  0.8412  0.0530  0.0662
   38TAL   C19026873   4.118  -1.765   0.027  0.3525 -0.1988  0.0564
   39HTM   C19126874   4.598  -1.532   0.779 -0.0492 -0.1550 -0.4262
   39HTM   C19226875   4.708  -1.575   0.847 -0.0423 -0.1788 -0.4524
   39HTM   C19326876   4.828  -1.501   0.817 -0.0312 -0.2108 -0.4879
   39HTM   C19426877   4.809  -1.401   0.727 -0.0297 -0.2113 -0.4887
   39HTM    S2026878   4.637  -1.392   0.672 -0.0421 -0.1712 -0.4443
   40TAL   C19526879   4.965  -1.538   0.866 -0.6189  0.5334 -0.6185
   40TAL   C19626880   5.047  -1.662   0.820  0.5023 -0.4738 -0.4224
   40TAL   C19726881   5.059  -1.714   0.675 -0.0333 -0.5981 -0.7804
   40TAL   C19826882   5.107  -1.602   0.584  0.9504  0.3386 -0.7464
   40TAL   C19926883   5.154  -1.646   0.446  0.4232 -0.5571 -0.5042
   40TAL   C20026884   5.181  -1.555   0.334 -0.2250  0.3693 -0.9529
   41HTM   C20126885   4.895  -1.296   0.671 -0.2642  0.3524  0.5524
   41HTM   C20226886   4.951  -1.187   0.729 -0.0058  0.1020  0.7811
   41HTM   C20326887   5.037  -1.112   0.640  0.1802  0.0794  0.9401
   41HTM   C20426888   5.045  -1.165   0.515  0.0641  0.3126  0.8327
   41HTM    S2126889   4.945  -1.314   0.499 -0.2922  0.5810  0.5199
   42TAL   C20526890   5.102  -0.976   0.683 -0.9851 -0.6089 -1.4450
   42TAL   C20626891   5.177  -0.972   0.832 -0.4379 -0.7000 -0.6231
   42TAL   C20726892   5.246  -1.094   0.886 -0.3131  0.0911  0.5801
   42TAL   C20826893   5.253  -1.094   1.035 -0.0940  0.8218 -1.1315
   42TAL   C20926894   5.160  -1.177   1.126  0.5233  0.1654  1.2393
   42TAL   C21026895   5.148  -1.130   1.265 -0.5520 -0.2847 -1.1109
   43HTM   C21126896   5.141  -1.131   0.408  0.2322  0.6194 -0.0688
   43HTM   C21226897   5.263  -1.068   0.413  0.1523  0.8376 -0.6885
   43HTM   C21326898   5.324  -1.050   0.284 -0.2135  0.3040 -0.9448
   43HTM   C21426899   5.249  -1.099   0.181 -0.4126 -0.3212 -0.5205
   43HTM    S2226900   5.095  -1.172   0.239 -0.1516 -0.2844  0.2416
   44TAL   C21526901   5.469  -1.000   0.275  0.1384  0.1510  0.2486
   44TAL   C21626902   5.490  -0.872   0.197  0.4949 -0.3924 -0.6396
   44TAL   C21726903   5.628  -0.814   0.221  0.6425 -1.1008  0.9427
   44TAL   C21826904   5.746  -0.898   0.167  0.9616  0.2585 -0.3551
   44TAL   C21926905   5.869  -0.839   0.216 -0.4844  0.3579 -1.0480
   44TAL   C22026906   5.975  -0.912   0.132 -0.1501 -0.6261 -0.1350
   45HTM   C22126907   5.268  -1.080   0.040 -0.7244 -0.7337 -0.2505
   45HTM   C22226908   5.368  -1.131  -0.036 -0.5512 -0.4106 -0.2449
   45HTM   C22326909   5.343  -1.122  -0.178 -0.1633  0.3228 -0.2749
   45HTM   C22426910   5.224  -1.064  -0.209 -0.0407  0.5590 -0.3029
   45HTM    S2326911   5.133  -1.015  -0.061 -0.4087 -0.1321 -0.2942
   46TAL   C22526912   5.449  -1.180  -0.278 -0.8407 -0.0611 -0.7920
   46TAL   C22626913   5.524  -1.097  -0.379 -0.2614 -0.6709  1.0910
   46TAL   C22726914   5.642  -1.028  -0.310 -0.6958 -0.4059  0.0085
   46TAL   C22826915   5.664  -0.880  -0.335  0.2791  0.8024 -0.8714
   46TAL   C22926916   5.551  -0.790  -0.283  0.2782 -0.3020 -0.4138
   46TAL   C23026917   5.610  -0.680  -0.213 -0.2896  0.9651 -0.2661
   47HTM   C23126918   5.166  -1.020  -0.337 -0.1277 -0.1318 -0.0134
   47HTM   C23226919   5.144  -0.889  -0.366  0.0045 -0.1097 -0.0143
   47HTM   C23326920   5.103  -0.865  -0.502  0.0850 -0.0632 -0.0305
   47HTM   C23426921   5.094  -0.979  -0.577  0.0142 -0.0499 -0.0419
   47HTM    S2426922   5.136  -1.125  -0.481 -0.1612 -0.0955 -0.0330
   48TAL   C23526923   5.081  -0.727  -0.557 -0.8776 -0.6018  0.1879
   48TAL   C23626924   5.154  -0.703  -0.686  0.2529 -0.3816  1.0057
   48TAL   C23726925   5.207  -0.565  -0.699 -1.0410  0.3582  0.2192
   48TAL   C23826926   5.292  -0.540  -0.828  0.6738 -0.0621  0.0277
   48TAL   C23926927   5.349  -0.408  -0.846  0.3997  0.1878  0.0257
   48TAL   C24026928   5.248  -0.283  -0.861 -0.7060 -0.5902  1.0998
    1HTM     C126929   0.806   2.406   6.586  0.1497 -0.4194 -0.5286
    1HTM     C226930   0.755   2.454   6.703  0.8845 -0.1388 -0.3134
    1HTM     C326931   0.644   2.377   6.753  0.9993  0.1576  0.4141
    1HTM     C426932   0.610   2.271   6.675  0.3520  0.1027  0.7537
    1HTM     S126933   0.717   2.260   6.529 -0.4591 -0.3308  0.1763
    2TAL     C526934   0.566   2.405   6.873  0.2769 -0.6506 -0.0795
    2TAL     C626935   0.649   2.376   6.999  0.4392  0.0302  0.3484
    2TAL     C726936   0.697   2.228   7.032  0.6818 -0.7862 -0.6364
    2TAL     C826937   0.832   2.213   7.097  0.5835 -0.1125  0.7423
    2TAL     C926938   0.943   2.291   7.043 -1.5806  0.2006  0.3369
    2TAL    C1026939   1.080   2.285   7.121  0.1567  0.2909 -0.1612
    3HTM    C1126940   0.496   2.174   6.654 -0.1878 -0.2110 -0.0468
    3HTM    C1226941   0.365   2.192   6.686 -0.2470 -0.2040 -0.2937
    3HTM    C1326942   0.279   2.087   6.638 -0.1316 -0.3122 -0.2662
    3HTM    C1426943   0.344   1.989   6.570  0.0155 -0.4016  0.0017
    3HTM     S226944   0.521   2.021   6.561  0.0198 -0.3556  0.2417
    4TAL    C1526945   0.130   2.088   6.663  0.4476  0.7608 -0.2901
    4TAL    C1626946   0.081   2.049   6.791  0.4235 -0.3288 -0.7364
    4TAL    C1726947   0.092   2.135   6.918 -0.1430  0.9161  0.0171
    4TAL    C1826948   0.021   2.066   7.037  0.4119 -0.0742 -0.2279
    4TAL    C1926949   0.005   2.155   7.168 -0.4773 -0.9765 -0.2885
    4TAL    C2026950  -0.077   2.103   7.289 -0.4470  0.2701  0.7319
    5HTM    C2126951   0.303   1.880   6.488 -0.0655  0.2309 -0.5797
    5HTM    C2226952   0.370   1.762   6.481  0.1569  0.3191 -0.0514
    5HTM    C2326953   0.292   1.654   6.425  0.3023 -0.1236  0.5733
    5HTM    C2426954   0.165   1.691   6.389  0.1906 -0.5493  0.5208
    5HTM     S326955   0.135   1.865   6.424 -0.1091 -0.4232 -0.3277
    6TAL    C2526956   0.350   1.514   6.412  0.0883  0.1880  0.1021
    6TAL    C2626957   0.455   1.500   6.303  0.2470 -1.3605  0.7682
    6TAL    C2726958   0.530   1.382   6.292 -0.0216  0.0306 -0.4164
    6TAL    C2826959   0.649   1.348   6.380  0.1319  0.7195 -0.0502
    6TAL    C2926960   0.775   1.290   6.317  0.4360 -0.0390  0.4900
    6TAL    C3026961   0.794   1.136   6.328  0.4705  0.5474  0.7535
    7HTM    C3126962   0.050   1.625   6.330  0.2928  0.1039 -0.1729
    7HTM    C3226963  -0.059   1.696   6.290  0.8502  0.4033 -1.2627
    7HTM    C3326964  -0.149   1.622   6.205  1.1075  0.3855 -1.5198
    7HTM    C3426965  -0.108   1.495   6.179  0.7460  0.0726 -0.6262
    7HTM     S426966   0.049   1.458   6.262  0.0471 -0.2262  0.6191
    8TAL    C3526967  -0.261   1.706   6.143  0.4466  0.0854 -0.6535
    8TAL    C3626968  -0.245   1.737   5.990 -0.0317  0.4254 -0.6987
    8TAL    C3726969  -0.277   1.859   5.917 -1.1128 -0.9876 -0.3398
    8TAL    C3826970  -0.193   1.981   5.966 -1.3721  0.1851 -0.6937
    8TAL    C3926971  -0.255   2.117   5.941 -0.7257 -0.3386  0.3433
    8TAL    C4026972  -0.168   2.233   5.891  0.1311  0.8909 -0.4112
    9HTM    C4126973  -0.152   1.377   6.111  0.1453 -0.2554  0.4444
    9HTM    C4226974  -0.173   1.254   6.165 -0.0241 -0.2392  0.4175
    9HTM    C4326975  -0.236   1.161   6.075 -0.1004 -0.1490  0.3780
    9HTM    C4426976  -0.264   1.214   5.953  0.0110 -0.0964  0.3751
    9HTM     S526977  -0.212   1.386   5.941  0.2225 -0.1572  0.4221
   10TAL    C4526978  -0.255   1.008   6.123  0.4671 -0.3137  0.8892
   10TAL    C4626979  -0.216   0.981   6.265  0.8728 -0.0501 -0.1950
   10TAL    C4726980  -0.252   0.845   6.332 -0.5820  0.7776 -0.2215
   10TAL    C4826981  -0.175   0.722   6.263 -0.0797 -0.3452  0.2685
   10TAL    C4926982  -0.244   0.638   6.153  0.0608 -0.0407  0.1472
   10TAL    C5026983  -0.151   0.600   6.042  0.2072 -0.1246  0.8009
   11HTM    C5126984  -0.310   1.148   5.829  0.0382  0.0035 -0.2056
   11HTM    C5226985  -0.252   1.156   5.706  0.0534 -0.0032 -0.1987
   11HTM    C5326986  -0.316   1.076   5.606  0.0386  0.0257 -0.2129
   11HTM    C5426987  -0.424   1.005   5.652  0.0126  0.0545 -0.2305
   11HTM     S626988  -0.452   1.036   5.827  0.0041  0.0472 -0.2306
   12TAL    C5526989  -0.262   1.081   5.466  0.4081  0.8709 -0.3000
   12TAL    C5626990  -0.105   1.055   5.455  0.5131 -0.2613 -0.8349
   12TAL    C5726991  -0.081   1.095   5.317 -0.2388 -0.5782 -0.9010
   12TAL    C5826992   0.074   1.140   5.291 -0.4916  0.2288  0.1568
   12TAL    C5926993   0.084   1.232   5.173 -1.1296 -0.9026  1.3071
   12TAL    C6026994   0.228   1.283   5.128  0.2754 -1.4072  0.2731
   13HTM    C6126995  -0.526   0.930   5.585  0.2293 -0.4128 -0.2755
   13HTM    C6226996  -0.588   0.824   5.644  0.2365 -0.4219 -0.2848
   13HTM    C6326997  -0.681   0.756   5.557  0.0999 -0.3045 -0.2322
   13HTM    C6426998  -0.688   0.810   5.432 -0.0111 -0.2059 -0.1830
   13HTM     S726999  -0.579   0.952   5.414  0.0485 -0.2539 -0.1993
   14TAL    C6527000  -0.733   0.616   5.590  0.0939 -0.0461 -0.1788
   14TAL    C6627001  -0.618   0.508   5.593  0.3680 -0.3307  0.1309
   14TAL    C6727002  -0.653   0.354   5.627  0.4302 -0.5116 -0.0005
   14TAL    C6827003  -0.532   0.258   5.614 -0.0765 -0.0344 -0.0046
   14TAL    C6927004  -0.415   0.289   5.706  0.1010  0.6976 -0.2316
   14TAL    C7027005  -0.423   0.270   5.855  0.3956 -0.4580  0.8002
   15HTM    C7127006  -0.787   0.777   5.328 -0.8006 -0.3762 -0.0300
   15HTM    C7227007  -0.872   0.673   5.302 -0.7830 -0.1962 -0.8829
   15HTM    C7327008  -0.953   0.691   5.185 -0.1273  0.3323 -1.2639
   15HTM    C7427009  -0.930   0.809   5.120  0.3553  0.5553 -0.7016
   15HTM     S827010  -0.803   0.907   5.204  0.0161  0.1117  0.3610
   16TAL    C7527011  -1.041   0.573   5.137  0.1879 -0.5592 -0.0005
   16TAL    C7627012  -0.971   0.435   5.155 -0.5629  0.0932  0.0498
   16TAL    C7727013  -1.021   0.322   5.055  0.0158  0.4948  0.0018
   16TAL    C7827014  -1.045   0.182   5.120  0.5427 -1.1255 -0.2986
   16TAL    C7927015  -0.919   0.111   5.177 -0.5448  0.3895  0.1613
   16TAL    C8027016  -0.822   0.173   5.275 -1.0548  0.2475 -0.3833
   17HTM    C8127017  -0.989   0.867   5.013  0.1181 -0.0594  0.2642
   17HTM    C8227018  -0.924   0.906   4.900  0.1862 -0.6487  0.0900
   17HTM    C8327019  -1.011   0.949   4.794  0.2611 -0.8976 -0.0747
   17HTM    C8427020  -1.144   0.943   4.827  0.2500 -0.4982 -0.0263
   17HTM     S927021  -1.168   0.881   4.994  0.1436  0.2291  0.2332
   18TAL    C8527022  -0.957   0.984   4.656 -0.8987 -1.5041  0.7752
   18TAL    C8627023  -0.815   1.041   4.630  0.3609 -0.6400 -0.0655
   18TAL    C8727024  -0.793   1.183   4.696 -0.3860 -0.2653  0.5547
   18TAL    C8827025  -0.848   1.313   4.657  1.1912 -0.5166  0.6432
   18TAL    C8927026  -0.800   1.426   4.730 -0.8416 -0.1451 -0.1281
   18TAL    C9027027  -0.874   1.564   4.699  0.5718  0.8442  0.2502
   19HTM    C9127028  -1.251   0.985   4.743 -0.2701  0.4692 -0.5725
   19HTM    C9227029  -1.357   1.062   4.777 -0.6430 -0.0135 -0.6170
   19HTM    C9327030  -1.455   1.076   4.672 -0.6800 -0.4792 -0.6486
   19HTM    C9427031  -1.422   1.009   4.558 -0.3351 -0.3515 -0.6282
   19HTM    S1027032  -1.265   0.922   4.574  0.0660  0.3723 -0.5671
   20TAL    C9527033  -1.582   1.158   4.688  0.5739 -0.8615 -0.4797
   20TAL    C9627034  -1.567   1.292   4.771 -0.0176  0.5982 -0.3924
   20TAL    C9727035  -1.696   1.375   4.780 -0.0057 -0.3165 -0.6403
   20TAL    C9827036  -1.808   1.336   4.890  0.1667 -0.8668  0.3922
   20TAL    C9927037  -1.946   1.388   4.867 -0.1806 -0.1184  0.1240
   20TAL   C10027038  -2.038   1.320   4.962 -0.6382  0.3338  0.7760
   21HTM   C10127039  -1.500   0.993   4.430 -0.6463 -0.4650  0.5056
   21HTM   C10227040  -1.466   0.898   4.340 -0.9687 -0.8620  0.7944
   21HTM   C10327041  -1.545   0.901   4.219 -0.8156 -0.8155  0.6940
   21HTM   C10427042  -1.640   0.999   4.219 -0.3760 -0.3832  0.3288
   21HTM    S1127043  -1.636   1.096   4.371 -0.1201  0.0019  0.0814
   22TAL   C10527044  -1.542   0.780   4.117 -1.3735 -0.8340 -0.2409
   22TAL   C10627045  -1.487   0.655   4.160  0.2507  0.9894  0.9289
   22TAL   C10727046  -1.413   0.569   4.060 -0.4911 -0.0689  0.2180
   22TAL   C10827047  -1.356   0.437   4.122 -0.2259 -0.2827 -0.7342
   22TAL   C10927048  -1.212   0.440   4.179  0.2621  1.3307  0.5397
   22TAL   C11027049  -1.097   0.471   4.083  1.1590  0.1332  0.5640
   23HTM   C11127050  -1.735   1.047   4.119 -0.1903  0.2054 -0.0341
   23HTM   C11227051  -1.828   1.146   4.131  0.4408  0.8689 -0.3841
   23HTM   C11327052  -1.901   1.170   4.009  0.6059  0.9118 -0.4750
   23HTM   C11427053  -1.863   1.091   3.905  0.1008  0.2811 -0.1945
   23HTM    S1227054  -1.731   0.978   3.953 -0.6286 -0.4216  0.2096
   24TAL   C11527055  -1.989   1.289   4.005  0.4614 -1.1930  0.3010
   24TAL   C11627056  -2.126   1.297   3.935 -0.5269  0.3310  0.1730
   24TAL   C11727057  -2.227   1.204   4.002  0.7801  0.2061  0.1005
   24TAL   C11827058  -2.361   1.238   3.946  0.8037  0.2428 -0.3821
   24TAL   C11927059  -2.459   1.130   3.913  1.2335 -0.2750 -0.4961
   24TAL   C12027060  -2.587   1.198   3.842  0.5107 -0.4176 -0.0253
   25HTM   C12127061  -1.925   1.072   3.773 -0.2181  0.4931 -0.0719
   25HTM   C12227062  -1.875   1.120   3.657 -0.4126  0.6115 -0.1072
   25HTM   C12327063  -1.954   1.087   3.541 -0.3545  0.3258 -0.0667
   25HTM   C12427064  -2.065   1.013   3.570 -0.1155 -0.0104 -0.0005
   25HTM    S1327065  -2.078   0.979   3.746  0.0557  0.0078  0.0159
   26TAL   C12527066  -1.894   1.120   3.412 -0.1115  0.4593  0.1131
   26TAL   C12627067  -1.749   1.094   3.377 -1.4659  0.4867 -0.7593
   26TAL   C12727068  -1.709   1.110   3.239  0.4771 -0.3600 -0.1757
   26TAL   C12827069  -1.785   1.040   3.129  0.4325 -1.2702  0.0659
   26TAL   C12927070  -1.801   0.881   3.153  0.0484  0.1545  0.7013
   26TAL   C13027071  -1.897   0.802   3.064 -0.1010  0.3872 -0.0828
   27HTM   C13127072  -2.179   0.972   3.492  0.7583 -0.1962  0.3514
   27HTM   C13227073  -2.291   1.048   3.477  1.0054  0.2754  0.8039
   27HTM   C13327074  -2.389   0.989   3.389  0.5615  0.8568  0.8981
   27HTM   C13427075  -2.352   0.869   3.337 -0.0243  0.8286  0.5174
   27HTM    S1427076  -2.188   0.820   3.396 -0.0608  0.0595  0.0064
   28TAL   C13527077  -2.523   1.062   3.366 -0.2693 -0.6421  0.6517
   28TAL   C13627078  -2.611   1.049   3.480  0.7892 -0.2256 -1.4076
   28TAL   C13727079  -2.695   0.916   3.482 -0.1728 -1.2864  0.9729
   28TAL   C13827080  -2.711   0.875   3.622  0.5636  0.7068  0.2305
   28TAL   C13927081  -2.699   0.721   3.643  0.8818 -0.4388 -0.9934
   28TAL   C14027082  -2.565   0.662   3.598  0.2601 -0.0110  0.7743
   29HTM   C14127083  -2.410   0.783   3.228 -0.1381  0.2844 -0.0944
   29HTM   C14227084  -2.530   0.788   3.163 -0.1392 -0.0576 -0.1231
   29HTM   C14327085  -2.544   0.688   3.060  0.0391 -0.3088  0.0933
   29HTM   C14427086  -2.435   0.607   3.047  0.1762 -0.1584  0.2869
   29HTM    S1527087  -2.306   0.651   3.164  0.0899  0.3159  0.2104
   30TAL   C14527088  -2.678   0.695   2.985 -0.3860 -0.2194 -0.0555
   30TAL   C14627089  -2.814   0.692   3.056 -0.3041 -0.1453  1.2796
   30TAL   C14727090  -2.848   0.558   3.118 -0.8155 -0.1624 -0.0376
   30TAL   C14827091  -2.911   0.462   3.018 -0.1203 -0.2102  1.1672
   30TAL   C14927092  -2.940   0.316   3.073 -0.1842  0.1136 -0.9072
   30TAL   C15027093  -3.025   0.312   3.194 -0.2718 -0.4155 -0.4167
   31HTM   C15127094  -2.412   0.522   2.929  0.2298  0.3716  0.0866
   31HTM   C15227095  -2.290   0.513   2.871 -0.1620  0.6081 -0.8121
   31HTM   C15327096  -2.285   0.423   2.759 -0.8129  0.6492 -0.8796
   31HTM   C15427097  -2.404   0.363   2.731 -0.9176  0.4439 -0.0325
   31HTM    S1627098  -2.533   0.416   2.846 -0.1966  0.1807  0.9238
   32TAL   C15527099  -2.157   0.410   2.678 -0.0347  1.0507  0.5479
   32TAL   C15627100  -2.037   0.350   2.741 -0.2893  0.7636  0.2332
   32TAL   C15727101  -1.948   0.297   2.621 -0.8245 -0.0805 -0.0521
   32TAL   C15827102  -1.998   0.169   2.557 -0.8573  0.1108 -0.4201
   32TAL   C15927103  -1.887   0.083   2.497 -0.3762  0.4192 -0.0729
   32TAL   C16027104  -1.919  -0.042   2.424  0.9499 -0.3703  0.0167
   33HTM   C16127105  -2.431   0.244   2.649  0.5039  0.2274 -0.6342
   33HTM   C16227106  -2.490   0.234   2.527  0.5132 -0.2064 -0.6081
   33HTM   C16327107  -2.498   0.099   2.476  0.4003 -0.4040 -0.0750
   33HTM   C16427108  -2.445   0.006   2.560  0.3048 -0.1207  0.3054
   33HTM    S1727109  -2.380   0.082   2.711  0.3503  0.4214  0.0177
   34TAL   C16527110  -2.544   0.094   2.334 -0.0402  0.6769 -0.5547
   34TAL   C16627111  -2.441   0.056   2.241 -1.2274 -0.5450  0.2176
   34TAL   C16727112  -2.488   0.097   2.095  0.3734  0.5625 -0.9663
   34TAL   C16827113  -2.595   0.010   2.021  0.2534 -0.6158 -0.0470
   34TAL   C16927114  -2.684   0.114   1.941  0.2893 -0.2617 -0.7009
   34TAL   C17027115  -2.788   0.058   1.844 -0.3661 -0.1735  0.0280
   35HTM   C17127116  -2.440  -0.138   2.555 -0.0772 -0.1316  0.1069
   35HTM   C17227117  -2.359  -0.212   2.636 -0.2339 -0.1724  0.2292
   35HTM   C17327118  -2.351  -0.351   2.599 -0.1507 -0.1504  0.1636
   35HTM   C17427119  -2.427  -0.383   2.490  0.0694 -0.0930 -0.0088
   35HTM    S1827120  -2.515  -0.239   2.426  0.1896 -0.0618 -0.1025
   36TAL   C17527121  -2.277  -0.455   2.686 -1.1390  0.2078 -0.1825
   36TAL   C17627122  -2.317  -0.511   2.818  0.7585  0.1136 -0.3890
   36TAL   C17727123  -2.325  -0.415   2.933  0.5661 -0.0183  0.8916
   36TAL   C17827124  -2.314  -0.474   3.063 -1.0130  0.1531  0.8759
   36TAL   C17927125  -2.191  -0.560   3.103  0.1421 -0.0398 -0.2800
   36TAL   C18027126  -2.048  -0.514   3.075  0.5815 -0.7224 -0.4200
   37HTM   C18127127  -2.449  -0.504   2.410  0.9851 -0.0003 -0.4074
   37HTM   C18227128  -2.482  -0.514   2.278  1.1300 -0.0377 -0.4411
   37HTM   C18327129  -2.492  -0.650   2.231  0.2861 -0.0775 -0.1847
   37HTM   C18427130  -2.466  -0.744   2.327 -0.5020 -0.0706  0.0446
   37HTM    S1927131  -2.428  -0.667   2.485 -0.2377 -0.0129 -0.0464
   38TAL   C18527132  -2.527  -0.686   2.091 -0.9787  1.2326  0.5934
   38TAL   C18627133  -2.405  -0.671   1.997  0.7682 -1.4533  0.3876
   38TAL   C18727134  -2.384  -0.769   1.871 -0.0066  0.1330 -0.8296
   38TAL   C18827135  -2.253  -0.763   1.800 -0.7332 -0.3104 -0.0546
   38TAL   C18927136  -2.260  -0.824   1.658  0.3403 -0.4697 -0.1467
   38TAL   C19027137  -2.302  -0.962   1.619 -0.0777  0.6738 -0.1681
   39HTM   C19127138  -2.440  -0.886   2.319  0.2388  0.2140  0.0140
   39HTM   C19227139  -2.446  -0.974   2.215  0.3875  0.2372 -0.0136
   39HTM   C19327140  -2.426  -1.111   2.254 -0.0538  0.1862  0.0422
   39HTM   C19427141  -2.405  -1.128   2.387 -0.5393  0.1247  0.1125
   39HTM    S2027142  -2.409  -0.970   2.475 -0.4762  0.1258  0.1136
   40TAL   C19527143  -2.416  -1.217   2.153 -0.1961 -0.4514  0.5362
   40TAL   C19627144  -2.415  -1.200   2.003 -0.2991  0.3999  0.5496
   40TAL   C19727145  -2.323  -1.299   1.931  0.9838  0.5006  0.6473
   40TAL   C19827146  -2.352  -1.273   1.778  0.2990  1.0615 -0.2488
   40TAL   C19927147  -2.268  -1.368   1.690 -0.9690  1.0520  0.4897
   40TAL   C20027148  -2.328  -1.382   1.549 -0.1501 -0.0051  0.2037
   41HTM   C20127149  -2.380  -1.257   2.466  0.1902 -0.0569  0.0239
   41HTM   C20227150  -2.285  -1.278   2.561  0.0906 -0.5219  0.0244
   41HTM   C20327151  -2.287  -1.411   2.616 -0.5980 -0.5038  0.0644
   41HTM   C20427152  -2.383  -1.492   2.562 -1.0235 -0.0258  0.0944
   41HTM    S2127153  -2.479  -1.405   2.437 -0.5839  0.4428  0.0742
   42TAL   C20527154  -2.188  -1.451   2.718 -0.7357  0.6280  1.0150
   42TAL   C20627155  -2.243  -1.435   2.857  0.6903 -0.6554 -0.3002
   42TAL   C20727156  -2.150  -1.495   2.968  0.6473 -0.2711  0.1741
   42TAL   C20827157  -2.145  -1.642   2.975 -0.6830  0.0879  0.7987
   42TAL   C20927158  -2.066  -1.674   3.090  0.3506  0.1187 -0.0936
   42TAL   C21027159  -2.092  -1.819   3.132  0.0353  0.0754  1.1429
   43HTM   C21127160  -2.411  -1.634   2.580  0.0475 -0.2795  0.6090
   43HTM   C21227161  -2.504  -1.689   2.664  0.4389 -0.8080  0.7139
   43HTM   C21327162  -2.489  -1.831   2.683  0.8184 -0.8554  0.1194
   43HTM   C21427163  -2.385  -1.885   2.614  0.7158 -0.3627 -0.4390
   43HTM    S2227164  -2.296  -1.759   2.519  0.1279  0.2038 -0.2557
   44TAL   C21527165  -2.578  -1.898   2.779  0.1929 -0.3702 -0.2329
   44TAL   C21627166  -2.556  -1.860   2.925  1.3754  0.4785 -0.2391
   44TAL   C21727167  -2.606  -1.938   3.044 -0.9012  0.2573  0.1503
   44TAL   C21827168  -2.556  -2.079   3.033 -0.7371  0.0191  0.7053
   44TAL   C21927169  -2.423  -2.083   3.109 -0.6761  0.5333  0.6539
   44TAL   C22027170  -2.405  -2.217   3.178 -0.9947 -0.5833 -0.6640
   45HTM   C22127171  -2.340  -2.014   2.628 -0.0267  0.0594 -0.1065
   45HTM   C22227172  -2.211  -2.058   2.616 -0.0814  0.0612 -0.7478
   45HTM   C22327173  -2.199  -2.202   2.619 -0.0687  0.0582 -0.9011
   45HTM   C22427174  -2.317  -2.267   2.635 -0.0044  0.0538 -0.3767
   45HTM    S2327175  -2.455  -2.152   2.646  0.0455  0.0535  0.3571
   46TAL   C22527176  -2.052  -2.255   2.604  0.9745 -1.1810 -0.3994
   46TAL   C22627177  -2.000  -2.217   2.459  0.6690 -0.1170  0.1490
   46TAL   C22727178  -2.041  -2.329   2.363 -0.8783 -0.4326  0.5874
   46TAL   C22827179  -2.011  -2.310   2.214  1.1438 -1.3301  1.0277
   46TAL   C22927180  -2.019  -2.426   2.126 -0.8553  0.5701  0.1525
   46TAL   C23027181  -1.907  -2.523   2.126 -0.6144  0.4324  0.7011
   47HTM   C23127182  -2.356  -2.408   2.640 -0.0180 -0.2558 -0.1158
   47HTM   C23227183  -2.392  -2.490   2.537 -0.3318 -0.2444 -0.0173
   47HTM   C23327184  -2.424  -2.624   2.579 -0.5144 -0.1626  0.1038
   47HTM   C23427185  -2.413  -2.643   2.714 -0.3396 -0.1116  0.0977
   47HTM    S2427186  -2.361  -2.493   2.799  0.0720 -0.1632 -0.0629
   48TAL   C23527187  -2.467  -2.719   2.476 -0.3651  0.0280 -0.1195
   48TAL   C23627188  -2.417  -2.866   2.490  0.1056 -0.1465 -1.2993
   48TAL   C23727189  -2.269  -2.874   2.466 -0.2291 -0.2455  1.1346
   48TAL   C23827190  -2.175  -2.959   2.544 -0.7436  0.1117  0.5220
   48TAL   C23927191  -2.187  -3.105   2.515 -0.3325  0.7378 -0.0707
   48TAL   C24027192  -2.115  -3.208   2.612 -0.7288  0.0993  0.0556
    1HTM     C127193   1.406   6.248   9.227  0.3236 -0.3430 -0.0263
    1HTM     C227194   1.292   6.267   9.153  0.3525  0.0160  0.0184
    1HTM     C327195   1.243   6.147   9.091 -0.0223  0.1794 -0.0062
    1HTM     C427196   1.319   6.037   9.116 -0.3370 -0.0549 -0.0692
    1HTM     S127197   1.460   6.076   9.221 -0.1832 -0.5037 -0.1030
    2TAL     C527198   1.125   6.156   9.003  0.2955  0.5528 -0.1538
    2TAL     C627199   1.100   6.279   8.901  0.4754  0.0723 -0.7099
    2TAL     C727200   1.027   6.404   8.950  0.3272 -0.7089 -1.0956
    2TAL     C827201   1.005   6.505   8.835 -0.0895 -0.9299  0.3376
    2TAL     C927202   0.903   6.480   8.729 -0.4538  0.4487 -0.9210
    2TAL    C1027203   0.873   6.599   8.640  0.3383 -0.1293 -0.2365
    3HTM    C1127204   1.311   5.895   9.078 -0.2265 -0.2908  0.4591
    3HTM    C1227205   1.201   5.818   9.054 -0.0598 -0.5054  0.3717
    3HTM    C1327206   1.228   5.677   9.052  0.2918 -0.4367 -0.0157
    3HTM    C1427207   1.359   5.645   9.075  0.3930 -0.1697 -0.2241
    3HTM     S227208   1.459   5.793   9.100  0.0495  0.0173  0.0556
    4TAL    C1527209   1.103   5.588   9.021 -0.8579  0.3812 -1.0228
    4TAL    C1627210   1.098   5.433   8.977 -0.0392 -0.6191 -0.0789
    4TAL    C1727211   1.122   5.326   9.084 -1.2763  1.4505 -0.2696
    4TAL    C1827212   1.036   5.333   9.212 -0.3421 -0.2242  1.1676
    4TAL    C1927213   0.937   5.218   9.217  0.6442  0.6508 -0.5557
    4TAL    C2027214   0.807   5.239   9.297  0.5630 -0.0541 -0.1281
    5HTM    C2127215   1.426   5.517   9.087  0.6986  0.4265 -0.0108
    5HTM    C2227216   1.499   5.451   8.993  0.2880 -0.0409 -0.0064
    5HTM    C2327217   1.561   5.330   9.042 -0.3461 -0.3533  0.0396
    5HTM    C2427218   1.534   5.305   9.173 -0.4190 -0.1242  0.0708
    5HTM     S327219   1.429   5.432   9.246  0.3132  0.5091  0.0433
    6TAL    C2527220   1.661   5.254   8.959  0.0962  0.3397 -0.3729
    6TAL    C2627221   1.598   5.154   8.852  1.1371 -0.8139 -0.7339
    6TAL    C2727222   1.708   5.072   8.783  0.1150  0.1789 -0.3930
    6TAL    C2827223   1.656   4.966   8.691 -0.1227  0.5221  0.2886
    6TAL    C2927224   1.757   4.858   8.638 -0.8946 -0.1537  0.9574
    6TAL    C3027225   1.899   4.906   8.580 -0.6949  0.8025  0.2016
    7HTM    C3127226   1.561   5.194   9.259 -0.0574  0.0760 -0.1448
    7HTM    C3227227   1.591   5.193   9.393  0.0210  0.0851 -0.1619
    7HTM    C3327228   1.599   5.060   9.448 -0.0864  0.0930 -0.1268
    7HTM    C3427229   1.576   4.961   9.358 -0.2467  0.0899 -0.0829
    7HTM     S427230   1.542   5.028   9.194 -0.2746  0.0767 -0.0828
    8TAL    C3527231   1.598   5.047   9.602  1.4047 -0.2298 -1.7670
    8TAL    C3627232   1.723   4.990   9.655 -0.5042  0.7602 -0.8975
    8TAL    C3727233   1.732   4.960   9.812  1.3812  0.0262  0.0814
    8TAL    C3827234   1.827   4.860   9.858 -0.1268 -0.8619 -0.7836
    8TAL    C3927235   1.811   4.701   9.840  1.1465 -1.1068 -0.3269
    8TAL    C4027236   1.709   4.634   9.936 -0.1260 -0.1227  0.7476
    9HTM    C4127237   1.560   4.812   9.381  0.3880 -0.1888 -0.0586
    9HTM    C4227238   1.450   4.742   9.342  0.1412  0.2385 -0.1440
    9HTM    C4327239   1.460   4.600   9.366 -0.3270  0.1637 -0.3662
    9HTM    C4427240   1.578   4.563   9.423 -0.4372 -0.3207 -0.4497
    9HTM     S527241   1.686   4.704   9.452  0.0456 -0.7227 -0.2536
   10TAL    C4527242   1.349   4.499   9.336 -0.4172  0.9851  0.0613
   10TAL    C4627243   1.219   4.513   9.258  0.2134  0.3104  0.2020
   10TAL    C4727244   1.127   4.393   9.250  0.4321  0.2436 -0.7392
   10TAL    C4827245   0.979   4.434   9.234  0.2342  0.1499 -0.5662
   10TAL    C4927246   0.883   4.316   9.215 -0.8737  0.3238 -0.1863
   10TAL    C5027247   0.759   4.390   9.198  0.2602  0.1965 -0.0737
   11HTM    C5127248   1.640   4.433   9.454  0.1138  0.4648  0.5272
   11HTM    C5227249   1.743   4.363   9.397  0.0234  0.4700  0.3574
   11HTM    C5327250   1.767   4.235   9.459 -0.0562  0.3450  0.1311
   11HTM    C5427251   1.683   4.207   9.563 -0.0265  0.2442  0.1283
   11HTM     S627252   1.566   4.342   9.591  0.1054  0.3001  0.4138
   12TAL    C5527253   1.880   4.143   9.410  0.2939  0.0253 -0.2592
   12TAL    C5627254   2.001   4.153   9.502  0.6697  0.2858 -0.4529
   12TAL    C5727255   2.109   4.053   9.464  0.8331 -0.1845  0.1420
   12TAL    C5827256   2.077   3.933   9.552  0.0403 -0.9311 -0.7621
   12TAL    C5927257   2.124   3.792   9.503 -0.0007  0.3014  0.7273
   12TAL    C6027258   2.212   3.763   9.379  0.3803 -0.3947 -0.0937
   13HTM    C6127259   1.671   4.093   9.648  0.5296 -0.4343  0.3802
   13HTM    C6227260   1.758   4.050   9.744  0.0195 -0.3952  0.8714
   13HTM    C6327261   1.719   3.927   9.808 -0.5780 -0.1071  1.0746
   13HTM    C6427262   1.602   3.876   9.760 -0.5234  0.0733  0.7387
   13HTM     S727263   1.532   3.980   9.631  0.2932 -0.1078  0.1342
   14TAL    C6527264   1.794   3.857   9.920  0.4637  0.5830  0.7030
   14TAL    C6627265   1.750   3.887  10.063  1.0286  0.8368 -0.5574
   14TAL    C6727266   1.736   4.031  10.111  0.1874 -0.6006 -0.0637
   14TAL    C6827267   1.844   4.137  10.066  1.1935  0.3689 -0.5256
   14TAL    C6927268   1.840   4.269  10.140 -0.0612 -0.1293 -0.1736
   14TAL    C7027269   1.957   4.359  10.118 -0.9763  0.4817  0.9479
   15HTM    C7127270   1.525   3.756   9.800 -0.3139 -0.1179 -0.2056
   15HTM    C7227271   1.435   3.737   9.901 -0.6407  0.1994 -0.4328
   15HTM    C7327272   1.368   3.610   9.897 -0.5705  0.1545 -0.2079
   15HTM    C7427273   1.407   3.531   9.793 -0.1900 -0.1971  0.1906
   15HTM     S827274   1.532   3.612   9.691  0.1113 -0.5011  0.3138
   16TAL    C7527275   1.262   3.570  10.011 -0.0163  0.7038  0.0346
   16TAL    C7627276   1.321   3.557  10.150  0.2895  0.3213  1.4076
   16TAL    C7727277   1.200   3.574  10.240 -0.6771  0.9418 -0.2384
   16TAL    C7827278   1.244   3.562  10.386  0.2642  0.7126  0.3014
   16TAL    C7927279   1.126   3.573  10.482  1.2486 -0.2603  0.5454
   16TAL    C8027280   1.156   3.541  10.623  0.9332 -0.2344 -0.8762
   17HTM    C8127281   1.366   3.398   9.754  0.1586  0.1278 -0.1361
   17HTM    C8227282   1.328   3.292   9.829 -0.4424  0.3043 -0.1776
   17HTM    C8327283   1.294   3.175   9.752 -0.3966  0.3042 -0.1976
   17HTM    C8427284   1.306   3.193   9.618  0.2393  0.1277 -0.1717
   17HTM     S927285   1.362   3.360   9.578  0.8343 -0.0536 -0.1192
   18TAL    C8527286   1.250   3.042   9.809 -0.2559 -0.3928  0.2032
   18TAL    C8627287   1.360   2.944   9.872  1.1412  0.0998  0.6502
   18TAL    C8727288   1.314   2.808   9.926  0.1903  0.1436  0.5397
   18TAL    C8827289   1.236   2.711   9.843 -0.1155 -0.0623  0.3046
   18TAL    C8927290   1.251   2.676   9.691  0.3081 -0.1101  0.6106
   18TAL    C9027291   1.197   2.554   9.645 -0.1561  1.1226 -0.5318
   19HTM    C9127292   1.272   3.112   9.502  0.2211  0.1848  0.3089
   19HTM    C9227293   1.303   2.980   9.490 -0.3082  0.0330  0.5209
   19HTM    C9327294   1.294   2.930   9.355 -0.1751 -0.0581  0.5457
   19HTM    C9427295   1.256   3.024   9.264  0.4557  0.0242  0.3528
   19HTM    S1027296   1.227   3.184   9.342  0.9342  0.2248  0.1224
   20TAL    C9527297   1.313   2.780   9.341  0.4359 -0.3386  0.1359
   20TAL    C9627298   1.281   2.698   9.210 -1.1057 -0.7497 -0.0196
   20TAL    C9727299   1.315   2.546   9.227  0.5061 -0.3900 -0.3681
   20TAL    C9827300   1.181   2.479   9.235 -0.1600  0.4077  0.6417
   20TAL    C9927301   1.221   2.331   9.268  0.4362 -0.2553  0.1165
   20TAL   C10027302   1.107   2.230   9.277  0.0428  0.1912 -0.4198
   21HTM   C10127303   1.260   3.020   9.122  0.1259 -0.1431 -0.4763
   21HTM   C10227304   1.192   2.948   9.029  0.8728 -0.9710 -0.4137
   21HTM   C10327305   1.226   2.983   8.893  1.0646 -1.2907 -0.4480
   21HTM   C10427306   1.320   3.081   8.883  0.4639 -0.7067 -0.5375
   21HTM    S1127307   1.374   3.138   9.046 -0.3972  0.3003 -0.5854
   22TAL   C10527308   1.151   2.914   8.781 -0.2779  0.1889 -0.7031
   22TAL   C10627309   1.213   2.782   8.748  0.6169  1.1267  0.9240
   22TAL   C10727310   1.170   2.669   8.651 -1.2440 -1.0678  0.5653
   22TAL   C10827311   1.048   2.588   8.702 -0.3333 -0.0487 -0.5257
   22TAL   C10927312   1.068   2.535   8.844  0.4511 -0.0326  0.1776
   22TAL   C11027313   1.170   2.426   8.868 -0.9120 -1.0055  0.2891
   23HTM   C11127314   1.379   3.149   8.773 -0.0172  0.3532  0.1113
   23HTM   C11227315   1.489   3.226   8.796  0.0693  0.2869 -0.0782
   23HTM   C11327316   1.552   3.274   8.675  0.2199 -0.2116 -0.2003
   23HTM   C11427317   1.490   3.233   8.561  0.2483 -0.5254 -0.1040
   23HTM    S1227318   1.346   3.130   8.597  0.0857 -0.2132  0.1502
   24TAL   C11527319   1.662   3.382   8.692 -0.1312 -0.2318  0.7175
   24TAL   C11627320   1.789   3.346   8.779 -0.2195 -0.2126  0.1036
   24TAL   C11727321   1.926   3.421   8.740  1.3805 -0.3328  0.7002
   24TAL   C11827322   2.041   3.352   8.810  0.1501  0.6809 -0.5372
   24TAL   C11927323   2.187   3.392   8.771  0.3589 -0.6354  0.7528
   24TAL   C12027324   2.292   3.308   8.839 -0.4260 -0.4116 -0.1276
   25HTM   C12127325   1.515   3.258   8.417  0.1468  0.0720 -0.5201
   25HTM   C12227326   1.547   3.172   8.317 -0.2094  0.3343 -0.8705
   25HTM   C12327327   1.587   3.236   8.195 -0.1963  0.6638 -0.6948
   25HTM   C12427328   1.584   3.372   8.201  0.1699  0.6526 -0.2105
   25HTM    S1327329   1.532   3.430   8.364  0.5294  0.2218  0.0631
   26TAL   C12527330   1.659   3.159   8.089  0.3365  1.0116  0.1194
   26TAL   C12627331   1.658   3.008   8.068 -0.4781 -0.5540 -0.3984
   26TAL   C12727332   1.527   2.947   8.021 -1.0988 -0.0217 -0.7030
   26TAL   C12827333   1.547   2.795   7.985  0.7652 -0.6242 -0.0639
   26TAL   C12927334   1.434   2.746   7.897  1.3463 -0.4840  0.6382
   26TAL   C13027335   1.412   2.605   7.865 -0.9021  0.7788 -0.5822
   27HTM   C13127336   1.625   3.478   8.112  0.1908 -0.0354 -0.1672
   27HTM   C13227337   1.572   3.497   7.988 -0.2417 -0.1499 -0.0042
   27HTM   C13327338   1.591   3.631   7.937 -0.5995 -0.1376 -0.1096
   27HTM   C13427339   1.659   3.713   8.022 -0.4398 -0.0138 -0.3537
   27HTM    S1427340   1.704   3.628   8.175  0.1796  0.0978 -0.4696
   28TAL   C13527341   1.523   3.681   7.812 -0.4237 -0.2208  0.5554
   28TAL   C13627342   1.403   3.774   7.808 -0.0511  0.0163  0.2238
   28TAL   C13727343   1.363   3.839   7.677  0.8956 -0.5604  0.6346
   28TAL   C13827344   1.307   3.736   7.572  0.6739  0.3618 -0.3142
   28TAL   C13927345   1.243   3.798   7.453  0.5575  0.7187  0.4945
   28TAL   C14027346   1.288   3.747   7.318 -0.2501 -0.0762  1.0043
   29HTM   C14127347   1.681   3.854   8.023 -0.2410 -0.5172 -0.4165
   29HTM   C14227348   1.661   3.940   8.127 -0.3214 -0.8423 -0.1588
   29HTM   C14327349   1.686   4.078   8.093 -0.1782 -0.7460  0.3247
   29HTM   C14427350   1.724   4.097   7.964  0.0113 -0.3473  0.4358
   29HTM    S1527351   1.732   3.941   7.873  0.0238 -0.0605 -0.0654
   30TAL   C14527352   1.696   4.182   8.207  0.2437 -0.4638  0.9597
   30TAL   C14627353   1.562   4.224   8.268  0.1070 -0.3629 -0.3666
   30TAL   C14727354   1.581   4.284   8.412  0.1943  2.2308  0.0981
   30TAL   C14827355   1.610   4.183   8.525  0.7821 -0.3081 -1.0029
   30TAL   C14927356   1.513   4.069   8.530 -0.1328 -0.0540 -0.3122
   30TAL   C15027357   1.553   3.951   8.621  1.1505 -0.7030  0.2818
   31HTM   C15127358   1.736   4.214   7.876  0.0503  0.0530 -0.9009
   31HTM   C15227359   1.745   4.220   7.740  0.3735  0.5500 -0.8632
   31HTM   C15327360   1.764   4.353   7.689  0.3647  0.7566 -0.3387
   31HTM   C15427361   1.771   4.449   7.786  0.0348  0.4171  0.0236
   31HTM    S1627362   1.752   4.377   7.950 -0.2928 -0.1946 -0.2719
   32TAL   C15527363   1.766   4.389   7.543 -1.0097  0.0350 -0.6210
   32TAL   C15627364   1.888   4.339   7.462 -0.5202 -0.4839  1.2894
   32TAL   C15727365   1.901   4.422   7.330  1.4112  0.6737  1.9413
   32TAL   C15827366   1.965   4.557   7.342 -0.7990  0.5774  0.6690
   32TAL   C15927367   1.876   4.660   7.399 -0.5477  1.5788  0.3820
   32TAL   C16027368   1.753   4.702   7.331 -0.5629 -0.0906  1.1150
   33HTM   C16127369   1.790   4.589   7.779  0.2229 -0.0776 -0.1738
   33HTM   C16227370   1.726   4.677   7.697  0.5168 -0.1363 -0.4666
   33HTM   C16327371   1.781   4.810   7.699  0.5963 -0.1692 -0.4703
   33HTM   C16427372   1.887   4.823   7.784  0.3630 -0.1355 -0.1802
   33HTM    S1727373   1.926   4.668   7.868  0.0221 -0.0590  0.1225
   34TAL   C16527374   1.711   4.915   7.624  1.1369 -0.3004  0.2367
   34TAL   C16627375   1.574   4.903   7.545  0.1697 -0.7870 -0.5421
   34TAL   C16727376   1.505   5.035   7.519 -0.3663 -0.1225  0.1461
   34TAL   C16827377   1.435   5.114   7.629 -0.0332 -0.2022 -0.2270
   34TAL   C16927378   1.308   5.191   7.569  0.0894  0.1219 -0.5025
   34TAL   C17027379   1.222   5.280   7.667  0.9007  0.2753 -0.0126
   35HTM   C17127380   1.963   4.944   7.808 -0.9303 -0.0090  0.0571
   35HTM   C17227381   2.074   4.951   7.887 -1.1315 -0.1974  0.3611
   35HTM   C17327382   2.137   5.081   7.887 -0.7752 -0.3690  0.3458
   35HTM   C17427383   2.075   5.172   7.807 -0.3023 -0.3113  0.0304
   35HTM    S1827384   1.930   5.101   7.726 -0.2700 -0.0337 -0.2743
   36TAL   C17527385   2.275   5.115   7.967  0.5823 -0.0623  1.0066
   36TAL   C17627386   2.315   5.005   8.071 -0.7140 -0.0466 -0.0891
   36TAL   C17727387   2.411   5.050   8.180 -0.5557  1.0220 -0.1565
   36TAL   C17827388   2.362   5.153   8.275 -0.1702 -0.9105  0.3084
   36TAL   C17927389   2.465   5.251   8.330  0.3176 -0.6573  0.8688
   36TAL   C18027390   2.388   5.385   8.378  0.8117 -0.3646 -0.2853
   37HTM   C18127391   2.104   5.309   7.786 -0.6447  0.5102 -0.0264
   37HTM   C18227392   2.161   5.356   7.672 -0.4045  0.4456  0.0658
   37HTM   C18327393   2.162   5.500   7.662  0.4084  0.4703  0.3870
   37HTM   C18427394   2.106   5.563   7.769  0.7878  0.5534  0.5399
   37HTM    S1927395   2.047   5.444   7.892  0.1430  0.6078  0.2881
   38TAL   C18527396   2.240   5.549   7.537  0.6713 -0.3603 -1.2025
   38TAL   C18627397   2.175   5.672   7.478 -0.6675 -0.1394  0.5140
   38TAL   C18727398   2.041   5.650   7.401  0.1246  0.1828  0.6003
   38TAL   C18827399   1.998   5.766   7.299  0.3146  0.5084  0.2423
   38TAL   C18927400   1.945   5.726   7.164  0.6088 -0.3153 -0.7969
   38TAL   C19027401   1.808   5.776   7.132  0.9302  0.4017 -0.9332
   39HTM   C19127402   2.100   5.700   7.804 -0.2774 -0.4733  0.3224
   39HTM   C19227403   2.002   5.794   7.801 -0.5584 -0.7619  0.3241
   39HTM   C19327404   2.044   5.923   7.850 -0.9150 -0.6156  0.2518
   39HTM   C19427405   2.174   5.927   7.891 -0.9059 -0.2156  0.1948
   39HTM    S2027406   2.254   5.767   7.869 -0.4426  0.0094  0.2287
   40TAL   C19527407   1.945   6.039   7.865  0.1086  0.2055 -0.0361
   40TAL   C19627408   1.856   6.077   7.743 -0.1998  0.3577 -0.4455
   40TAL   C19727409   1.832   6.228   7.747  0.3722 -1.1420 -0.7358
   40TAL   C19827410   1.748   6.259   7.624  0.4265  1.1565 -0.5663
   40TAL   C19927411   1.737   6.398   7.585 -0.8783 -0.5425 -1.3315
   40TAL   C20027412   1.633   6.468   7.663  0.0377 -0.6222 -0.3050
   41HTM   C20127413   2.228   6.020   7.990 -0.8109  0.0526 -0.1134
   41HTM   C20227414   2.273   5.988   8.114  0.2658 -0.3806 -0.5903
   41HTM   C20327415   2.304   6.103   8.196  1.0775 -0.6621 -0.4854
   41HTM   C20427416   2.282   6.222   8.133  0.6197 -0.4435  0.0720
   41HTM    S2127417   2.220   6.199   7.965 -0.8837  0.1393  0.5106
   42TAL   C20527418   2.369   6.093   8.336  0.3567 -1.1908 -0.6629
   42TAL   C20627419   2.289   6.063   8.461 -0.8857  0.9094  0.2428
   42TAL   C20727420   2.163   6.145   8.467 -0.2208 -0.4842 -0.3540
   42TAL   C20827421   2.089   6.092   8.583 -0.0219 -0.5555 -0.0323
   42TAL   C20927422   1.972   6.177   8.627  0.0546 -0.3745  1.2388
   42TAL   C21027423   1.912   6.168   8.769 -0.5933  0.1507  0.2029
   43HTM   C21127424   2.307   6.363   8.169  0.0725  0.2495 -0.2580
   43HTM   C21227425   2.414   6.429   8.223  0.2273  0.2161 -0.5224
   43HTM   C21327426   2.400   6.572   8.222  0.1842  0.2131 -0.3099
   43HTM   C21427427   2.282   6.616   8.168 -0.0033  0.2447  0.1164
   43HTM    S2227428   2.179   6.478   8.114 -0.1412  0.2804  0.2841
   44TAL   C21527429   2.515   6.668   8.259 -0.5779  0.5562  0.3300
   44TAL   C21627430   2.593   6.630   8.378  0.0055 -0.3074 -0.5482
   44TAL   C21727431   2.725   6.700   8.415  0.0982  0.0188  0.9869
   44TAL   C21827432   2.709   6.852   8.398  0.4061 -0.0107  0.4123
   44TAL   C21927433   2.813   6.937   8.463 -0.1042 -0.2917 -0.1030
   44TAL   C22027434   2.821   6.937   8.619 -0.3132 -0.0081  0.4007
   45HTM   C22127435   2.259   6.752   8.127 -0.5376  0.1056  0.4878
   45HTM   C22227436   2.271   6.867   8.200 -1.2897  0.1813  0.5045
   45HTM   C22327437   2.203   6.980   8.142 -1.3093 -0.0498  0.0699
   45HTM   C22427438   2.140   6.952   8.025 -0.5719 -0.3018 -0.2782
   45HTM    S2327439   2.161   6.779   7.978  0.2103 -0.2663 -0.0824
   46TAL   C22527440   2.202   7.116   8.210 -0.8033  0.2300  0.8466
   46TAL   C22627441   2.308   7.143   8.326 -0.4756  0.4676  0.2358
   46TAL   C22727442   2.454   7.150   8.269  0.2194  0.5064 -1.5114
   46TAL   C22827443   2.528   7.268   8.324 -0.5663 -0.5225 -0.9716
   46TAL   C22927444   2.673   7.291   8.267  0.0492  0.4448 -0.3852
   46TAL   C23027445   2.726   7.431   8.276  0.1718 -0.9720 -1.1409
   47HTM   C23127446   2.061   7.035   7.943 -0.1896 -0.3893  0.7633
   47HTM   C23227447   2.045   7.170   7.933  0.6685 -0.3022  0.4348
   47HTM   C23327448   1.944   7.210   7.838  1.3406  0.1405 -0.1109
   47HTM   C23427449   1.883   7.106   7.775  0.9949  0.3911 -0.1981
   47HTM    S2427450   1.948   6.947   7.832 -0.2157  0.0849  0.4068
   48TAL   C23527451   1.906   7.365   7.810 -0.1071 -0.3606 -0.8394
   48TAL   C23627452   2.005   7.475   7.830 -0.4282  1.2600  0.6944
   48TAL   C23727453   1.966   7.618   7.822  0.4468 -1.5164 -0.4263
   48TAL   C23827454   2.071   7.726   7.871 -0.6490  0.2071 -0.8362
   48TAL   C23927455   2.043   7.870   7.853 -0.0567  0.0491  0.8653
   48TAL   C24027456   2.038   7.931   7.713 -0.2691 -0.8296  0.1875
    1HTM     C127457   5.698   7.711   7.044 -0.8833 -0.3188  0.1701
    1HTM     C227458   5.786   7.714   6.940 -1.0639 -0.2325  0.0181
    1HTM     C327459   5.907   7.639   6.964 -0.7333  0.2862  0.0045
    1HTM     C427460   5.911   7.579   7.087 -0.3003  0.5954  0.1463
    1HTM     S127461   5.761   7.613   7.182 -0.2768  0.2529  0.3092
    2TAL     C527462   6.025   7.648   6.865 -0.4775 -1.8724  0.3928
    2TAL     C627463   6.025   7.770   6.749 -0.1103  0.7824  0.1616
    2TAL     C727464   6.149   7.860   6.729  0.0216  0.1113  0.0142
    2TAL     C827465   6.278   7.806   6.677 -0.8499  0.4712 -0.9774
    2TAL     C927466   6.365   7.716   6.771 -0.0550 -0.0289 -0.0540
    2TAL    C1027467   6.417   7.793   6.896  0.0743  0.3770  0.2317
    3HTM    C1127468   6.027   7.500   7.147 -0.0638  0.3195  0.1561
    3HTM    C1227469   6.022   7.466   7.279 -0.4789 -0.1761  0.0193
    3HTM    C1327470   6.128   7.378   7.320 -0.6114 -0.3350  0.0224
    3HTM    C1427471   6.214   7.345   7.219 -0.2974  0.0392  0.1613
    3HTM     S227472   6.167   7.423   7.064  0.1940  0.6262  0.3002
    4TAL    C1527473   6.157   7.365   7.468  0.4151  0.8116 -0.3015
    4TAL    C1627474   6.152   7.477   7.566  1.4388 -0.1586 -0.1533
    4TAL    C1727475   6.171   7.437   7.705 -0.6635  1.0778  0.4141
    4TAL    C1827476   6.135   7.531   7.809 -0.1214 -0.5666  0.6068
    4TAL    C1927477   6.125   7.481   7.942 -0.2861  0.1496  0.2263
    4TAL    C2027478   6.043   7.558   8.041 -0.2672 -0.2269  0.0014
    5HTM    C2127479   6.308   7.234   7.217 -0.0681 -0.3329 -0.0070
    5HTM    C2227480   6.424   7.232   7.287  0.0170 -0.3303 -0.1469
    5HTM    C2327481   6.503   7.113   7.267  0.0225 -0.3035 -0.2847
    5HTM    C2427482   6.446   7.024   7.180 -0.0587 -0.2855 -0.2500
    5HTM     S327483   6.288   7.085   7.118 -0.1491 -0.3013 -0.0390
    6TAL    C2527484   6.627   7.091   7.349  0.2549  0.4659 -0.2555
    6TAL    C2627485   6.735   7.197   7.350  0.2568  0.5701  0.1463
    6TAL    C2727486   6.835   7.176   7.468  0.1265  0.1634  1.0406
    6TAL    C2827487   6.900   7.315   7.500  0.4436 -0.0085  0.5392
    6TAL    C2927488   6.976   7.321   7.631 -0.9920 -0.3638  0.3152
    6TAL    C3027489   7.076   7.436   7.622 -1.2320 -0.6172 -0.0258
    7HTM    C3127490   6.492   6.901   7.119  0.0719  0.0254 -0.2887
    7HTM    C3227491   6.469   6.851   6.995  0.0702 -0.1866 -0.2025
    7HTM    C3327492   6.531   6.722   6.973  0.0529 -0.2350  0.0212
    7HTM    C3427493   6.601   6.676   7.080  0.0419 -0.0599  0.1056
    7HTM     S427494   6.594   6.791   7.219  0.0521  0.1817 -0.0926
    8TAL    C3527495   6.522   6.641   6.848  0.0649  0.3105  1.0687
    8TAL    C3627496   6.485   6.710   6.719  0.6014 -0.5093  0.3763
    8TAL    C3727497   6.358   6.805   6.710 -0.7830  0.4728  0.6320
    8TAL    C3827498   6.215   6.750   6.748 -0.8892 -0.2453  0.4366
    8TAL    C3927499   6.122   6.860   6.782  0.7870 -0.2597  0.3217
    8TAL    C4027500   6.007   6.805   6.865 -1.0337 -0.8325  0.0436
    9HTM    C4127501   6.658   6.549   7.111  0.0741  0.4271 -0.2798
    9HTM    C4227502   6.642   6.478   7.226  0.8510  0.7498  0.0421
    9HTM    C4327503   6.683   6.340   7.215  1.0058  0.7797  0.2301
    9HTM    C4427504   6.730   6.307   7.092  0.3470  0.4798  0.0514
    9HTM     S527505   6.726   6.448   6.979 -0.5268  0.1336 -0.3716
   10TAL    C4527506   6.634   6.233   7.321  0.5846 -0.5811  0.4274
   10TAL    C4627507   6.651   6.275   7.464 -0.0252  0.1492  0.8794
   10TAL    C4727508   6.763   6.205   7.534 -0.0337 -0.5151  0.6923
   10TAL    C4827509   6.789   6.250   7.681 -0.2042  0.5591  0.5145
   10TAL    C4927510   6.861   6.146   7.768 -0.7691  0.3393 -0.3396
   10TAL    C5027511   6.879   6.220   7.906  0.5746 -0.4284  0.4082
   11HTM    C5127512   6.756   6.171   7.043 -0.2181 -0.1388  0.3670
   11HTM    C5227513   6.877   6.124   7.002 -0.3966 -0.0440 -0.2959
   11HTM    C5327514   6.870   5.995   6.938 -0.7335  0.3066 -0.9867
   11HTM    C5427515   6.743   5.944   6.930 -0.8118  0.4791 -0.8509
   11HTM     S627516   6.622   6.056   7.004 -0.4635  0.2101  0.1681
   12TAL    C5527517   6.982   5.922   6.872 -0.1149  0.9215  0.3170
   12TAL    C5627518   7.107   5.896   6.953 -1.3900  0.7079  0.0923
   12TAL    C5727519   7.217   5.807   6.893  0.1698  0.0246 -0.9338
   12TAL    C5827520   7.354   5.800   6.972  0.4787  0.1459  0.0027
   12TAL    C5927521   7.459   5.700   6.937  0.3046 -0.1673  0.0101
   12TAL    C6027522   7.431   5.549   6.966 -0.1131 -0.9992 -0.2476
   13HTM    C6127523   6.692   5.817   6.901  0.5336 -0.2619 -0.9229
   13HTM    C6227524   6.648   5.766   6.783  1.0777 -0.7080 -0.9383
   13HTM    C6327525   6.610   5.627   6.790  0.8128 -0.6185 -0.5273
   13HTM    C6427526   6.625   5.572   6.914  0.0669 -0.1043 -0.1982
   13HTM     S727527   6.688   5.693   7.032 -0.3621  0.3102 -0.3838
   14TAL    C6527528   6.543   5.585   6.663 -0.2895 -1.1120 -0.6344
   14TAL    C6627529   6.596   5.460   6.597  0.1997  0.3276 -0.3083
   14TAL    C6727530   6.507   5.424   6.477  0.6666  0.2846  0.6317
   14TAL    C6827531   6.551   5.291   6.418  0.2908  0.0822 -0.6375
   14TAL    C6927532   6.461   5.190   6.365  0.4878  1.1373 -0.3597
   14TAL    C7027533   6.315   5.219   6.318 -0.3168 -0.7545 -0.0682
   15HTM    C7127534   6.635   5.433   6.956 -0.4734 -0.1667 -0.2481
   15HTM    C7227535   6.744   5.364   7.000 -0.4774  0.4005  0.6973
   15HTM    C7327536   6.718   5.225   7.025 -0.1072  0.3918  1.0494
   15HTM    C7427537   6.589   5.187   7.000  0.1790 -0.1817  0.3730
   15HTM     S827538   6.490   5.326   6.942  0.0018 -0.7603 -0.7705
   16TAL    C7527539   6.820   5.134   7.098  0.6422 -0.4192  0.4166
   16TAL    C7627540   6.946   5.185   7.162 -0.5363  0.6739  0.8085
   16TAL    C7727541   7.024   5.077   7.230  0.0539  0.6489 -0.1542
   16TAL    C7827542   7.176   5.082   7.247 -0.5106  0.3916 -0.1150
   16TAL    C7927543   7.235   4.942   7.293 -0.4810 -0.5924 -1.0329
   16TAL    C8027544   7.386   4.936   7.294 -0.4171  0.3471  0.4055
   17HTM    C8127545   6.523   5.054   7.000  0.4274  0.2982  0.5552
   17HTM    C8227546   6.417   5.024   6.920  0.3085  1.1125  0.3814
   17HTM    C8327547   6.365   4.891   6.941 -0.2738  1.2313 -0.2279
   17HTM    C8427548   6.432   4.821   7.037 -0.5990  0.5078 -0.5186
   17HTM     S927549   6.567   4.917   7.108 -0.1918 -0.3872 -0.0418
   18TAL    C8527550   6.249   4.834   6.868 -0.4432 -0.2103  0.1366
   18TAL    C8627551   6.235   4.870   6.726  1.2517 -0.5163  0.5686
   18TAL    C8727552   6.226   4.742   6.642  0.5039 -0.5996 -0.2473
   18TAL    C8827553   6.156   4.764   6.507  0.1390  0.0366 -0.4108
   18TAL    C8927554   6.035   4.677   6.487 -0.0328 -0.0460  0.0618
   18TAL    C9027555   5.967   4.695   6.349 -0.3938  0.6363  0.0265
   19HTM    C9127556   6.435   4.699   7.111 -0.4702 -0.1578  0.4304
   19HTM    C9227557   6.450   4.573   7.059  0.2316 -0.2625  0.8616
   19HTM    C9327558   6.432   4.468   7.156  0.9857 -0.0380  1.2605
   19HTM    C9427559   6.403   4.514   7.282  0.8590  0.2379  1.1337
   19HTM    S1027560   6.397   4.694   7.287 -0.2313  0.2356  0.4953
   20TAL    C9527561   6.452   4.327   7.110  0.2787 -0.4443 -0.5807
   20TAL    C9627562   6.342   4.226   7.065 -0.4717 -0.1540 -0.3027
   20TAL    C9727563   6.265   4.160   7.178  0.1403  0.2816  0.5663
   20TAL    C9827564   6.157   4.059   7.133 -0.7413  0.3726  0.1251
   20TAL    C9927565   6.048   4.011   7.229  0.0389  0.0950 -0.9708
   20TAL   C10027566   5.957   3.911   7.163  0.1028  0.2470  0.0948
   21HTM   C10127567   6.353   4.441   7.394 -0.0285  0.2284 -0.0054
   21HTM   C10227568   6.223   4.428   7.432 -0.2714 -0.2357 -0.9347
   21HTM   C10327569   6.202   4.330   7.535 -0.6763 -0.3622 -1.1320
   21HTM   C10427570   6.316   4.268   7.576 -0.7419  0.0050 -0.3532
   21HTM    S1127571   6.460   4.329   7.486 -0.2943  0.5435  0.6979
   22TAL   C10527572   6.062   4.312   7.611 -0.4554  0.2372  0.4698
   22TAL   C10627573   5.997   4.441   7.676 -0.4518 -0.4904 -0.2786
   22TAL   C10727574   6.060   4.502   7.801  0.0738  0.2145  0.8263
   22TAL   C10827575   6.098   4.406   7.911  0.2644 -0.7925 -0.0538
   22TAL   C10927576   6.161   4.510   8.014 -0.2422  0.7191 -0.3948
   22TAL   C11027577   6.216   4.451   8.149  0.1384 -0.3014  0.1994
   23HTM   C11127578   6.347   4.160   7.676 -0.3145  0.0815 -0.5088
   23HTM   C11227579   6.370   4.172   7.810 -0.1862  0.4729 -0.5646
   23HTM   C11327580   6.412   4.049   7.873 -0.0093  0.6833 -0.2679
   23HTM   C11427581   6.421   3.944   7.787 -0.0027  0.4524  0.0139
   23HTM    S1227582   6.376   3.991   7.619 -0.2209 -0.0525 -0.0743
   24TAL   C11527583   6.437   4.033   8.017  0.1902 -0.2657 -0.0378
   24TAL   C11627584   6.317   4.092   8.092  0.4508  0.2338  0.6276
   24TAL   C11727585   6.317   4.086   8.238 -0.4754 -0.8843  0.6850
   24TAL   C11827586   6.213   3.988   8.297 -1.3155  0.5638 -0.0808
   24TAL   C11927587   6.063   4.030   8.268  0.3410  1.3822 -0.2010
   24TAL   C12027588   5.966   3.910   8.299 -0.9688 -0.1094  0.7358
   25HTM   C12127589   6.499   3.825   7.794 -0.1704 -0.1792 -0.2929
   25HTM   C12227590   6.457   3.707   7.847 -0.0714 -0.2183 -0.3027
   25HTM   C12327591   6.561   3.607   7.854 -0.0194 -0.1739 -0.4284
   25HTM   C12427592   6.682   3.650   7.807 -0.0787 -0.1009 -0.5143
   25HTM    S1327593   6.673   3.821   7.749 -0.2056 -0.0824 -0.4426
   26TAL   C12527594   6.530   3.466   7.894  0.4958 -0.8931  0.1270
   26TAL   C12627595   6.403   3.427   7.967 -0.3093 -0.0290 -0.4768
   26TAL   C12727596   6.397   3.288   8.028 -1.7077 -0.2912 -0.1791
   26TAL   C12827597   6.426   3.155   7.954 -0.0758 -0.9833 -0.5001
   26TAL   C12927598   6.310   3.067   7.937 -0.1839  0.5486  0.4376
   26TAL   C13027599   6.379   2.929   7.931  0.7073 -0.5627  0.1965
   27HTM   C13127600   6.813   3.582   7.822  0.5331 -0.0007  0.1563
   27HTM   C13227601   6.932   3.634   7.782  0.7329 -0.5019  0.0762
   27HTM   C13327602   7.045   3.549   7.807  0.3830 -1.0172 -0.0734
   27HTM   C13427603   7.012   3.431   7.866 -0.0837 -0.9090 -0.1074
   27HTM    S1427604   6.835   3.419   7.896 -0.1177 -0.1419  0.0481
   28TAL   C13527605   7.192   3.598   7.769 -0.0160  0.9398 -0.0709
   28TAL   C13627606   7.209   3.686   7.644 -0.1447 -0.8660  0.7008
   28TAL   C13727607   7.340   3.768   7.637  0.0982 -0.0002 -0.0126
   28TAL   C13827608   7.337   3.889   7.725 -0.3553 -0.4726 -0.8559
   28TAL   C13927609   7.414   4.020   7.678  0.7643  0.1720  1.2764
   28TAL   C14027610   7.538   4.015   7.592  0.3998  0.8642  0.8616
   29HTM   C14127611   7.103   3.327   7.909 -0.5625 -0.8017 -0.0304
   29HTM   C14227612   7.122   3.274   8.033 -0.5838 -0.8414 -0.0441
   29HTM   C14327613   7.231   3.179   8.039 -0.0749 -0.2653  0.1111
   29HTM   C14427614   7.293   3.160   7.920  0.3345  0.2138  0.2428
   29HTM    S1527615   7.220   3.261   7.790  0.1073 -0.0276  0.1809
   30TAL   C14527616   7.259   3.096   8.165  0.2391  0.8446 -0.2316
   30TAL   C14627617   7.175   3.126   8.294 -0.7186  0.2338 -0.3743
   30TAL   C14727618   7.144   2.998   8.391  0.5260 -0.3355 -0.9980
   30TAL   C14827619   6.996   2.998   8.450  0.4708  0.1361 -0.3028
   30TAL   C14927620   6.960   2.874   8.526 -0.8098  0.2841  0.5427
   30TAL   C15027621   6.824   2.896   8.585  0.3119  0.1762  0.3566
   31HTM   C15127622   7.397   3.073   7.858 -0.0951 -0.2439 -0.0055
   31HTM   C15227623   7.532   3.088   7.867 -0.1019 -0.3573  0.3009
   31HTM   C15327624   7.607   2.971   7.828 -0.1107 -0.4232  0.4797
   31HTM   C15427625   7.528   2.867   7.789 -0.1106 -0.3602  0.3097
   31HTM    S1627626   7.353   2.908   7.799 -0.0994 -0.2114 -0.0924
   32TAL   C15527627   7.757   2.958   7.857 -0.7021  0.4758 -0.2604
   32TAL   C15627628   7.798   2.937   8.004  0.6265 -0.2022  0.0503
   32TAL   C15727629   7.728   2.844   8.106  0.0520 -0.9505  0.3163
   32TAL   C15827630   7.782   2.879   8.249  0.6786  0.3968  1.4074
   32TAL   C15927631   7.763   2.781   8.353  0.4912 -0.7468  0.7929
   32TAL   C16027632   7.820   2.820   8.481  0.4376 -0.7886 -0.1955
   33HTM   C16127633   7.564   2.737   7.728  0.1674  0.0527 -0.0799
   33HTM   C16227634   7.647   2.716   7.622  0.2308  0.0599 -0.0317
   33HTM   C16327635   7.660   2.577   7.585  0.6001  0.0182  0.2475
   33HTM   C16427636   7.587   2.493   7.663  0.8183 -0.0207  0.4122
   33HTM    S1727637   7.495   2.582   7.790  0.5724 -0.0077  0.2259
   34TAL   C16527638   7.746   2.546   7.473 -0.7399  1.1333  0.2476
   34TAL   C16627639   7.701   2.507   7.339 -0.2347 -0.1227 -0.5029
   34TAL   C16727640   7.639   2.627   7.267  0.0149 -0.0305 -0.5741
   34TAL   C16827641   7.573   2.614   7.130  0.4542 -0.1437 -1.5555
   34TAL   C16927642   7.420   2.584   7.149  0.3627  0.7439  1.4080
   34TAL   C17027643   7.371   2.472   7.241 -0.7657 -0.5711 -0.7713
   35HTM   C17127644   7.551   2.348   7.667 -0.0944 -0.6861  0.0894
   35HTM   C17227645   7.549   2.257   7.566 -0.5022 -0.7782  0.1789
   35HTM   C17327646   7.524   2.122   7.610 -0.8017 -0.6709  0.3458
   35HTM   C17427647   7.508   2.110   7.745 -0.6222 -0.4969  0.3836
   35HTM    S1827648   7.523   2.270   7.827 -0.0568 -0.4549  0.2098
   36TAL   C17527649   7.529   2.000   7.525  0.8258  1.0933 -0.1105
   36TAL   C17627650   7.410   1.955   7.435  0.0784 -0.3100  0.1673
   36TAL   C17727651   7.388   2.053   7.318 -0.1659 -0.5536  0.7613
   36TAL   C17827652   7.262   2.030   7.225  0.1566 -0.4216 -0.4135
   36TAL   C17927653   7.222   2.155   7.141 -0.5845  0.8708  0.4298
   36TAL   C18027654   7.129   2.118   7.036 -0.5725  0.1156 -0.0322
   37HTM   C18127655   7.506   1.984   7.823 -0.1071  0.3812  0.5532
   37HTM   C18227656   7.395   1.913   7.859 -0.3232  0.9134  0.9480
   37HTM   C18327657   7.424   1.788   7.924 -0.6888  0.7134  0.7370
   37HTM   C18427658   7.558   1.763   7.937 -0.7511  0.0285  0.1808
   37HTM    S1927659   7.657   1.897   7.868 -0.3500 -0.4203 -0.1214
   38TAL   C18527660   7.309   1.690   7.947 -0.5409 -0.1078  0.6329
   38TAL   C18627661   7.278   1.576   7.838 -0.6373 -0.2754 -0.2684
   38TAL   C18727662   7.379   1.535   7.731 -0.6799  0.9423  0.3826
   38TAL   C18827663   7.340   1.407   7.651 -0.7233 -0.0465 -1.3115
   38TAL   C18927664   7.334   1.275   7.725 -0.0354 -0.8940 -0.3649
   38TAL   C19027665   7.212   1.236   7.802 -0.5307 -0.3427 -0.1488
   39HTM   C19127666   7.631   1.656   7.997  0.4034 -0.4712 -0.2297
   39HTM   C19227667   7.766   1.640   7.989  0.4518 -0.4981  0.5548
   39HTM   C19327668   7.812   1.512   8.037  0.1878 -0.3939  1.1017
   39HTM   C19427669   7.711   1.431   8.081 -0.0620 -0.2874  0.7338
   39HTM    S2027670   7.550   1.510   8.065  0.0175 -0.3108 -0.3396
   40TAL   C19527671   7.959   1.470   8.016  1.4253  0.2734  0.3504
   40TAL   C19627672   8.069   1.550   8.080 -0.8455 -0.0523 -0.1420
   40TAL   C19727673   8.171   1.576   7.970 -0.2353 -0.6687 -0.5132
   40TAL   C19827674   8.298   1.645   8.012  0.0479  0.0228  0.1544
   40TAL   C19927675   8.303   1.782   8.084 -0.3961  0.0101 -0.1909
   40TAL   C20027676   8.250   1.907   8.026  0.5259 -0.7435 -0.8296
   41HTM   C20127677   7.722   1.301   8.133 -0.1396  0.2415  0.3990
   41HTM   C20227678   7.639   1.198   8.099 -0.2103  0.2733  0.4771
   41HTM   C20327679   7.660   1.078   8.176 -0.0333  0.1932  0.3037
   41HTM   C20427680   7.760   1.089   8.268  0.1725  0.1002  0.0937
   41HTM    S2127681   7.835   1.253   8.265  0.1585  0.1067  0.0984
   42TAL   C20527682   7.567   0.975   8.170 -0.1440  0.7504  0.7753
   42TAL   C20627683   7.435   0.990   8.086  0.9046  0.1927 -1.3962
   42TAL   C20727684   7.299   0.945   8.148  0.5408 -0.1079 -0.7841
   42TAL   C20827685   7.191   0.932   8.047 -0.2209 -0.5420  0.1297
   42TAL   C20927686   7.175   0.798   7.998 -0.6054 -1.1866  0.0952
   42TAL   C21027687   7.079   0.794   7.882 -0.3143 -0.4834  0.8794
   43HTM   C21127688   7.801   0.995   8.371 -1.3100 -0.3397  0.4650
   43HTM   C21227689   7.809   1.026   8.503 -1.6117 -1.0025  0.6435
   43HTM   C21327690   7.858   0.918   8.585 -0.7411 -1.0675  0.0584
   43HTM   C21427691   7.887   0.805   8.514  0.2244 -0.4543 -0.5657
   43HTM    S2227692   7.855   0.826   8.338  0.1081  0.2585 -0.4625
   44TAL   C21527693   7.892   0.956   8.726  0.4801 -0.7260  0.1874
   44TAL   C21627694   7.778   0.923   8.820  0.0864 -0.0203 -0.7106
   44TAL   C21727695   7.807   0.940   8.976 -0.0276  0.3043  0.1492
   44TAL   C21827696   7.827   1.061   9.062 -0.3224 -1.2578 -0.5245
   44TAL   C21927697   7.858   1.038   9.210  0.1178 -0.4072  0.4305
   44TAL   C22027698   7.936   1.161   9.268  0.8738  0.2801  0.2630
   45HTM   C22127699   7.915   0.676   8.568 -0.2990 -0.0965 -0.3317
   45HTM   C22227700   7.833   0.567   8.565 -0.3614 -0.0463 -0.4630
   45HTM   C22327701   7.891   0.449   8.624 -0.4345 -0.1466 -0.5915
   45HTM   C22427702   8.018   0.467   8.671 -0.4276 -0.2732 -0.5579
   45HTM    S2327703   8.073   0.637   8.646 -0.3278 -0.2756 -0.3607
   46TAL   C22527704   7.816   0.317   8.657  0.5087  0.2079 -0.5686
   46TAL   C22627705   7.700   0.324   8.764  0.3564  0.1247 -0.4755
   46TAL   C22727706   7.753   0.333   8.915 -0.8896  0.7187 -0.0355
   46TAL   C22827707   7.802   0.197   8.964 -0.1580  0.2292  0.2429
   46TAL   C22927708   7.846   0.221   9.118  0.5368 -1.1159  0.4426
   46TAL   C23027709   7.727   0.230   9.216 -0.2764 -0.7460  0.3303
   47HTM   C23127710   8.104   0.390   8.761  0.2298  0.0239 -0.5103
   47HTM   C23227711   8.173   0.448   8.864  0.3548  0.1415 -0.6576
   47HTM   C23327712   8.235   0.352   8.953  0.3078  0.2376 -0.5200
   47HTM   C23427713   8.213   0.222   8.917  0.1471  0.1932 -0.2678
   47HTM    S2427714   8.113   0.210   8.768  0.0418  0.0253 -0.1842
   48TAL   C23527715   8.311   0.370   9.080 -0.5411 -0.1540 -0.8337
   48TAL   C23627716   8.337   0.521   9.121  0.9298  0.4583  0.6853
   48TAL   C23727717   8.223   0.602   9.193 -0.9995  0.7609  1.0508
   48TAL   C23827718   8.269   0.698   9.300 -0.0692  0.1428  0.8455
   48TAL   C23927719   8.136   0.751   9.350  0.5412 -0.3160 -1.3349
   48TAL   C24027720   8.162   0.828   9.474  0.1156 -0.9290  0.2475
    1HTM     C127721   0.129   3.389   3.546 -0.1925  0.2167 -0.1969
    1HTM     C227722   0.127   3.452   3.425 -0.3058  0.1191 -0.2471
    1HTM     C327723   0.233   3.548   3.409 -0.3462  0.1369 -0.4080
    1HTM     C427724   0.316   3.558   3.517 -0.2638  0.2480 -0.4804
    1HTM     S127725   0.266   3.446   3.649 -0.1277  0.3395 -0.3502
    2TAL     C527726   0.236   3.626   3.283  0.2301 -0.6617  1.9849
    2TAL     C627727   0.266   3.560   3.147  0.2163 -0.0306 -0.0517
    2TAL     C727728   0.405   3.523   3.119 -1.0353  0.0244 -0.4739
    2TAL     C827729   0.417   3.478   2.983 -0.6148  0.1027  1.1701
    2TAL     C927730   0.573   3.456   2.952  1.0369 -0.5341  1.0497
    2TAL    C1027731   0.627   3.341   3.031 -1.4523  0.2482 -1.2038
    3HTM    C1127732   0.440   3.632   3.538  0.1332 -0.2034 -0.0187
    3HTM    C1227733   0.513   3.622   3.653  0.7714 -0.5886 -0.4447
    3HTM    C1327734   0.635   3.697   3.650  0.7112 -0.4995 -0.8316
    3HTM    C1427735   0.656   3.765   3.533  0.0272 -0.0464 -0.7007
    3HTM     S227736   0.521   3.738   3.417 -0.5989  0.3056 -0.0737
    4TAL    C1527737   0.720   3.692   3.775 -0.5116 -0.2452 -0.0852
    4TAL    C1627738   0.696   3.751   3.908 -0.3168 -0.0853 -0.4425
    4TAL    C1727739   0.697   3.904   3.917 -0.0988 -0.4919  1.1393
    4TAL    C1827740   0.629   3.979   4.028 -0.7261 -0.4420  0.0774
    4TAL    C1927741   0.705   3.972   4.164 -0.2158  0.9180  0.8330
    4TAL    C2027742   0.659   4.073   4.260  0.8737  0.6652  0.4753
    5HTM    C2127743   0.776   3.837   3.483  0.4561 -0.7654  0.3414
    5HTM    C2227744   0.818   3.844   3.353  0.4486 -1.2119  0.3119
    5HTM    C2327745   0.949   3.900   3.337  0.3420 -1.0200  0.0942
    5HTM    C2427746   1.008   3.935   3.455  0.2683 -0.4271 -0.0422
    5HTM     S327747   0.902   3.901   3.596  0.3281 -0.0626  0.0947
    6TAL    C2527748   1.020   3.900   3.196 -0.4527 -0.4924  0.5280
    6TAL    C2627749   0.951   3.868   3.072 -0.1871 -0.0545  0.5216
    6TAL    C2727750   0.921   3.711   3.041  0.3305 -0.3386 -0.4237
    6TAL    C2827751   0.921   3.687   2.890  0.2908 -0.6178 -0.4953
    6TAL    C2927752   0.901   3.539   2.852  0.1746 -0.7464  0.6422
    6TAL    C3027753   0.862   3.554   2.703 -0.8420 -0.1356 -0.2355
    7HTM    C3127754   1.135   4.004   3.480 -0.6654  0.6901 -0.3847
    7HTM    C3227755   1.259   3.973   3.433 -0.8096  0.7212 -0.7912
    7HTM    C3327756   1.363   4.060   3.481 -0.5625  0.2829 -0.5215
    7HTM    C3427757   1.318   4.157   3.566 -0.2299 -0.0826  0.0904
    7HTM     S427758   1.140   4.146   3.590 -0.2028  0.1000  0.3760
    8TAL    C3527759   1.504   4.022   3.443 -0.9541  1.4342 -1.5038
    8TAL    C3627760   1.547   4.047   3.306 -0.0707  0.2739  0.1904
    8TAL    C3727761   1.686   3.993   3.279  0.0804 -0.0275 -0.3724
    8TAL    C3827762   1.753   4.061   3.167 -0.0563 -0.6953  0.0080
    8TAL    C3927763   1.892   4.022   3.118  0.1052 -0.3629 -0.5839
    8TAL    C4027764   1.912   3.877   3.067  1.2629 -0.7392  1.0737
    9HTM    C4127765   1.408   4.250   3.641  0.0712  0.0385  0.0720
    9HTM    C4227766   1.382   4.279   3.772  0.2823  0.0708  0.1074
    9HTM    C4327767   1.495   4.334   3.843  0.5084 -0.2686  0.0135
    9HTM    C4427768   1.607   4.346   3.766  0.4699 -0.5596 -0.0935
    9HTM     S527769   1.578   4.290   3.597  0.1423 -0.4267 -0.0839
   10TAL    C4527770   1.477   4.374   3.996 -0.1778  0.3936  0.6949
   10TAL    C4627771   1.349   4.349   4.080 -0.1634 -0.0174 -0.0995
   10TAL    C4727772   1.283   4.213   4.068 -0.2549 -0.5007 -0.2562
   10TAL    C4827773   1.245   4.127   4.189 -0.1843  0.5153  0.6588
   10TAL    C4927774   1.167   4.001   4.151  0.0892 -0.3971 -0.5711
   10TAL    C5027775   1.245   3.873   4.190  0.0312  0.7263 -1.0831
   11HTM    C5127776   1.725   4.417   3.807 -0.2285  0.0547 -0.2317
   11HTM    C5227777   1.780   4.494   3.708  0.2504 -0.5130 -0.4145
   11HTM    C5327778   1.888   4.577   3.753  0.3956 -0.6613 -0.4889
   11HTM    C5427779   1.916   4.564   3.886  0.0274 -0.2069 -0.3628
   11HTM     S627780   1.807   4.445   3.965 -0.5356  0.4488 -0.1386
   12TAL    C5527781   1.966   4.675   3.659 -0.3204 -0.5456  0.0003
   12TAL    C5627782   2.079   4.615   3.582  0.1831  0.6995  0.3203
   12TAL    C5727783   2.135   4.693   3.471  0.4321  0.8136 -0.0733
   12TAL    C5827784   2.254   4.639   3.396  0.3307  0.8043 -0.2254
   12TAL    C5927785   2.396   4.601   3.452  0.5200 -0.5138 -0.0681
   12TAL    C6027786   2.452   4.701   3.551 -0.0176 -0.7553 -0.2945
   13HTM    C6127787   2.021   4.608   3.972 -0.2198 -0.3763  0.3144
   13HTM    C6227788   2.115   4.705   3.960 -0.2246 -0.3910  0.1549
   13HTM    C6327789   2.200   4.718   4.075 -0.0209 -0.4108  0.0080
   13HTM    C6427790   2.171   4.630   4.175  0.1393 -0.4113  0.0554
   13HTM     S727791   2.032   4.524   4.131  0.0445 -0.3865  0.2912
   14TAL    C6527792   2.315   4.801   4.068 -0.6250 -0.3314 -0.2621
   14TAL    C6627793   2.443   4.748   3.999 -0.1562 -1.1966  0.7640
   14TAL    C6727794   2.567   4.841   4.027 -0.3451 -0.4799  0.0815
   14TAL    C6827795   2.659   4.897   3.920  0.4987 -0.6421  0.0985
   14TAL    C6927796   2.729   5.034   3.947  1.0339  1.0925 -0.3033
   14TAL    C7027797   2.776   5.113   3.835 -0.1911 -0.7167  0.5781
   15HTM    C7127798   2.221   4.617   4.315 -0.5569  0.0456  0.8462
   15HTM    C7227799   2.159   4.594   4.434 -0.0666  0.6006  1.2208
   15HTM    C7327800   2.250   4.570   4.543  0.3852  0.7070  0.8720
   15HTM    C7427801   2.382   4.576   4.507  0.2393  0.2331  0.2317
   15HTM     S827802   2.400   4.611   4.331 -0.4856 -0.3893  0.0176
   16TAL    C7527803   2.215   4.534   4.687 -0.0868 -0.7594 -0.4999
   16TAL    C7627804   2.104   4.613   4.763  0.6161 -0.1950  0.6184
   16TAL    C7727805   2.130   4.760   4.786 -0.5082  0.5217 -0.3623
   16TAL    C7827806   2.020   4.854   4.788  0.5449  0.5934 -0.0347
   16TAL    C7927807   1.906   4.842   4.688  0.2612 -0.9734 -0.3378
   16TAL    C8027808   1.828   4.972   4.694 -0.5948  0.1509  0.5629
   17HTM    C8127809   2.498   4.581   4.592  0.4304  0.0738 -0.3232
   17HTM    C8227810   2.561   4.696   4.628  0.9497 -0.0322 -0.8558
   17HTM    C8327811   2.685   4.673   4.699  0.8810 -0.2621 -0.8062
   17HTM    C8427812   2.715   4.542   4.716  0.3094 -0.3313 -0.2358
   17HTM     S927813   2.590   4.435   4.644 -0.1905 -0.1096  0.2870
   18TAL    C8527814   2.762   4.794   4.757 -0.8093  0.5894 -0.1606
   18TAL    C8627815   2.856   4.863   4.655  0.4737 -1.1095  0.8790
   18TAL    C8727816   2.952   4.972   4.714  0.0910 -0.0064  0.6341
   18TAL    C8827817   3.051   4.897   4.812 -1.1181 -0.4872  0.2073
   18TAL    C8927818   3.160   4.998   4.852 -0.3978 -0.3435  0.2713
   18TAL    C9027819   3.267   5.016   4.746  0.2621  1.0829  0.0739
   19HTM    C9127820   2.832   4.474   4.766 -0.0591 -0.6772 -0.8087
   19HTM    C9227821   2.836   4.385   4.869 -0.2753 -0.5070 -0.6505
   19HTM    C9327822   2.970   4.348   4.908 -0.3525 -0.2949 -0.1780
   19HTM    C9427823   3.067   4.409   4.835 -0.1950 -0.3036  0.0240
   19HTM    S1027824   2.998   4.519   4.710  0.0649 -0.5824 -0.3701
   20TAL    C9527825   2.997   4.234   5.012  0.4258 -0.6807 -1.1065
   20TAL    C9627826   2.904   4.202   5.132 -0.6379  0.7062 -0.1943
   20TAL    C9727827   2.960   4.086   5.224 -0.5063 -0.9615  0.3401
   20TAL    C9827828   3.080   4.121   5.323  0.0501  0.3574 -0.1058
   20TAL    C9927829   3.217   4.146   5.259  0.4595 -0.5448 -0.8777
   20TAL   C10027830   3.303   4.221   5.364 -0.3033  0.3897  0.3216
   21HTM   C10127831   3.211   4.416   4.849  0.0097  0.1032  0.2951
   21HTM   C10227832   3.294   4.309   4.863  0.1411  0.0679 -0.6003
   21HTM   C10327833   3.426   4.343   4.911  0.3196 -0.1042 -0.9593
   21HTM   C10427834   3.443   4.477   4.933  0.3242 -0.2000 -0.3377
   21HTM    S1127835   3.293   4.570   4.895  0.1018 -0.0796  0.7579
   22TAL   C10527836   3.517   4.226   4.931  0.5102  0.0086 -0.1540
   22TAL   C10627837   3.659   4.227   4.987  0.3146  0.2385  0.4126
   22TAL   C10727838   3.704   4.078   5.032 -0.1280 -0.3050 -1.0639
   22TAL   C10827839   3.834   4.073   5.107  0.2871  0.0934 -1.1238
   22TAL   C10927840   3.856   4.130   5.259  0.3421  0.8642  0.9405
   22TAL   C11027841   3.830   4.010   5.351 -0.6733  0.5214  0.8587
   23HTM   C11127842   3.559   4.553   4.966 -0.4389  0.3375  0.3208
   23HTM   C11227843   3.626   4.646   4.891  0.1221 -0.2179  0.1135
   23HTM   C11327844   3.736   4.708   4.961  0.3818 -0.5878  0.0386
   23HTM   C11427845   3.753   4.663   5.088  0.0189 -0.3144  0.1888
   23HTM    S1227846   3.631   4.537   5.131 -0.6845  0.4372  0.4383
   24TAL   C11527847   3.804   4.828   4.888 -0.5346  0.9205  0.3864
   24TAL   C11627848   3.729   4.956   4.837 -0.2357 -1.3577 -0.1490
   24TAL   C11727849   3.715   5.068   4.925 -0.1625 -0.2678  0.2202
   24TAL   C11827850   3.693   5.048   5.072  0.4405  0.7986 -0.4802
   24TAL   C11927851   3.649   5.180   5.137 -0.5643  0.2472 -0.4903
   24TAL   C12027852   3.613   5.130   5.276 -1.1962  0.2016  0.0875
   25HTM   C12127853   3.849   4.700   5.191  0.4478  0.2155 -0.6788
   25HTM   C12227854   3.890   4.627   5.299  0.0975 -0.0442 -0.7190
   25HTM   C12327855   3.990   4.692   5.379 -0.2922 -0.1558 -0.1259
   25HTM   C12427856   4.025   4.815   5.332 -0.2389  0.0187  0.3666
   25HTM    S1327857   3.934   4.859   5.183  0.3115  0.3401  0.1175
   26TAL   C12527858   4.063   4.613   5.478 -1.2800 -0.9338 -1.2376
   26TAL   C12627859   4.151   4.509   5.404 -0.6794  0.1565 -0.4056
   26TAL   C12727860   4.227   4.405   5.489  0.5207 -1.0320  0.8724
   26TAL   C12827861   4.351   4.348   5.421  0.0456  0.5154  1.1333
   26TAL   C12927862   4.317   4.281   5.286  0.1912  0.3202 -0.5065
   26TAL   C13027863   4.419   4.305   5.182  0.3456  0.4659 -0.1271
   27HTM   C13127864   4.104   4.920   5.393  0.1907 -0.1679 -0.2879
   27HTM   C13227865   4.195   4.913   5.494 -0.0876  0.0023 -0.0211
   27HTM   C13327866   4.256   5.039   5.526 -0.2116  0.0656 -0.0329
   27HTM   C13427867   4.212   5.143   5.450 -0.0279 -0.0564 -0.3087
   27HTM    S1427868   4.088   5.089   5.330  0.3187 -0.2622 -0.5767
   28TAL   C13527869   4.360   5.046   5.630 -0.7856  0.0980 -0.0079
   28TAL   C13627870   4.336   5.085   5.769  0.5649 -0.1205 -0.8398
   28TAL   C13727871   4.420   5.041   5.891 -0.4421  0.5787  0.9949
   28TAL   C13827872   4.570   5.050   5.878 -0.3508  0.4649  0.6510
   28TAL   C13927873   4.641   5.185   5.871  0.3641 -0.1504 -0.6193
   28TAL   C14027874   4.789   5.159   5.852  0.0710  0.9701 -0.3647
   29HTM   C14127875   4.221   5.286   5.468 -0.5206 -0.1631  0.8116
   29HTM   C14227876   4.134   5.381   5.510 -0.0529 -0.0608  1.6079
   29HTM   C14327877   4.195   5.510   5.534  0.3513 -0.1812  1.2550
   29HTM   C14427878   4.329   5.512   5.512  0.1922 -0.3752  0.1899
   29HTM    S1527879   4.389   5.351   5.457 -0.4862 -0.4214 -0.4553
   30TAL   C14527880   4.101   5.628   5.569 -0.0331  0.3607  0.1873
   30TAL   C14627881   4.129   5.727   5.686  0.1505  0.8707 -0.6624
   30TAL   C14727882   4.105   5.692   5.838  0.0180 -0.4618 -0.1371
   30TAL   C14827883   4.165   5.561   5.900  0.2943 -0.3238  0.1290
   30TAL   C14927884   4.250   5.594   6.026  0.3634 -0.5554 -0.8344
   30TAL   C15027885   4.404   5.606   5.994  0.0355  0.3364 -0.0424
   31HTM   C15127886   4.416   5.627   5.516 -0.1165  0.8956  0.3344
   31HTM   C15227887   4.532   5.632   5.587 -0.1154  1.3978  0.3005
   31HTM   C15327888   4.600   5.759   5.577 -0.3114  1.4619 -0.2828
   31HTM   C15427889   4.536   5.849   5.498 -0.4618  1.0083 -0.6937
   31HTM    S1627890   4.383   5.782   5.430 -0.3667  0.4608 -0.3735
   32TAL   C15527891   4.722   5.779   5.665 -0.4860 -1.5593 -0.4591
   32TAL   C15627892   4.675   5.775   5.813 -0.1263  0.7123 -0.2767
   32TAL   C15727893   4.745   5.870   5.924  0.8101  0.6099 -0.2993
   32TAL   C15827894   4.891   5.856   5.935 -0.8782  0.8452  0.3023
   32TAL   C15927895   4.939   5.738   6.021 -0.1045  0.7219  0.2422
   32TAL   C16027896   5.086   5.731   5.986  0.2599 -0.5307  0.3073
   33HTM   C16127897   4.572   5.980   5.449  0.3411 -0.1941 -0.3512
   33HTM   C16227898   4.509   6.056   5.355  0.2187  0.0292 -0.0900
   33HTM   C16327899   4.578   6.179   5.325  0.1059  0.1684  0.2134
   33HTM   C16427900   4.693   6.196   5.396  0.1421  0.0511  0.1836
   33HTM    S1727901   4.724   6.058   5.507  0.3230 -0.2463 -0.2331
   34TAL   C16527902   4.515   6.278   5.219 -0.8316  0.3761  0.2764
   34TAL   C16627903   4.366   6.301   5.234  0.8479 -0.0640 -0.2596
   34TAL   C16727904   4.311   6.437   5.172  0.0827  0.0168  0.3695
   34TAL   C16827905   4.342   6.468   5.019 -0.5256 -0.6246 -0.1399
   34TAL   C16927906   4.220   6.458   4.915 -0.1994 -0.0944  0.2596
   34TAL   C17027907   4.259   6.471   4.775 -0.7556 -0.9632  0.0864
   35HTM   C17127908   4.787   6.308   5.406  0.2632 -0.2562 -0.2849
   35HTM   C17227909   4.894   6.327   5.488 -0.1708  0.2033  0.1845
   35HTM   C17327910   4.978   6.437   5.450 -0.6230  0.7602  0.7297
   35HTM   C17427911   4.936   6.501   5.337 -0.5334  0.7251  0.6758
   35HTM    S1827912   4.785   6.428   5.271  0.1338 -0.0196 -0.0735
   36TAL   C17527913   5.106   6.465   5.531 -0.6080 -0.2944 -0.3130
   36TAL   C17627914   5.170   6.378   5.644  0.3679  0.7807 -0.5099
   36TAL   C17727915   5.097   6.390   5.777  0.8213  0.1273 -0.7650
   36TAL   C17827916   5.110   6.272   5.864  0.7060 -0.2052 -0.0080
   36TAL   C17927917   5.206   6.306   5.973 -0.4426  0.0801 -0.2232
   36TAL   C18027918   5.249   6.196   6.068  0.4995  1.2359 -0.8145
   37HTM   C18127919   4.987   6.614   5.277 -0.4383  0.5738 -0.2567
   37HTM   C18227920   4.954   6.660   5.153 -0.0873  0.6406 -0.3277
   37HTM   C18327921   5.029   6.776   5.113  0.3984  0.3524 -0.2710
   37HTM   C18427922   5.120   6.819   5.206  0.4177  0.0657 -0.1566
   37HTM    S1927923   5.117   6.715   5.353 -0.1807  0.1385 -0.1117
   38TAL   C18527924   5.011   6.833   4.978  0.9870 -0.3279  0.5208
   38TAL   C18627925   4.878   6.862   4.907  0.2684 -0.1701  0.7311
   38TAL   C18727926   4.804   6.975   4.973  1.0504 -0.0755  0.5207
   38TAL   C18827927   4.672   7.012   4.902 -0.3734  0.0606  0.2758
   38TAL   C18927928   4.628   7.149   4.978  1.0715 -0.1042  0.2753
   38TAL   C19027929   4.495   7.192   4.914 -1.3496  0.1684 -0.9540
   39HTM   C19127930   5.195   6.940   5.213 -0.3175 -0.3798 -0.8906
   39HTM   C19227931   5.309   6.949   5.287 -0.2992 -0.6210 -0.8870
   39HTM   C19327932   5.388   7.066   5.257 -0.4888 -0.3303 -0.2723
   39HTM   C19427933   5.334   7.146   5.161 -0.6517  0.1326  0.1931
   39HTM    S2027934   5.178   7.079   5.099 -0.5777  0.2380 -0.1115
   40TAL   C19527935   5.514   7.097   5.339  0.4666 -0.5976 -1.2114
   40TAL   C19627936   5.573   7.002   5.451 -1.4625  0.4164  0.1502
   40TAL   C19727937   5.675   7.075   5.534  0.2027 -0.1508  0.3141
   40TAL   C19827938   5.745   6.974   5.641  0.0342 -0.5928  0.2624
   40TAL   C19927939   5.881   7.001   5.714 -0.0022  0.4887  0.4772
   40TAL   C20027940   5.896   7.132   5.767 -0.1572 -0.7935 -0.9388
   41HTM   C20127941   5.373   7.281   5.114 -0.2808  0.0590 -0.2789
   41HTM   C20227942   5.497   7.331   5.090 -0.2584 -0.1712 -0.6481
   41HTM   C20327943   5.498   7.469   5.049 -0.1394 -0.2434 -0.8982
   41HTM   C20427944   5.374   7.525   5.043 -0.0709 -0.0684 -0.7197
   41HTM    S2127945   5.245   7.406   5.088 -0.1522  0.2035 -0.2179
   42TAL   C20527946   5.631   7.542   5.015 -0.6835  0.1104 -0.1484
   42TAL   C20627947   5.760   7.460   5.024 -1.3003  0.1689  0.1159
   42TAL   C20727948   5.868   7.501   5.123  0.5920  1.1631 -0.3422
   42TAL   C20827949   5.842   7.532   5.272  1.2507  0.5094 -0.3096
   42TAL   C20927950   5.962   7.553   5.375 -0.1875 -0.5909  0.2858
   42TAL   C21027951   5.916   7.565   5.522  0.0243 -0.3840 -0.9293
   43HTM   C21127952   5.348   7.652   4.978  0.0770  0.0604 -0.3395
   43HTM   C21227953   5.285   7.750   5.049 -0.6686 -0.2757 -0.5169
   43HTM   C21327954   5.272   7.874   4.977 -0.9373 -0.2737 -0.4693
   43HTM   C21427955   5.326   7.871   4.851 -0.3964  0.0640 -0.2555
   43HTM    S2227956   5.397   7.709   4.814  0.5010  0.4084 -0.0967
   44TAL   C21527957   5.209   7.984   5.056  0.2869  0.9226 -0.0025
   44TAL   C21627958   5.214   8.129   5.022  0.0830 -0.5369  0.1993
   44TAL   C21727959   5.121   8.205   5.114 -1.8601  0.1878 -0.1193
   44TAL   C21827960   5.107   8.351   5.074  0.0945  0.0955  0.5382
   44TAL   C21927961   5.019   8.428   5.163 -0.4372 -0.3372 -0.3797
   44TAL   C22027962   4.871   8.380   5.162 -0.2163 -0.5780 -0.5651
   45HTM   C22127963   5.331   7.966   4.753  0.2373  0.4658  0.3904
   45HTM   C22227964   5.442   8.013   4.688  0.1169  0.4647  0.1830
   45HTM   C22327965   5.412   8.097   4.575 -0.0967  0.1986  0.0410
   45HTM   C22427966   5.278   8.114   4.554 -0.1393 -0.0030  0.1403
   45HTM    S2327967   5.179   8.025   4.676  0.0889  0.1285  0.4227
   46TAL   C22527968   5.518   8.158   4.474 -0.0904 -0.0027  0.1388
   46TAL   C22627969   5.657   8.177   4.527 -0.2488  0.7417 -0.0340
   46TAL   C22727970   5.782   8.208   4.441  0.2529  0.7839 -0.6700
   46TAL   C22827971   5.767   8.332   4.340 -0.6896  0.6157 -0.1242
   46TAL   C22927972   5.881   8.341   4.236  0.1112  0.1466  0.4804
   46TAL   C23027973   5.854   8.444   4.128  0.5980  0.9139 -0.8562
   47HTM   C23127974   5.207   8.203   4.465 -0.6840 -0.6463  0.1334
   47HTM   C23227975   5.211   8.193   4.329 -1.0011 -0.8106  0.1348
   47HTM   C23327976   5.105   8.266   4.263 -1.0760 -0.7784  0.2893
   47HTM   C23427977   5.021   8.330   4.349 -0.8161 -0.5901  0.4056
   47HTM    S2427978   5.069   8.304   4.521 -0.4536 -0.4374  0.3285
   48TAL   C23527979   5.102   8.296   4.106 -0.7422 -0.3472 -0.7096
   48TAL   C23627980   5.162   8.211   4.001 -0.4265 -1.2624 -1.0352
   48TAL   C23727981   5.075   8.103   3.961 -0.0795  0.9878  0.2408
   48TAL   C23827982   5.131   8.051   3.835  0.0129 -0.3923  0.3337
   48TAL   C23927983   5.048   7.929   3.811 -0.4867  0.0899 -0.4334
   48TAL   C24027984   5.131   7.813   3.749 -0.8656  0.2926 -0.4502
    1HTM     C127985   2.958   8.358   4.182 -0.7712  0.6321  0.6916
    1HTM     C227986   2.893   8.426   4.280 -0.5758  0.1123  1.1988
    1HTM     C327987   2.848   8.343   4.389  0.3056 -0.3593  1.2233
    1HTM     C427988   2.879   8.212   4.374  0.7822 -0.1991  0.7346
    1HTM     S127989   2.968   8.181   4.220  0.1500  0.5658  0.2016
    2TAL     C527990   2.759   8.397   4.500  0.1426 -0.6687 -0.2278
    2TAL     C627991   2.736   8.550   4.507  0.8618 -0.4799  0.1299
    2TAL     C727992   2.643   8.596   4.620 -0.5438  0.2042  0.5526
    2TAL     C827993   2.576   8.723   4.577  1.1707 -0.4760  0.8462
    2TAL     C927994   2.519   8.779   4.702 -0.8264 -0.5913 -0.2636
    2TAL    C1027995   2.597   8.906   4.734 -0.3522  0.9080  0.2243
    3HTM    C1127996   2.849   8.099   4.455  0.1610 -0.6608  0.0149
    3HTM    C1227997   2.787   7.982   4.422  0.3964 -0.8681  0.2960
    3HTM    C1327998   2.769   7.893   4.534  0.5202 -0.6096  0.5256
    3HTM    C1427999   2.817   7.941   4.652  0.3791 -0.2052  0.4196
    3HTM     S228000   2.890   8.105   4.631  0.0768 -0.1188  0.0184
    4TAL    C1528001   2.693   7.764   4.521  0.4034  0.0604 -1.0093
    4TAL    C1628002   2.771   7.627   4.536 -0.3299  0.2246 -1.0781
    4TAL    C1728003   2.911   7.626   4.479 -0.3698  0.2273  0.4353
    4TAL    C1828004   3.011   7.524   4.518 -0.2353  0.3072  0.1242
    4TAL    C1928005   2.968   7.387   4.476  0.3497  0.7672  0.1162
    4TAL    C2028006   2.926   7.344   4.327 -1.3664 -0.3449 -0.5089
    5HTM    C2128007   2.793   7.901   4.792  1.0593  0.2332  0.1523
    5HTM    C2228008   2.710   7.969   4.875  0.8729  0.3523 -0.1285
    5HTM    C2328009   2.713   7.922   5.011  0.4160  0.4084 -0.0958
    5HTM    C2428010   2.798   7.818   5.032  0.2541  0.3322  0.2097
    5HTM     S328011   2.883   7.771   4.879  0.6692  0.1822  0.4821
    6TAL    C2528012   2.633   8.004   5.107 -1.1302  0.1012  0.3788
    6TAL    C2628013   2.488   8.037   5.129  0.7019  0.8039 -0.0602
    6TAL    C2728014   2.471   8.152   5.223 -0.2880 -0.7598 -0.7033
    6TAL    C2828015   2.523   8.308   5.192  0.8599  1.0095 -0.5398
    6TAL    C2928016   2.506   8.342   5.039  0.9391  1.2568  0.2878
    6TAL    C3028017   2.544   8.485   4.987 -0.1973  0.9788 -0.0093
    7HTM    C3128018   2.836   7.744   5.144 -0.1719  0.1350 -0.2445
    7HTM    C3228019   2.820   7.611   5.168 -0.1883  0.1549 -0.1467
    7HTM    C3328020   2.896   7.563   5.281 -0.3147  0.2602 -0.0151
    7HTM    C3428021   2.970   7.660   5.342 -0.3948  0.3206 -0.0126
    7HTM     S428022   2.950   7.820   5.261 -0.3161  0.2484 -0.1775
    8TAL    C3528023   2.878   7.410   5.321  0.1620  0.1327 -0.4014
    8TAL    C3628024   2.788   7.316   5.232 -0.3735 -1.2036  0.2151
    8TAL    C3728025   2.759   7.166   5.277  0.5486 -0.3009  0.6819
    8TAL    C3828026   2.867   7.073   5.335  0.0355 -1.0523 -0.3830
    8TAL    C3928027   2.997   7.028   5.266  0.3686  0.0818  0.7783
    8TAL    C4028028   3.082   6.950   5.358 -1.1136 -0.3148 -0.9917
    9HTM    C4128029   3.064   7.655   5.459  0.7247 -0.0832 -0.3141
    9HTM    C4228030   3.135   7.759   5.512  1.0512 -0.1626 -0.5938
    9HTM    C4328031   3.232   7.719   5.610  0.9056 -0.2027 -0.4652
    9HTM    C4428032   3.235   7.584   5.633  0.4680 -0.1537 -0.0874
    9HTM     S528033   3.115   7.497   5.531  0.2038 -0.0524  0.1372
   10TAL    C4528034   3.330   7.820   5.664  0.6329 -0.1697  0.6783
   10TAL    C4628035   3.440   7.873   5.560  0.1777  0.7651  0.2147
   10TAL    C4728036   3.543   7.778   5.518 -0.1912  0.9952  0.6097
   10TAL    C4828037   3.644   7.852   5.429  0.7860 -0.1679 -0.2609
   10TAL    C4928038   3.743   7.762   5.358 -0.0722  0.1977  0.7623
   10TAL    C5028039   3.878   7.760   5.421 -0.6285  0.9462  0.3005
   11HTM    C5128040   3.308   7.515   5.737  1.0232 -0.3286 -0.8094
   11HTM    C5228041   3.444   7.507   5.749  0.9750 -0.6741 -0.4596
   11HTM    C5328042   3.488   7.399   5.835  0.4541 -0.2860  0.3254
   11HTM    C5428043   3.386   7.325   5.887  0.1051  0.3554  0.5740
   11HTM     S628044   3.225   7.386   5.833  0.4097  0.5203 -0.1697
   12TAL    C5528045   3.638   7.355   5.835  0.1454  0.1514 -0.5443
   12TAL    C5628046   3.736   7.444   5.777 -0.6422 -1.1888  0.1045
   12TAL    C5728047   3.842   7.375   5.696  0.2317  0.5820 -0.0577
   12TAL    C5828048   3.968   7.454   5.718 -0.6841  0.8112 -0.1680
   12TAL    C5928049   4.098   7.369   5.695  0.6208 -0.1226  0.3039
   12TAL    C6028050   4.120   7.331   5.550  0.5803  0.2901 -0.6105
   13HTM    C6128051   3.396   7.204   5.969  0.3006  0.0512  0.2898
   13HTM    C6228052   3.504   7.160   6.040  0.1307 -0.5164  0.2091
   13HTM    C6328053   3.484   7.032   6.102 -0.3409 -0.6125 -0.1273
   13HTM    C6428054   3.362   6.977   6.078 -0.5306 -0.1183 -0.3031
   13HTM     S728055   3.260   7.085   5.975 -0.1250  0.5118 -0.0556
   14TAL    C6528056   3.578   6.969   6.201 -0.0836  0.1522  1.8799
   14TAL    C6628057   3.724   7.027   6.234 -0.0884 -0.7609  0.1152
   14TAL    C6728058   3.750   7.157   6.302 -0.8483  0.3662 -0.7314
   14TAL    C6828059   3.900   7.182   6.328 -0.7169 -0.4780 -0.7818
   14TAL    C6928060   3.947   7.331   6.287 -0.0732 -0.3869  0.3122
   14TAL    C7028061   4.062   7.342   6.381 -1.1494 -0.2475  0.8027
   15HTM    C7128062   3.296   6.851   6.126  0.3948 -0.2956 -0.1001
   15HTM    C7228063   3.352   6.737   6.176  0.1209 -0.0503  0.8047
   15HTM    C7328064   3.256   6.638   6.217 -0.1131  0.3337  1.2062
   15HTM    C7428065   3.126   6.676   6.198 -0.0177  0.3811  0.6077
   15HTM     S828066   3.116   6.841   6.127  0.3783 -0.0588 -0.5182
   16TAL    C7528067   3.322   6.523   6.296 -0.1790 -0.0490 -0.2412
   16TAL    C7628068   3.230   6.438   6.375 -0.0601  0.7013 -0.4773
   16TAL    C7728069   3.221   6.298   6.323  0.1603  0.1947  0.8522
   16TAL    C7828070   3.099   6.210   6.337  0.4403  0.5183 -0.4195
   16TAL    C7928071   3.075   6.146   6.473 -0.1589  0.2413 -0.2337
   16TAL    C8028072   3.193   6.071   6.541  0.4426  0.6012  0.5182
   17HTM    C8128073   3.001   6.611   6.219  0.0078 -0.5113  0.1549
   17HTM    C8228074   2.911   6.558   6.131 -0.1554 -0.3699  0.2352
   17HTM    C8328075   2.796   6.499   6.195 -0.3032  0.0137  0.3283
   17HTM    C8428076   2.798   6.508   6.331 -0.2526  0.1647  0.3189
   17HTM     S928077   2.947   6.591   6.390 -0.0127 -0.1684  0.1907
   18TAL    C8528078   2.691   6.430   6.102 -0.0866  0.1922  0.2385
   18TAL    C8628079   2.722   6.286   6.058  0.2768  0.6902 -0.6019
   18TAL    C8728080   2.623   6.175   6.031  0.7083  0.2924 -0.2566
   18TAL    C8828081   2.493   6.211   5.966  0.2803  0.1538  0.2733
   18TAL    C8928082   2.372   6.122   5.986  0.0443  0.6540 -0.5020
   18TAL    C9028083   2.235   6.161   5.939 -0.0251 -0.2792 -0.0967
   19HTM    C9128084   2.698   6.470   6.421 -0.0023  0.3657 -0.2792
   19HTM    C9228085   2.658   6.547   6.526 -0.1516  0.4008 -0.3604
   19HTM    C9328086   2.572   6.478   6.619 -0.2099  0.4044 -0.4112
   19HTM    C9428087   2.547   6.349   6.585 -0.1052  0.3722 -0.3691
   19HTM    S1028088   2.629   6.304   6.431  0.0768  0.3344 -0.2609
   20TAL    C9528089   2.528   6.541   6.749 -0.2286  0.1063  0.4981
   20TAL    C9628090   2.505   6.690   6.751  0.0014 -0.5699 -0.1996
   20TAL    C9728091   2.441   6.763   6.866  1.1252  0.7850 -0.5002
   20TAL    C9828092   2.303   6.702   6.908 -0.3823  0.4424  0.3011
   20TAL    C9928093   2.237   6.761   7.028 -1.0262 -0.4490 -1.3345
   20TAL   C10028094   2.176   6.892   7.014 -0.3832 -1.6613  0.2777
   21HTM   C10128095   2.443   6.261   6.639  1.2494  0.0950 -0.2706
   21HTM   C10228096   2.338   6.311   6.710  1.5839  1.1485 -0.4776
   21HTM   C10328097   2.257   6.210   6.773  0.5440  1.9418 -0.4811
   21HTM   C10428098   2.300   6.083   6.750 -0.5833  1.4932 -0.2770
   21HTM    S1128099   2.448   6.081   6.646 -0.4177  0.0225 -0.0628
   22TAL   C10528100   2.132   6.247   6.850 -0.0234 -0.4936 -0.4667
   22TAL   C10628101   2.095   6.185   6.981 -0.1522 -0.8113 -0.8714
   22TAL   C10728102   2.209   6.180   7.083  0.5933  0.0084  0.0147
   22TAL   C10828103   2.147   6.150   7.213  0.5706 -0.1577 -0.6930
   22TAL   C10928104   2.250   6.155   7.334 -0.5673 -0.6615 -0.3514
   22TAL   C11028105   2.203   6.075   7.454 -0.9384 -1.3115 -0.0874
   23HTM   C11128106   2.264   5.948   6.797  0.6270 -0.0010 -0.3692
   23HTM   C11228107   2.312   5.875   6.901  0.8022 -0.1189 -0.5305
   23HTM   C11328108   2.249   5.747   6.917  0.5308  0.0396 -0.3129
   23HTM   C11428109   2.152   5.722   6.824  0.1488  0.2782  0.0144
   23HTM    S1228110   2.134   5.860   6.709  0.1017  0.3215  0.0735
   24TAL   C11528111   2.280   5.654   7.035  0.5206  1.1568 -0.2633
   24TAL   C11628112   2.417   5.650   7.103  0.4636  0.5676 -0.8074
   24TAL   C11728113   2.438   5.525   7.206 -0.6053 -1.3496  0.6024
   24TAL   C11828114   2.464   5.399   7.126  0.1978 -0.4912  0.1636
   24TAL   C11928115   2.485   5.280   7.218 -0.2711  0.1399 -0.4428
   24TAL   C12028116   2.553   5.170   7.142  0.6268  0.0219  1.0138
   25HTM   C12128117   2.058   5.606   6.804 -0.1697  0.4006 -0.4342
   25HTM   C12228118   2.085   5.473   6.794 -0.2118  0.3848 -0.3439
   25HTM   C12328119   1.971   5.393   6.758 -0.3110  0.3563  0.0240
   25HTM   C12428120   1.857   5.466   6.741 -0.3446  0.3502  0.2140
   25HTM    S1328121   1.885   5.641   6.769 -0.2527  0.3805 -0.0587
   26TAL   C12528122   1.982   5.244   6.762 -0.0601  0.0791 -0.0039
   26TAL   C12628123   2.072   5.170   6.667  0.3297 -0.6084  0.0239
   26TAL   C12728124   2.222   5.167   6.670 -0.7563  0.7625  0.8506
   26TAL   C12828125   2.283   5.153   6.803 -0.3175  0.5083  0.5919
   26TAL   C12928126   2.432   5.143   6.801  0.6655 -0.3836  0.2602
   26TAL   C13028127   2.488   5.003   6.816 -1.3279 -0.9580 -0.4601
   27HTM   C13128128   1.725   5.424   6.706 -0.1210 -0.1682  0.3531
   27HTM   C13228129   1.687   5.297   6.675 -0.2748 -0.0621  0.1041
   27HTM   C13328130   1.547   5.285   6.643 -0.2288  0.2208 -0.2130
   27HTM   C13428131   1.479   5.403   6.650 -0.0399  0.3304 -0.2059
   27HTM    S1428132   1.587   5.539   6.697  0.0955  0.0831  0.2049
   28TAL   C13528133   1.491   5.149   6.588 -0.4927  0.9109 -0.0879
   28TAL   C13628134   1.382   5.061   6.665 -0.1345 -1.4682  0.2908
   28TAL   C13728135   1.419   5.051   6.816 -0.5364 -0.1113  0.5594
   28TAL   C13828136   1.303   4.996   6.898 -0.3737  1.7894 -0.3211
   28TAL   C13928137   1.181   5.071   6.902 -0.4931  0.2205  0.5615
   28TAL   C14028138   1.072   4.993   6.972 -0.0546 -0.0275  0.1453
   29HTM   C14128139   1.329   5.420   6.628  0.2849  0.2706 -0.0565
   29HTM   C14228140   1.231   5.442   6.720  0.4330  0.8819 -0.0374
   29HTM   C14328141   1.098   5.437   6.665  0.3683  1.1431  0.0936
   29HTM   C14428142   1.095   5.411   6.531  0.1709  0.7310  0.1744
   29HTM    S1528143   1.261   5.391   6.463  0.0504 -0.0249  0.0907
   30TAL   C14528144   0.993   5.477   6.771 -0.9835 -0.2364  0.4949
   30TAL   C14628145   0.862   5.411   6.774  1.0234 -0.3586 -0.2859
   30TAL   C14728146   0.848   5.261   6.766 -0.8199 -0.7486  0.1774
   30TAL   C14828147   0.716   5.210   6.778  0.4246 -0.3528 -1.5670
   30TAL   C14928148   0.613   5.238   6.672 -0.4799  0.7001 -0.2283
   30TAL   C15028149   0.613   5.114   6.582  1.0461 -0.9681  0.4120
   31HTM   C15128150   0.982   5.428   6.432 -0.4182  0.0921  0.1756
   31HTM   C15228151   0.991   5.395   6.300 -0.5823 -0.5510  0.3185
   31HTM   C15328152   0.880   5.441   6.221 -0.5951 -0.7826  0.2006
   31HTM   C15428153   0.786   5.509   6.293 -0.4408 -0.3160 -0.0323
   31HTM    S1628154   0.831   5.520   6.467 -0.2660  0.4583 -0.1216
   32TAL   C15528155   0.851   5.405   6.075 -0.0009 -0.3642 -0.1996
   32TAL   C15628156   0.777   5.278   6.051 -0.0256 -0.3868 -0.2279
   32TAL   C15728157   0.839   5.172   6.138  0.3472  0.6852  0.6383
   32TAL   C15828158   0.794   5.032   6.122 -1.1901 -0.2839  0.2390
   32TAL   C15928159   0.698   4.989   6.231 -0.4972 -0.2964  0.1527
   32TAL   C16028160   0.631   4.858   6.201 -0.0659  0.3245  0.0815
   33HTM   C16128161   0.661   5.568   6.257  0.6640  0.6975  0.2728
   33HTM   C16228162   0.550   5.494   6.232  0.9429  0.2134  0.4423
   33HTM   C16328163   0.436   5.572   6.190  0.5924 -0.2937  0.4307
   33HTM   C16428164   0.461   5.706   6.184  0.0464 -0.1964  0.2523
   33HTM    S1728165   0.631   5.744   6.230 -0.0685  0.5491  0.0836
   34TAL   C16528166   0.303   5.498   6.165  0.4182  0.1427  0.4506
   34TAL   C16628167   0.292   5.441   6.018 -0.9234 -0.5964  0.0603
   34TAL   C16728168   0.382   5.316   5.982 -0.8239 -0.9115 -0.2402
   34TAL   C16828169   0.373   5.280   5.833  0.4838  1.4215  0.1284
   34TAL   C16928170   0.226   5.241   5.772  0.2443  0.5773 -0.9299
   34TAL   C17028171   0.188   5.102   5.811  0.0051  0.0676 -0.8003
   35HTM   C17128172   0.377   5.818   6.146  0.0266 -0.2203  0.1731
   35HTM   C17228173   0.316   5.911   6.225 -0.3257 -0.3935  0.1118
   35HTM   C17328174   0.251   6.016   6.151 -0.5639 -0.5845  0.0457
   35HTM   C17428175   0.263   6.003   6.016 -0.3933 -0.5570  0.0564
   35HTM    S1828176   0.356   5.856   5.971  0.0852 -0.2857  0.1520
   36TAL   C17528177   0.173   6.131   6.206  0.0382  0.2737  0.1426
   36TAL   C17628178   0.022   6.114   6.246 -0.0909  0.3866  0.0955
   36TAL   C17728179  -0.039   6.248   6.289 -0.4968  0.3021  0.9075
   36TAL   C17828180  -0.166   6.252   6.370 -0.6921  0.0122 -1.0989
   36TAL   C17928181  -0.153   6.343   6.489  0.0924 -0.6900  0.0231
   36TAL   C18028182  -0.289   6.354   6.544 -0.0234  0.4295 -0.8772
   37HTM   C18128183   0.218   6.091   5.905  0.3702  0.6310 -0.3756
   37HTM   C18228184   0.209   6.227   5.892  1.0153  0.6270 -1.0095
   37HTM   C18328185   0.144   6.270   5.771  0.9153  0.3603 -1.0514
   37HTM   C18428186   0.103   6.167   5.691  0.1941  0.1607 -0.4494
   37HTM    S1928187   0.145   6.007   5.763 -0.4196  0.2953  0.2224
   38TAL   C18528188   0.126   6.412   5.762  0.1912 -0.2309 -0.0188
   38TAL   C18628189  -0.021   6.470   5.749  0.3618 -0.3767  0.1248
   38TAL   C18728190  -0.120   6.422   5.859 -0.0973 -0.6865  0.0619
   38TAL   C18828191  -0.242   6.519   5.860 -0.0971  0.5134 -1.6323
   38TAL   C18928192  -0.336   6.506   5.746  0.4810  1.3651 -0.1760
   38TAL   C19028193  -0.376   6.368   5.690  0.9373 -0.2726 -0.8456
   39HTM   C19128194   0.051   6.170   5.554  0.4935 -0.2000  0.1287
   39HTM   C19228195   0.082   6.257   5.454  0.7356 -0.5537 -0.1057
   39HTM   C19328196   0.024   6.221   5.327  0.6733 -0.7586 -0.0204
   39HTM   C19428197  -0.051   6.107   5.331  0.3838 -0.5612  0.2792
   39HTM    S2028198  -0.054   6.036   5.496  0.1659 -0.0975  0.4781
   40TAL   C19528199   0.070   6.283   5.200 -0.0842 -1.1774 -0.5195
   40TAL   C19628200   0.222   6.273   5.149  0.5594  0.9585 -0.3149
   40TAL   C19728201   0.322   6.156   5.188 -0.1390  0.2233  0.2264
   40TAL   C19828202   0.291   6.016   5.126  1.0032 -0.1682  0.7620
   40TAL   C19928203   0.392   5.916   5.168  0.2412  0.5224  0.4247
   40TAL   C20028204   0.364   5.781   5.112  0.5728  0.0134  0.7537
   41HTM   C20128205  -0.118   6.031   5.230  0.3314 -0.6011 -0.1845
   41HTM   C20228206  -0.131   5.895   5.224  0.2172 -0.5783 -0.4640
   41HTM   C20328207  -0.164   5.846   5.092  0.0138 -0.2663 -0.5325
   41HTM   C20428208  -0.175   5.944   4.998 -0.0269 -0.0511 -0.3049
   41HTM    S2128209  -0.146   6.108   5.069  0.1900 -0.2275  0.0159
   42TAL   C20528210  -0.159   5.693   5.085 -0.3770 -0.1503 -0.5281
   42TAL   C20628211  -0.272   5.617   5.146 -1.0142 -0.4355 -0.2483
   42TAL   C20728212  -0.415   5.659   5.168  0.0195  0.9873 -0.3518
   42TAL   C20828213  -0.474   5.550   5.265  0.2593  0.0047  0.3484
   42TAL   C20928214  -0.628   5.534   5.263 -0.0357  0.1205  0.2466
   42TAL   C21028215  -0.714   5.654   5.292 -0.7299 -0.3948 -0.5331
   43HTM   C21128216  -0.216   5.935   4.857 -0.0399 -0.1736 -0.3106
   43HTM   C21228217  -0.217   6.028   4.758  0.0396 -0.0976 -0.2401
   43HTM   C21328218  -0.273   5.981   4.634  0.1376 -0.0027 -0.3209
   43HTM   C21428219  -0.314   5.851   4.639  0.1329 -0.0067 -0.4531
   43HTM    S2228220  -0.286   5.778   4.801  0.0037 -0.1312 -0.4857
   44TAL   C21528221  -0.283   6.058   4.502 -0.0038 -0.0159  0.1369
   44TAL   C21628222  -0.184   6.172   4.470 -0.0987  0.6064  1.0421
   44TAL   C21728223  -0.036   6.148   4.508  0.6053  0.2273 -0.8040
   44TAL   C21828224   0.077   6.243   4.543  0.9611 -0.0457 -0.0343
   44TAL   C21928225   0.084   6.390   4.489 -0.4006  0.4107  0.0848
   44TAL   C22028226   0.064   6.399   4.337  0.0942 -0.7122 -0.5031
   45HTM   C22128227  -0.377   5.765   4.542 -0.4785 -0.1152  0.2624
   45HTM   C22228228  -0.320   5.662   4.473 -0.2844  0.3264 -0.2458
   45HTM   C22328229  -0.410   5.598   4.380 -0.1495  0.6367 -0.5974
   45HTM   C22428230  -0.536   5.652   4.380 -0.2413  0.4319 -0.3570
   45HTM    S2328231  -0.549   5.789   4.496 -0.5066 -0.1736  0.3370
   46TAL   C22528232  -0.371   5.485   4.293 -0.8556  1.1474 -0.3577
   46TAL   C22628233  -0.262   5.388   4.355 -1.3132  0.2111  0.0698
   46TAL   C22728234  -0.193   5.292   4.248  0.0681 -0.5449 -0.0224
   46TAL   C22828235  -0.058   5.236   4.286 -0.3100 -0.0347  0.0286
   46TAL   C22928236   0.045   5.179   4.190 -0.0419 -0.2172  0.7815
   46TAL   C23028237   0.101   5.279   4.094  0.3906  0.4985  0.0801
   47HTM   C23128238  -0.654   5.622   4.303  0.2080  0.8613 -0.8014
   47HTM   C23228239  -0.694   5.501   4.254  0.7608  0.9866 -1.5886
   47HTM   C23328240  -0.822   5.505   4.189  0.7269  0.8173 -1.5306
   47HTM   C23428241  -0.881   5.628   4.188  0.1481  0.5628 -0.6992
   47HTM    S2428242  -0.777   5.750   4.271 -0.4031  0.5172  0.0811
   48TAL   C23528243  -0.865   5.369   4.131  1.4114 -0.6236  0.1174
   48TAL   C23628244  -1.008   5.335   4.096  1.9473 -0.2185  0.7455
   48TAL   C23728245  -1.132   5.374   4.188 -0.6743 -1.4505  0.6874
   48TAL   C23828246  -1.149   5.301   4.316 -0.0266  1.1333  0.8830
   48TAL   C23928247  -1.194   5.382   4.430 -0.2000  0.2017 -0.3995
   48TAL   C24028248  -1.204   5.288   4.550 -0.4982 -0.0869 -0.4969
    1HTM     C128249   4.292   4.365   4.041  0.1958  0.2312  0.1048
    1HTM     C228250   4.348   4.481   4.085 -0.4905  0.5326  0.2199
    1HTM     C328251   4.395   4.567   3.979 -0.8346  0.8343  0.3099
    1HTM     C428252   4.373   4.516   3.854 -0.4106  0.7632  0.2632
    1HTM     S128253   4.292   4.355   3.861  0.4628  0.3057  0.1007
    2TAL     C528254   4.483   4.690   4.002 -0.5988  0.5316 -0.6866
    2TAL     C628255   4.627   4.698   4.080  0.8640  0.2546  0.2849
    2TAL     C728256   4.712   4.572   4.051 -0.1352  0.6805 -0.2659
    2TAL     C828257   4.756   4.562   3.906  0.7027  0.1906  0.8944
    2TAL     C928258   4.864   4.649   3.858 -0.0498 -0.2746 -0.3538
    2TAL    C1028259   4.868   4.694   3.709  0.1325 -0.8434 -0.2787
    3HTM    C1128260   4.376   4.574   3.725  0.6839  0.0327 -0.1618
    3HTM    C1228261   4.280   4.561   3.629  0.6984 -0.0123 -0.1706
    3HTM    C1328262   4.303   4.643   3.513  0.4029  0.3906  0.0495
    3HTM    C1428263   4.416   4.718   3.520  0.1632  0.7428  0.2261
    3HTM     S228264   4.504   4.691   3.675  0.2931  0.5917  0.1274
    4TAL    C1528265   4.210   4.641   3.384  0.0787  0.2843 -0.9050
    4TAL    C1628266   4.058   4.666   3.391  0.6668 -0.2558  0.6625
    4TAL    C1728267   3.996   4.731   3.508 -0.1511 -0.2808  0.4232
    4TAL    C1828268   3.885   4.834   3.482 -0.9068  0.6683 -0.7960
    4TAL    C1928269   3.748   4.784   3.435  0.3787  0.0146 -0.4208
    4TAL    C2028270   3.655   4.745   3.546  0.1532 -0.5876  0.0465
    5HTM    C2128271   4.477   4.815   3.426  0.8057  0.2604 -0.1189
    5HTM    C2228272   4.603   4.864   3.443  0.5647  0.9186 -0.1538
    5HTM    C2328273   4.637   4.971   3.353 -0.0401  1.1473 -0.1151
    5HTM    C2428274   4.536   5.004   3.267 -0.2600  0.6633 -0.0508
    5HTM     S328275   4.390   4.902   3.294  0.2835 -0.1248 -0.0341
    6TAL    C2528276   4.779   5.017   3.359 -0.5405 -1.1417  0.2689
    6TAL    C2628277   4.806   5.103   3.489  0.0290  0.2072  0.6334
    6TAL    C2728278   4.940   5.182   3.508  1.6638 -0.4219 -1.3085
    6TAL    C2828279   5.015   5.239   3.394 -0.8033 -0.4615  0.6110
    6TAL    C2928280   5.127   5.321   3.450 -0.9512  0.9877 -0.6324
    6TAL    C3028281   5.211   5.370   3.339  0.3589 -0.6043 -1.3136
    7HTM    C3128282   4.538   5.085   3.148 -0.0056 -0.3983 -0.6890
    7HTM    C3228283   4.426   5.122   3.078 -0.0149 -0.4994 -0.7270
    7HTM    C3328284   4.451   5.221   2.976 -0.1379 -0.1985 -0.4652
    7HTM    C3428285   4.581   5.261   2.969 -0.2224  0.1318 -0.2275
    7HTM     S428286   4.684   5.175   3.091 -0.1528  0.0882 -0.3167
    8TAL    C3528287   4.353   5.283   2.875 -0.0420 -0.5896  0.1429
    8TAL    C3628288   4.223   5.221   2.876  0.8495  0.3512 -0.2495
    8TAL    C3728289   4.113   5.300   2.813  0.1049  0.4773  0.5317
    8TAL    C3828290   4.121   5.347   2.665  0.4303  0.4414 -0.5171
    8TAL    C3928291   4.086   5.491   2.658 -0.2558 -0.2374 -0.4268
    8TAL    C4028292   4.109   5.568   2.518  0.0538  0.1220 -0.4352
    9HTM    C4128293   4.657   5.346   2.889 -0.0172 -0.2908 -0.5536
    9HTM    C4228294   4.725   5.306   2.778 -0.0262 -0.0654 -0.6409
    9HTM    C4328295   4.814   5.406   2.726 -0.2414  0.1434 -0.6121
    9HTM    C4428296   4.815   5.522   2.797 -0.3968  0.0776 -0.5029
    9HTM     S528297   4.701   5.514   2.937 -0.2821 -0.2563 -0.4274
   10TAL    C4528298   4.918   5.365   2.622 -0.9116  0.7945 -0.4250
   10TAL    C4628299   5.012   5.242   2.658  1.1460 -0.0967 -0.0989
   10TAL    C4728300   5.112   5.200   2.549 -0.8699 -0.7345 -1.0754
   10TAL    C4828301   5.188   5.077   2.593 -0.5159  0.7576  0.4758
   10TAL    C4928302   5.222   5.037   2.741  0.3921  0.2600 -0.5295
   10TAL    C5028303   5.300   5.135   2.803 -1.0497  0.7786  0.0117
   11HTM    C5128304   4.879   5.647   2.755  0.1124 -0.4187 -0.8467
   11HTM    C5228305   4.822   5.771   2.760 -0.1874 -0.5417 -1.1584
   11HTM    C5328306   4.914   5.878   2.730 -0.2801 -0.3468 -0.7540
   11HTM    C5428307   5.041   5.835   2.704 -0.0509 -0.0750 -0.1339
   11HTM     S628308   5.054   5.656   2.714  0.3023 -0.0442 -0.0116
   12TAL    C5528309   4.872   6.020   2.765  0.2486  0.1126  0.5318
   12TAL    C5628310   4.883   6.088   2.909 -1.3527 -0.1610 -0.0929
   12TAL    C5728311   4.875   6.237   2.931 -0.2870 -1.0874 -0.0464
   12TAL    C5828312   4.752   6.308   2.879  1.4189 -0.6515 -0.0419
   12TAL    C5928313   4.754   6.463   2.906 -0.5529  0.5051 -0.0599
   12TAL    C6028314   4.628   6.538   2.878  0.4384 -0.3915 -0.0781
   13HTM    C6128315   5.164   5.907   2.669 -0.1649  0.7329  0.3123
   13HTM    C6228316   5.292   5.872   2.700 -0.3642  0.4839  0.8698
   13HTM    C6328317   5.391   5.966   2.655  0.0533  0.0484  0.8564
   13HTM    C6428318   5.339   6.074   2.589  0.5705 -0.0346  0.2887
   13HTM     S728319   5.159   6.064   2.579  0.5707  0.4345 -0.2773
   14TAL    C6528320   5.534   5.936   2.683 -0.7165 -0.7774  0.2558
   14TAL    C6628321   5.567   5.943   2.833 -0.6679  0.3336 -0.7018
   14TAL    C6728322   5.705   5.978   2.902  0.9884  0.3184 -0.3885
   14TAL    C6828323   5.794   6.089   2.836 -0.7498  1.0981  0.7596
   14TAL    C6928324   5.765   6.210   2.903  0.1449  0.5574  0.5159
   14TAL    C7028325   5.882   6.309   2.911  0.4199  0.2254 -0.3308
   15HTM    C7128326   5.407   6.183   2.511 -0.2645 -0.0686  0.7709
   15HTM    C7228327   5.345   6.271   2.428 -0.8540 -0.0416  1.2235
   15HTM    C7328328   5.433   6.372   2.374 -1.2413  0.0229  0.6964
   15HTM    C7428329   5.562   6.360   2.416 -0.9471  0.0451 -0.1581
   15HTM     S828330   5.582   6.220   2.528 -0.1517 -0.0139 -0.3649
   16TAL    C7528331   5.374   6.491   2.312  0.9027 -1.1223  0.2210
   16TAL    C7628332   5.377   6.512   2.164  0.9246  0.3575 -0.3911
   16TAL    C7728333   5.302   6.407   2.071 -0.8246 -0.2712  0.3225
   16TAL    C7828334   5.315   6.426   1.921 -1.3090 -1.1619 -0.2885
   16TAL    C7928335   5.341   6.564   1.860 -0.3808 -0.3659  0.6630
   16TAL    C8028336   5.237   6.567   1.736  0.7338 -0.2698  0.6024
   17HTM    C8128337   5.698   6.418   2.384 -0.2195  0.7370  0.8314
   17HTM    C8228338   5.740   6.495   2.279 -0.3277  0.4631  0.5860
   17HTM    C8328339   5.879   6.530   2.285 -0.1811  0.0083  0.0523
   17HTM    C8428340   5.944   6.481   2.394  0.0391 -0.0643 -0.1092
   17HTM     S928341   5.833   6.385   2.499  0.0786  0.4397  0.4043
   18TAL    C8528342   5.945   6.631   2.181  0.3423 -0.2469  0.1527
   18TAL    C8628343   5.910   6.629   2.030 -0.0973 -1.0604  0.7915
   18TAL    C8728344   5.862   6.506   1.978 -0.2622  0.5767  0.6559
   18TAL    C8828345   5.748   6.517   1.867  0.2423  0.0607  0.1895
   18TAL    C8928346   5.743   6.607   1.748  0.0526  1.3871 -0.0408
   18TAL    C9028347   5.843   6.557   1.641  0.7261  0.0480  0.5457
   19HTM    C9128348   6.071   6.524   2.456  0.1293  0.0505  0.5411
   19HTM    C9228349   6.093   6.508   2.590  0.9633  0.0641  0.4165
   19HTM    C9328350   6.226   6.545   2.632  1.2276  0.0862 -0.4085
   19HTM    C9428351   6.305   6.589   2.530  0.5952  0.0893 -0.9130
   19HTM    S1028352   6.218   6.587   2.372 -0.3909  0.0644 -0.3810
   20TAL    C9528353   6.254   6.549   2.782  0.9793 -0.3517  0.1955
   20TAL    C9628354   6.400   6.532   2.833 -0.7916  0.8123 -0.7703
   20TAL    C9728355   6.410   6.521   2.985 -0.1848 -0.0766 -0.6239
   20TAL    C9828356   6.560   6.539   3.031  0.0545 -0.7900  0.8524
   20TAL    C9928357   6.602   6.444   3.137  0.9463  0.5111 -0.1414
   20TAL   C10028358   6.735   6.472   3.195 -0.0548  0.3844 -0.1009
   21HTM   C10128359   6.445   6.632   2.526  0.2875 -0.2342  0.7341
   21HTM   C10228360   6.510   6.740   2.580  0.6312 -0.4731  0.8080
   21HTM   C10328361   6.646   6.753   2.537  0.5766 -0.6965  0.5623
   21HTM   C10428362   6.686   6.655   2.451  0.1913 -0.6279  0.3010
   21HTM    S1128363   6.553   6.538   2.417 -0.1349 -0.2731  0.3454
   22TAL   C10528364   6.733   6.860   2.591  0.2320 -0.8200  0.7330
   22TAL   C10628365   6.702   7.011   2.585  0.0454 -0.4795  0.0741
   22TAL   C10728366   6.592   7.053   2.689 -0.9490 -0.0214  0.0345
   22TAL   C10828367   6.607   7.205   2.687  0.7190  1.2824  0.4374
   22TAL   C10928368   6.496   7.290   2.749  0.0510 -0.2679 -0.5009
   22TAL   C11028369   6.480   7.283   2.904 -0.5308  0.0430  0.1477
   23HTM   C11128370   6.826   6.619   2.407  0.3468 -0.2970  0.2182
   23HTM   C11228371   6.901   6.507   2.423  0.8259  0.0995  0.8409
   23HTM   C11328372   7.034   6.517   2.368  0.8221  0.3924  0.8850
   23HTM   C11428373   7.059   6.638   2.309  0.3402  0.2192  0.2958
   23HTM    S1228374   6.917   6.748   2.320 -0.1501 -0.3317 -0.3655
   24TAL   C11528375   7.149   6.414   2.369  0.9496 -1.2370 -0.2085
   24TAL   C11628376   7.266   6.429   2.475 -0.2110 -0.1022  0.2238
   24TAL   C11728377   7.224   6.418   2.618 -0.5389  0.3806  1.1119
   24TAL   C11828378   7.209   6.282   2.681  0.1246  0.6442 -0.8598
   24TAL   C11928379   7.152   6.313   2.822 -0.1139 -0.7501  0.1141
   24TAL   C12028380   7.236   6.264   2.928 -0.2295  0.5982 -1.0080
   25HTM   C12128381   7.165   6.671   2.206 -0.6961 -0.4663 -0.5505
   25HTM   C12228382   7.273   6.610   2.149 -1.2273 -0.9110 -1.1095
   25HTM   C12328383   7.332   6.686   2.041 -0.9521 -0.7334 -0.8368
   25HTM   C12428384   7.269   6.804   2.016 -0.2112 -0.1530 -0.0699
   25HTM    S1328385   7.129   6.830   2.127  0.1996  0.2170  0.3708
   26TAL   C12528386   7.455   6.658   1.962  0.1017 -0.7022 -0.1301
   26TAL   C12628387   7.592   6.623   2.021 -0.3795  0.0075  1.3949
   26TAL   C12728388   7.706   6.627   1.905 -0.2317 -0.6866  0.2689
   26TAL   C12828389   7.860   6.641   1.944  0.6338 -0.4095  0.2863
   26TAL   C12928390   7.915   6.787   1.963  0.9382 -0.0228 -0.3684
   26TAL   C13028391   7.860   6.856   2.095 -0.4672  0.3118  0.7173
   27HTM   C13128392   7.285   6.905   1.917  0.1351 -0.2637  0.2662
   27HTM   C13228393   7.230   6.902   1.792  0.3935 -0.9124  0.1636
   27HTM   C13328394   7.266   7.015   1.710  0.0132 -0.9907 -0.1121
   27HTM   C13428395   7.347   7.104   1.772 -0.5352 -0.4020 -0.2198
   27HTM    S1428396   7.387   7.053   1.940 -0.6143  0.3029  0.0206
   28TAL   C13528397   7.231   7.030   1.561 -0.8140  0.4048 -0.3006
   28TAL   C13628398   7.079   7.010   1.548  0.2326  0.0050 -0.0616
   28TAL   C13728399   6.993   7.132   1.591 -0.1167 -0.8462 -0.9007
   28TAL   C13828400   6.934   7.221   1.469  0.2254  0.5978 -0.1633
   28TAL   C13928401   6.871   7.346   1.513 -1.2846 -0.5158 -0.0906
   28TAL   C14028402   6.740   7.327   1.583  0.7608 -0.2145 -0.3780
   29HTM   C14128403   7.403   7.228   1.728 -0.3886 -0.0445 -0.2034
   29HTM   C14228404   7.527   7.246   1.675 -0.4867  0.2830 -0.3300
   29HTM   C14328405   7.555   7.382   1.636 -0.7765  0.4135 -0.0902
   29HTM   C14428406   7.452   7.468   1.659 -0.8997  0.1854  0.2192
   29HTM    S1528407   7.310   7.383   1.733 -0.6569 -0.2148  0.2318
   30TAL   C14528408   7.689   7.418   1.573 -0.7990  0.0445 -0.2977
   30TAL   C14628409   7.788   7.415   1.686 -0.2538  0.3277  0.0784
   30TAL   C14728410   7.874   7.534   1.696  0.6403 -0.5702  0.6813
   30TAL   C14828411   7.988   7.516   1.781 -1.8930  0.9282  0.3851
   30TAL   C14928412   8.089   7.631   1.775 -0.5465 -0.7816 -0.3792
   30TAL   C15028413   8.208   7.625   1.875  0.5025  0.2319  0.5991
   31HTM   C15128414   7.451   7.603   1.623 -0.7630 -0.3458  0.1165
   31HTM   C15228415   7.503   7.710   1.690 -1.0540 -0.3418  0.3380
   31HTM   C15328416   7.469   7.837   1.632 -0.6860 -0.3507  0.0915
   31HTM   C15428417   7.391   7.828   1.521 -0.1144 -0.3616 -0.3179
   31HTM    S1628418   7.354   7.656   1.480  0.0044 -0.3616 -0.4248
   32TAL   C15528419   7.528   7.970   1.691 -0.8517 -0.2557 -0.3309
   32TAL   C15628420   7.558   7.972   1.846 -0.5772 -0.2064 -0.4463
   32TAL   C15728421   7.619   8.101   1.886 -0.6950  0.4713 -0.6598
   32TAL   C15828422   7.623   8.145   2.038 -0.8332 -0.4656 -0.0362
   32TAL   C15928423   7.748   8.231   2.082  0.2345  0.4137  0.1339
   32TAL   C16028424   7.776   8.239   2.236 -0.2670  0.2293  0.0628
   33HTM   C16128425   7.317   7.928   1.433 -0.5128 -0.1528  0.0536
   33HTM   C16228426   7.232   8.032   1.455 -0.5912 -0.1748 -0.1509
   33HTM   C16328427   7.204   8.109   1.336 -0.3471 -0.1972 -0.2248
   33HTM   C16428428   7.268   8.063   1.225 -0.0827 -0.1927 -0.0766
   33HTM    S1728429   7.369   7.919   1.261 -0.1215 -0.1589  0.1696
   34TAL   C16528430   7.102   8.222   1.359  0.9167  0.3601 -0.4000
   34TAL   C16628431   7.077   8.331   1.263 -2.4794 -0.0796  0.8308
   34TAL   C16728432   7.006   8.436   1.343  0.4517  0.9798 -0.8268
   34TAL   C16828433   7.065   8.580   1.330  0.2300  0.1861 -0.7887
   34TAL   C16928434   7.100   8.633   1.187 -0.5154  0.3113 -0.2625
   34TAL   C17028435   7.009   8.617   1.069  0.8005 -0.8304 -0.3438
   35HTM   C17128436   7.251   8.098   1.083  0.1852  0.8794 -0.8351
   35HTM   C17228437   7.130   8.076   1.024  0.1843  0.9849 -0.8732
   35HTM   C17328438   7.137   8.059   0.881  0.3229  0.1512 -0.7748
   35HTM   C17428439   7.263   8.068   0.831  0.4294 -0.5901 -0.6615
   35HTM    S1828440   7.384   8.099   0.961  0.3627 -0.2904 -0.6705
   36TAL   C17528441   7.004   8.032   0.807 -0.4894  1.1608 -0.0827
   36TAL   C17628442   6.887   8.124   0.827 -0.4780 -0.1082  0.6423
   36TAL   C17728443   6.914   8.265   0.765 -0.2767  0.0177  0.3148
   36TAL   C17828444   6.920   8.253   0.608  0.4831 -0.2368 -0.1782
   36TAL   C17928445   6.870   8.385   0.546 -0.5941  0.3197 -0.1093
   36TAL   C18028446   6.721   8.380   0.533  0.3597  0.9838  0.3741
   37HTM   C18128447   7.320   8.047   0.700 -0.0461  0.3037  0.0138
   37HTM   C18228448   7.278   7.957   0.606 -0.3141  0.2092  0.2202
   37HTM   C18328449   7.365   7.948   0.491 -0.4798 -0.1220  0.1171
   37HTM   C18428450   7.473   8.031   0.498 -0.3385 -0.2805 -0.1679
   37HTM    S1928451   7.473   8.128   0.650  0.0180 -0.0213 -0.3295
   38TAL   C18528452   7.357   7.838   0.394 -0.6929  0.1140  0.8262
   38TAL   C18628453   7.225   7.818   0.320  0.0193  0.1916  0.4131
   38TAL   C18728454   7.165   7.908   0.215 -0.6329 -0.0732 -0.4445
   38TAL   C18828455   7.231   7.933   0.079 -0.0552 -0.4746 -0.6371
   38TAL   C18928456   7.335   8.052   0.075 -0.0642 -0.1209  0.5412
   38TAL   C19028457   7.303   8.195   0.127  0.3944  0.9155 -0.2698
   39HTM   C19128458   7.560   8.078   0.390 -0.1185 -0.5927 -0.1929
   39HTM   C19228459   7.611   7.996   0.293 -0.4400 -0.3297 -0.5919
   39HTM   C19328460   7.703   8.062   0.205 -0.5306 -0.1523 -0.5554
   39HTM   C19428461   7.723   8.194   0.234 -0.2783 -0.2796 -0.1286
   39HTM    S2028462   7.625   8.246   0.377  0.0963 -0.6368  0.2633
   40TAL   C19528463   7.763   7.988   0.094  0.3355 -0.4489  1.0490
   40TAL   C19628464   7.709   7.852   0.073 -0.1376  1.1678  0.7583
   40TAL   C19728465   7.774   7.811  -0.060 -0.4240 -0.2686 -0.2567
   40TAL   C19828466   7.928   7.781  -0.091  0.1071 -0.7531 -0.4981
   40TAL   C19928467   7.926   7.740  -0.229  0.0745 -0.8765  1.3420
   40TAL   C20028468   8.069   7.711  -0.278  0.0395  0.4019  0.4938
   41HTM   C20128469   7.811   8.296   0.182  0.1380  0.1223  0.4044
   41HTM   C20228470   7.811   8.422   0.235  0.0610  0.3040 -0.0113
   41HTM   C20328471   7.903   8.512   0.171 -0.0348  0.1631 -0.3491
   41HTM   C20428472   7.972   8.456   0.068 -0.0313 -0.1259 -0.1910
   41HTM    S2128473   7.927   8.283   0.044  0.0945 -0.2439  0.4014
   42TAL   C20528474   7.903   8.648   0.225 -0.5128 -0.8111  0.9280
   42TAL   C20628475   8.035   8.664   0.311 -0.3559 -1.5590 -0.8835
   42TAL   C20728476   8.073   8.807   0.367 -0.4185  0.3956 -0.6878
   42TAL   C20828477   8.206   8.812   0.450  0.6117  0.6354  0.5006
   42TAL   C20928478   8.353   8.804   0.395  0.1710 -1.1702  0.3119
   42TAL   C21028479   8.396   8.921   0.297 -0.5333  0.6031 -0.7834
   43HTM   C21128480   8.092   8.501  -0.006  0.3621  0.0544  0.8137
   43HTM   C21228481   8.130   8.629  -0.036  0.1330  0.0560  0.5152
   43HTM   C21328482   8.265   8.639  -0.085 -0.0212  0.1392  0.0999
   43HTM   C21428483   8.330   8.519  -0.093  0.0908  0.2004  0.0820
   43HTM    S2228484   8.225   8.383  -0.038  0.4019  0.1580  0.5916
   44TAL   C21528485   8.317   8.776  -0.115 -0.2121 -0.3716 -0.3311
   44TAL   C21628486   8.283   8.830  -0.253  0.6037 -0.1021  0.6246
   44TAL   C21728487   8.374   8.813  -0.368 -0.7893  0.4410  0.2494
   44TAL   C21828488   8.296   8.839  -0.500  1.0677 -0.4653 -0.1601
   44TAL   C21928489   8.302   8.972  -0.576 -0.1237 -0.0068  0.0842
   44TAL   C22028490   8.262   9.116  -0.514 -0.9632  0.9167 -0.1732
   45HTM   C22128491   8.465   8.495  -0.127  0.1323  0.1688  0.2592
   45HTM   C22228492   8.517   8.411  -0.221  0.0393  0.4573 -0.0546
   45HTM   C22328493   8.661   8.404  -0.219  0.0551  0.6313 -0.3803
   45HTM   C22428494   8.718   8.482  -0.123  0.1606  0.4758 -0.3141
   45HTM    S2328495   8.594   8.572  -0.028  0.2483  0.0944  0.1677
   46TAL   C22528496   8.714   8.285  -0.300 -0.0188 -0.7238  0.2488
   46TAL   C22628497   8.858   8.316  -0.351  0.6833 -0.2844 -0.0679
   46TAL   C22728498   8.938   8.203  -0.431  0.7033 -0.6944  0.1573
   46TAL   C22828499   9.021   8.251  -0.546  0.0164 -0.6437 -0.1555
   46TAL   C22928500   9.151   8.323  -0.516  0.6348 -0.7309  0.4687
   46TAL   C23028501   9.244   8.352  -0.638 -0.9070 -0.3982 -0.7067
   47HTM   C23128502   8.854   8.501  -0.082  0.3107  0.0661  0.4216
   47HTM   C23228503   8.938   8.593  -0.138  0.2780  0.0598  0.3619
   47HTM   C23328504   9.072   8.587  -0.087  0.3364 -0.0107  0.2012
   47HTM   C23428505   9.091   8.491   0.008  0.4136 -0.0579  0.1383
   47HTM    S2428506   8.939   8.400   0.040  0.4187 -0.0167  0.2780
   48TAL   C23528507   9.177   8.666  -0.145 -0.3760  0.0998  0.5919
   48TAL   C23628508   9.312   8.695  -0.067 -0.5445 -0.9475  0.6032
   48TAL   C23728509   9.377   8.803  -0.164 -0.3186  0.4001 -0.1622
   48TAL   C23828510   9.494   8.882  -0.109 -0.0298 -0.6250  0.0331
   48TAL   C23928511   9.530   9.005  -0.195  0.0426 -0.8506 -0.4049
   48TAL   C24028512   9.608   8.960  -0.317 -0.0599 -0.6013  1.1004
    1HTM     C128513   8.132   3.056   7.238  1.3955  0.2926  0.5451
    1HTM     C228514   8.189   3.146   7.324  1.7221 -0.2638  0.9238
    1HTM     C328515   8.194   3.099   7.460  1.0107 -0.6245  0.8395
    1HTM     C428516   8.142   2.975   7.478  0.1420 -0.3432  0.3964
    1HTM     S128517   8.082   2.905   7.323  0.1548  0.4051  0.0487
    2TAL     C528518   8.235   3.189   7.580  0.4878  0.1853 -0.5220
    2TAL     C628519   8.372   3.249   7.581 -0.6722 -0.2446  0.1372
    2TAL     C728520   8.414   3.344   7.683  0.3281  0.7845  0.1981
    2TAL     C828521   8.349   3.476   7.667 -0.2152 -0.3467  0.0822
    2TAL     C928522   8.400   3.570   7.784 -0.0357  0.8771 -0.4020
    2TAL    C1028523   8.546   3.602   7.802 -0.4192 -0.3286 -0.8048
    3HTM    C1128524   8.124   2.886   7.592  0.0442  0.1892 -0.4023
    3HTM    C1228525   8.131   2.920   7.724  0.2518  0.2131 -0.4197
    3HTM    C1328526   8.105   2.810   7.813  0.4792  0.2087 -0.3580
    3HTM    C1428527   8.078   2.692   7.750  0.4455  0.1815 -0.2937
    3HTM     S228528   8.083   2.711   7.570  0.1214  0.1591 -0.3061
    4TAL    C1528529   8.139   2.828   7.957  0.4558 -0.1285 -0.0249
    4TAL    C1628530   8.274   2.874   8.020  0.3358  0.2321 -0.0076
    4TAL    C1728531   8.322   3.015   7.980  0.1323  0.0223 -0.6945
    4TAL    C1828532   8.469   3.017   7.952  0.5290 -0.1609 -0.5444
    4TAL    C1928533   8.542   3.147   7.981  0.1154 -1.1359 -0.2588
    4TAL    C2028534   8.568   3.203   8.123  0.2165 -0.0725  0.8591
    5HTM    C2128535   8.033   2.565   7.808 -0.6104  0.5055 -0.4538
    5HTM    C2228536   8.015   2.448   7.740 -0.7653  0.6604 -0.6839
    5HTM    C2328537   7.966   2.340   7.822 -0.0377  0.3151 -0.6819
    5HTM    C2428538   7.946   2.375   7.953  0.6714 -0.1030 -0.4503
    5HTM     S328539   7.988   2.548   7.982  0.4740 -0.0932 -0.2149
    6TAL    C2528540   7.913   2.218   7.756  0.0563  0.7855  0.3897
    6TAL    C2628541   7.985   2.135   7.648 -0.6196  0.2619 -0.2393
    6TAL    C2728542   8.130   2.099   7.679  0.0583 -0.3354 -0.1100
    6TAL    C2828543   8.175   2.009   7.559 -0.2271 -0.2306 -1.1837
    6TAL    C2928544   8.320   1.958   7.601 -0.8356  0.9458 -0.4252
    6TAL    C3028545   8.433   2.057   7.577  0.0772 -0.3742  0.3980
    7HTM    C3128546   7.892   2.306   8.067  0.2305  0.2701  0.8427
    7HTM    C3228547   7.958   2.296   8.186 -0.3533  0.0889  1.1539
    7HTM    C3328548   7.901   2.198   8.275 -0.5853 -0.2972  0.5903
    7HTM    C3428549   7.792   2.133   8.223 -0.1785 -0.4104 -0.1510
    7HTM     S428550   7.753   2.192   8.057  0.5348 -0.0353 -0.1947
    8TAL    C3528551   7.951   2.176   8.424 -0.3551 -0.8844  0.9262
    8TAL    C3628552   8.049   2.068   8.452 -0.0999  0.0839 -0.0802
    8TAL    C3728553   8.125   2.067   8.593  0.1916  0.0336  0.3961
    8TAL    C3828554   8.212   2.205   8.594 -0.0285  0.6866 -0.6849
    8TAL    C3928555   8.274   2.254   8.726 -0.7527 -0.1000  0.1964
    8TAL    C4028556   8.373   2.364   8.696  0.4680 -0.8981 -0.0837
    9HTM    C4128557   7.702   2.044   8.291  0.3967  0.2161  0.3346
    9HTM    C4228558   7.569   2.069   8.310  0.4060  0.2645  0.3343
    9HTM    C4328559   7.503   1.974   8.395  0.2757  0.0413 -0.0124
    9HTM    C4428560   7.585   1.876   8.441  0.1673 -0.1776 -0.2766
    9HTM     S528561   7.754   1.896   8.381  0.2215 -0.1180 -0.1066
   10TAL    C4528562   7.348   1.998   8.415 -1.4140 -0.5291 -0.8002
   10TAL    C4628563   7.313   2.150   8.462  0.1635 -0.4912 -0.0451
   10TAL    C4728564   7.391   2.213   8.581  0.0069  0.3981  0.9016
   10TAL    C4828565   7.394   2.367   8.584  0.0465 -0.0815  1.0057
   10TAL    C4928566   7.505   2.432   8.506 -0.2624 -0.2427  0.8819
   10TAL    C5028567   7.628   2.460   8.591  0.2772 -0.5315  1.0588
   11HTM    C5128568   7.553   1.758   8.516 -0.1240 -0.0014  0.5607
   11HTM    C5228569   7.603   1.715   8.635 -0.2820 -0.1619  0.5691
   11HTM    C5328570   7.566   1.579   8.668 -0.3395 -0.2005  0.3469
   11HTM    C5428571   7.489   1.519   8.573 -0.2252 -0.0693  0.1689
   11HTM     S628572   7.456   1.630   8.434 -0.0346  0.1145  0.2691
   12TAL    C5528573   7.615   1.520   8.795  0.4809 -0.0826 -0.9584
   12TAL    C5628574   7.758   1.472   8.799  0.3413  0.2492  0.5978
   12TAL    C5728575   7.817   1.471   8.946  0.0384  0.2187 -0.3927
   12TAL    C5828576   7.971   1.442   8.960  0.8461 -0.0705 -0.0308
   12TAL    C5928577   8.035   1.323   8.887 -0.8241  0.3144  0.4349
   12TAL    C6028578   8.168   1.289   8.937 -0.3382 -0.0955 -0.1464
   13HTM    C6128579   7.425   1.384   8.569 -0.1252 -0.2225 -0.3734
   13HTM    C6228580   7.327   1.357   8.478  0.1117 -0.4798 -0.5553
   13HTM    C6328581   7.283   1.220   8.480  0.4365 -0.5870 -0.6084
   13HTM    C6428582   7.347   1.143   8.572  0.4474 -0.4113 -0.4673
   13HTM     S728583   7.469   1.238   8.664  0.0449 -0.0945 -0.2546
   14TAL    C6528584   7.172   1.167   8.384 -0.0841 -0.7031  0.5791
   14TAL    C6628585   7.119   1.256   8.275  0.8401  0.0097 -0.0391
   14TAL    C6728586   6.992   1.338   8.312 -0.3824  0.1870  0.6039
   14TAL    C6828587   6.936   1.463   8.237 -0.3534 -0.5557 -0.7109
   14TAL    C6928588   7.036   1.576   8.213 -0.5744  0.2156 -0.9424
   14TAL    C7028589   7.094   1.633   8.344 -0.3527  0.1240 -0.1588
   15HTM    C7128590   7.314   1.005   8.608  0.2970  0.0096 -0.1925
   15HTM    C7228591   7.317   0.894   8.528  0.4847 -0.0024 -0.1700
   15HTM    C7328592   7.280   0.773   8.596  0.4971 -0.0205 -0.1957
   15HTM    C7428593   7.248   0.791   8.727  0.3188 -0.0223 -0.2379
   15HTM     S828594   7.263   0.964   8.776  0.1198 -0.0012 -0.2484
   16TAL    C7528595   7.275   0.637   8.521  0.1281 -0.1786 -1.3281
   16TAL    C7628596   7.422   0.582   8.508  0.8314  0.1611 -0.5243
   16TAL    C7728597   7.432   0.524   8.365 -0.8061 -0.3284  1.1046
   16TAL    C7828598   7.568   0.567   8.312 -0.8337  0.0696 -0.2127
   16TAL    C7928599   7.581   0.515   8.167 -0.1165  0.0379  0.2886
   16TAL    C8028600   7.685   0.577   8.084 -0.7563 -0.7129  0.6058
   17HTM    C8128601   7.192   0.700   8.828  0.0474  0.2038  0.1232
   17HTM    C8228602   7.089   0.733   8.911 -0.1149 -0.1222  0.0525
   17HTM    C8328603   7.047   0.625   8.997  0.0458 -0.3105 -0.1023
   17HTM    C8428604   7.118   0.511   8.980  0.3306 -0.1279 -0.1491
   17HTM     S928605   7.245   0.530   8.853  0.4185  0.2992 -0.0005
   18TAL    C8528606   6.918   0.657   9.070  0.4282  0.7549 -0.6361
   18TAL    C8628607   6.801   0.665   8.964  1.3797 -0.4758 -1.1928
   18TAL    C8728608   6.675   0.709   9.036 -0.0210 -0.6106 -1.4104
   18TAL    C8828609   6.546   0.743   8.956 -0.1767  0.3629 -0.0609
   18TAL    C8928610   6.449   0.814   9.046 -1.0588  0.3747 -1.3186
   18TAL    C9028611   6.336   0.874   8.981 -0.5554 -0.2239  0.4667
   19HTM    C9128612   7.101   0.378   9.037  0.3394 -0.2556 -0.1677
   19HTM    C9228613   7.065   0.338   9.162  0.8304 -0.3594 -0.0527
   19HTM    C9328614   7.072   0.195   9.181  1.0282 -0.3648 -0.1574
   19HTM    C9428615   7.114   0.127   9.071  0.6880 -0.2651 -0.3527
   19HTM    S1028616   7.148   0.238   8.933  0.0868 -0.1559 -0.4193
   20TAL    C9528617   7.026   0.130   9.309  0.5621  0.6582  0.2785
   20TAL    C9628618   6.914   0.173   9.415  0.2548  0.9082  0.4300
   20TAL    C9728619   6.855   0.060   9.490 -0.4662  0.5090  0.0851
   20TAL    C9828620   6.935  -0.010   9.600  0.8561 -0.5967  0.2724
   20TAL    C9928621   7.030  -0.117   9.554  0.3564  0.6617 -0.0323
   20TAL   C10028622   7.020  -0.263   9.607  0.3807 -0.2932  0.6533
   21HTM   C10128623   7.133  -0.015   9.037  0.0278  0.2052  0.1927
   21HTM   C10228624   7.056  -0.091   8.953  0.2375  0.2811 -0.0725
   21HTM   C10328625   7.090  -0.231   8.954  0.3698  0.3102 -0.2723
   21HTM   C10428626   7.192  -0.262   9.039  0.2608  0.2566 -0.1593
   21HTM    S1128627   7.255  -0.116   9.124 -0.0195  0.1643  0.2112
   22TAL   C10528628   7.017  -0.327   8.867 -0.1896  0.6482  0.4098
   22TAL   C10628629   6.955  -0.289   8.730 -0.0845  1.1878  0.7314
   22TAL   C10728630   6.872  -0.404   8.664 -0.7828 -0.3700  0.3814
   22TAL   C10828631   6.829  -0.381   8.515 -0.7473  0.0428 -0.1897
   22TAL   C10928632   6.932  -0.414   8.412 -0.0964  0.3381  1.1660
   22TAL   C11028633   7.003  -0.543   8.442 -0.9577  0.1900 -0.2397
   23HTM   C11128634   7.263  -0.391   9.043 -0.1843 -0.4264  0.5185
   23HTM   C11228635   7.397  -0.400   9.017 -0.0728  0.0033  0.9279
   23HTM   C11328636   7.443  -0.534   8.995  0.3800  0.1731  0.8245
   23HTM   C11428637   7.345  -0.629   9.005  0.6137 -0.1270  0.3362
   23HTM    S1228638   7.185  -0.554   9.042  0.2775 -0.6518 -0.0336
   24TAL   C11528639   7.585  -0.558   8.968 -0.4976  0.1319  0.3404
   24TAL   C11628640   7.673  -0.551   9.086 -0.6121 -0.0900 -0.8562
   24TAL   C11728641   7.816  -0.595   9.069  0.6353  1.6437  0.0890
   24TAL   C11828642   7.854  -0.717   8.978 -1.1216 -0.2060  0.9569
   24TAL   C11928643   8.000  -0.720   8.916  0.2035  0.4278 -0.6182
   24TAL   C12028644   8.022  -0.804   8.793  0.4994 -0.4966 -0.3857
   25HTM   C12128645   7.357  -0.777   9.002 -0.4803 -0.0176 -0.2887
   25HTM   C12228646   7.317  -0.864   9.099 -0.4083 -0.1397 -0.3662
   25HTM   C12328647   7.370  -0.996   9.085 -0.0156  0.0083 -0.2902
   25HTM   C12428648   7.452  -1.012   8.977  0.2115  0.2430 -0.1543
   25HTM    S1328649   7.467  -0.858   8.883 -0.0547  0.2957 -0.1123
   26TAL   C12528650   7.337  -1.096   9.194 -0.3346 -0.2514  0.1208
   26TAL   C12628651   7.408  -1.085   9.324  0.5953 -0.1432  0.6125
   26TAL   C12728652   7.383  -1.186   9.433  0.3531 -0.3219  0.0637
   26TAL   C12828653   7.476  -1.178   9.554 -0.7373  0.4274 -0.6254
   26TAL   C12928654   7.470  -1.296   9.649  0.3824 -0.0418  0.6902
   26TAL   C13028655   7.591  -1.387   9.635 -0.1534  0.5379  0.3200
   27HTM   C13128656   7.526  -1.125   8.925  0.6504 -0.0629  0.2355
   27HTM   C13228657   7.643  -1.126   8.855  0.9320 -0.4363  0.6995
   27HTM   C13328658   7.675  -1.254   8.797  0.6458 -0.4885  0.6535
   27HTM   C13428659   7.583  -1.350   8.823  0.1459 -0.1552  0.1540
   27HTM    S1428660   7.447  -1.287   8.923 -0.0034  0.2541 -0.3006
   28TAL   C13528661   7.781  -1.278   8.694  0.5241 -0.4386  0.2741
   28TAL   C13628662   7.760  -1.217   8.561 -0.6002 -0.4683  0.1017
   28TAL   C13728663   7.887  -1.209   8.479 -0.3930  0.4551 -0.0606
   28TAL   C13828664   7.911  -1.100   8.368  0.6944 -0.0736 -0.5600
   28TAL   C13928665   7.969  -0.965   8.408 -0.4445  1.0574  0.2081
   28TAL   C14028666   8.115  -0.928   8.374  0.3734 -0.0728 -0.3494
   29HTM   C14128667   7.588  -1.496   8.809  0.2541 -0.2098  0.5358
   29HTM   C14228668   7.662  -1.567   8.720  0.0987 -0.4756  0.6189
   29HTM   C14328669   7.640  -1.709   8.727 -0.2801 -0.4151  0.7234
   29HTM   C14428670   7.550  -1.746   8.823 -0.4137 -0.1029  0.7207
   29HTM    S1528671   7.485  -1.603   8.912 -0.0686  0.1406  0.5842
   30TAL   C14528672   7.716  -1.786   8.619  0.9163 -0.1464 -0.3394
   30TAL   C14628673   7.859  -1.823   8.649 -0.6991 -0.0964  0.0472
   30TAL   C14728674   7.975  -1.743   8.565  0.1206 -0.4182  0.6655
   30TAL   C14828675   7.995  -1.600   8.609  0.1962 -1.2496  0.7840
   30TAL   C14928676   8.124  -1.527   8.570 -0.5876 -0.0490 -0.6291
   30TAL   C15028677   8.160  -1.404   8.651  0.1972 -1.0894 -0.4300
   31HTM   C15128678   7.506  -1.875   8.861 -0.0587  0.1402 -0.1732
   31HTM   C15228679   7.384  -1.928   8.832 -0.0148  0.2084 -0.4869
   31HTM   C15328680   7.360  -2.056   8.893 -0.2218  0.1945 -0.5939
   31HTM   C15428681   7.464  -2.101   8.969 -0.4234  0.1159 -0.3618
   31HTM    S1628682   7.601  -1.984   8.969 -0.3671  0.0528  0.0128
   32TAL   C15528683   7.232  -2.136   8.861 -0.1837 -0.0652  0.0673
   32TAL   C15628684   7.123  -2.130   8.968  0.6173 -0.0438  0.1586
   32TAL   C15728685   6.995  -2.217   8.936  0.6235 -0.4213 -0.2875
   32TAL   C15828686   6.872  -2.206   9.034 -0.6057 -0.4598  0.2672
   32TAL   C15928687   6.902  -2.216   9.183  1.1080  0.8450  0.4351
   32TAL   C16028688   6.785  -2.167   9.272  0.2631  0.3387  0.4437
   33HTM   C16128689   7.488  -2.212   9.066  0.3759 -0.0031  0.3124
   33HTM   C16228690   7.406  -2.313   9.106  0.3016  0.1682  0.5987
   33HTM   C16328691   7.459  -2.391   9.214  0.3484  0.2917  0.6652
   33HTM   C16428692   7.582  -2.349   9.257  0.4584  0.2146  0.4297
   33HTM    S1728693   7.640  -2.207   9.163  0.5119 -0.0217  0.1031
   34TAL   C16528694   7.378  -2.501   9.285  0.2271 -0.5473 -0.7592
   34TAL   C16628695   7.234  -2.507   9.232 -0.2339 -0.2563  0.1156
   34TAL   C16728696   7.154  -2.623   9.288  0.7087  0.1379  0.5383
   34TAL   C16828697   7.010  -2.669   9.231  0.3054 -0.6545 -1.2275
   34TAL   C16928698   7.004  -2.662   9.079 -1.0456  0.5542 -0.4786
   34TAL   C17028699   7.006  -2.807   9.028  0.8066  0.2279 -0.1184
   35HTM   C17128700   7.664  -2.404   9.368  0.4594 -0.0532 -0.9617
   35HTM   C17228701   7.642  -2.442   9.497  0.2190 -0.9369 -1.2503
   35HTM   C17328702   7.762  -2.453   9.575  0.0335 -0.9725 -0.9677
   35HTM   C17428703   7.876  -2.423   9.506  0.1322 -0.1161 -0.4640
   35HTM    S1828704   7.840  -2.379   9.335  0.4699  0.8091 -0.3057
   36TAL   C17528705   7.772  -2.503   9.722 -0.4698  0.4342  0.6709
   36TAL   C17628706   7.771  -2.656   9.747  0.4946  0.2618  0.6477
   36TAL   C17728707   7.677  -2.747   9.646  0.2873  0.3612  0.6406
   36TAL   C17828708   7.695  -2.900   9.660 -0.2951 -1.0881  1.1465
   36TAL   C17928709   7.843  -2.939   9.640  0.2836  0.2730 -1.1430
   36TAL   C18028710   7.836  -3.097   9.650 -0.6724  0.0141  1.0379
   37HTM   C18128711   8.006  -2.401   9.553  0.2961 -0.6906  0.3621
   37HTM   C18228712   8.119  -2.438   9.486  0.2475 -1.4229  0.6616
   37HTM   C18328713   8.241  -2.391   9.546  0.3259 -1.2801  0.3936
   37HTM   C18428714   8.221  -2.318   9.659  0.4352 -0.4393 -0.1101
   37HTM    S1928715   8.046  -2.303   9.699  0.4464  0.2430 -0.2867
   38TAL   C18528716   8.384  -2.429   9.510  0.6908  0.3296  0.7353
   38TAL   C18628717   8.447  -2.380   9.386  0.0256  0.5092  0.7113
   38TAL   C18728718   8.504  -2.234   9.387  1.5850 -0.1411 -0.1187
   38TAL   C18828719   8.611  -2.179   9.295  0.0754  0.4577  0.4088
   38TAL   C18928720   8.751  -2.249   9.310  1.0250 -0.1253  0.0027
   38TAL   C19028721   8.844  -2.209   9.200  0.2406  0.1572  0.0312
   39HTM   C19128722   8.310  -2.259   9.756 -0.7286 -0.2576  0.4126
   39HTM   C19228723   8.432  -2.284   9.811 -0.4816 -0.3586 -0.1663
   39HTM   C19328724   8.477  -2.182   9.902  0.2117 -0.2075 -0.6613
   39HTM   C19428725   8.389  -2.079   9.916  0.4933  0.0087 -0.4598
   39HTM    S2028726   8.242  -2.103   9.815 -0.1002  0.0385  0.3773
   40TAL   C19528727   8.610  -2.172   9.975 -0.3390 -0.0844  0.5817
   40TAL   C19628728   8.672  -2.306   9.992  0.1158  0.3949  0.5100
   40TAL   C19728729   8.602  -2.389  10.097  0.4719  0.7620 -0.8904
   40TAL   C19828730   8.612  -2.541  10.122 -1.2448  0.4543 -1.1412
   40TAL   C19928731   8.585  -2.642  10.008 -0.3143 -0.5026  0.1306
   40TAL   C20028732   8.462  -2.638   9.915 -0.0729 -0.7441  0.3407
   41HTM   C20128733   8.386  -1.977  10.023  0.2616 -0.2283  0.1993
   41HTM   C20228734   8.363  -1.845   9.994  0.0615 -0.2627  0.1972
   41HTM   C20328735   8.367  -1.759  10.109 -0.3119 -0.2866  0.2319
   41HTM   C20428736   8.394  -1.825  10.226 -0.3965 -0.2699  0.2604
   41HTM    S2128737   8.415  -2.002  10.199 -0.0081 -0.2228  0.2456
   42TAL   C20528738   8.339  -1.615  10.083 -0.0435 -0.1520  0.1453
   42TAL   C20628739   8.431  -1.539   9.983 -0.3626 -0.1426  0.2435
   42TAL   C20728740   8.554  -1.485  10.035 -0.8478  0.5018 -0.0206
   42TAL   C20828741   8.559  -1.403  10.166 -0.0060 -0.0703  0.1306
   42TAL   C20928742   8.587  -1.247  10.145  0.0705  1.0839 -0.2823
   42TAL   C21028743   8.726  -1.220  10.097 -0.5653  0.7326  0.6301
   43HTM   C21128744   8.407  -1.782  10.367 -0.2084  0.0790 -0.0433
   43HTM   C21228745   8.371  -1.852  10.478 -0.6919  0.6601  0.1745
   43HTM   C21328746   8.396  -1.782  10.602 -0.7069  1.0797 -0.0552
   43HTM   C21428747   8.452  -1.659  10.585 -0.2351  0.8189 -0.4480
   43HTM    S2228748   8.477  -1.621  10.411  0.2692  0.0165 -0.5593
   44TAL   C21528749   8.359  -1.832  10.733  0.2841 -0.0404 -1.3496
   44TAL   C21628750   8.340  -1.984  10.751 -0.9214  0.2991  0.7923
   44TAL   C21728751   8.291  -2.030  10.885 -0.3644 -0.3171  0.1741
   44TAL   C21828752   8.299  -2.185  10.905 -0.0364  0.0889  1.6966
   44TAL   C21928753   8.437  -2.251  10.906 -0.0842 -0.2460  0.3476
   44TAL   C22028754   8.438  -2.401  10.869  0.2366  0.2412  0.6250
   45HTM   C22128755   8.496  -1.554  10.669  0.7890 -0.5436 -0.3781
   45HTM   C22228756   8.436  -1.431  10.668  1.2143 -0.3285 -1.2695
   45HTM   C22328757   8.495  -1.338  10.761  1.1842 -0.0317 -1.5464
   45HTM   C22428758   8.600  -1.390  10.832  0.7362 -0.0203 -0.8662
   45HTM    S2328759   8.631  -1.562  10.787  0.3143 -0.3868  0.1851
   46TAL   C22528760   8.442  -1.199  10.751  0.6143 -0.9282 -0.6811
   46TAL   C22628761   8.441  -1.133  10.612 -0.3404  0.6182 -0.0965
   46TAL   C22728762   8.560  -1.149  10.524  0.2596 -1.0048 -0.9068
   46TAL   C22828763   8.685  -1.066  10.556  0.3992  0.8025 -0.8564
   46TAL   C22928764   8.800  -1.080  10.451  0.8055  0.4524  0.0098
   46TAL   C23028765   8.918  -0.984  10.458 -0.1601 -0.3921  0.2638
   47HTM   C23128766   8.668  -1.349  10.949 -0.2762 -0.1021 -0.6115
   47HTM   C23228767   8.680  -1.217  10.977  0.0389 -0.0398 -1.0226
   47HTM   C23328768   8.749  -1.190  11.101  0.5457  0.1996 -1.3491
   47HTM   C23428769   8.789  -1.302  11.167  0.6173  0.3195 -1.1870
   47HTM    S2428770   8.743  -1.452  11.077  0.0456  0.1383 -0.6047
   48TAL   C23528771   8.769  -1.047  11.160  0.3672 -0.3224  0.2145
   48TAL   C23628772   8.877  -0.947  11.123  0.2558  0.0335  0.1815
   48TAL   C23728773   8.876  -0.912  10.976 -0.4589  0.2235 -0.5395
   48TAL   C23828774   8.764  -0.817  10.932  0.8536 -0.4580  0.4540
   48TAL   C23928775   8.718  -0.818  10.783  0.7115 -0.6310 -0.6116
   48TAL   C24028776   8.646  -0.695  10.739  0.2303  0.1185  0.2551
    1HTM     C128777   9.315   9.321   9.169 -0.2318  0.1987 -0.2915
    1HTM     C228778   9.270   9.202   9.220 -0.6058  0.4857  0.0634
    1HTM     C328779   9.265   9.096   9.123 -0.6120  0.1247  0.4530
    1HTM     C428780   9.305   9.134   8.998 -0.2429 -0.4367  0.3950
    1HTM     S128781   9.353   9.307   8.993  0.1438 -0.5550 -0.1601
    2TAL     C528782   9.213   8.957   9.147 -0.2811  0.1687 -0.1314
    2TAL     C628783   9.086   8.928   9.232  0.8956 -0.3836 -0.2286
    2TAL     C728784   9.063   8.774   9.271  0.7971 -0.5388 -0.6533
    2TAL     C828785   8.919   8.741   9.265 -0.2333 -1.3769  0.7756
    2TAL     C928786   8.876   8.627   9.183 -0.2270  1.8181  1.0531
    2TAL    C1028787   8.737   8.624   9.166  0.7284  0.5466  0.0443
    3HTM    C1128788   9.296   9.070   8.870  0.3462 -0.3886  0.0169
    3HTM    C1228789   9.333   8.945   8.828  0.4144 -0.2732 -0.2754
    3HTM    C1328790   9.315   8.924   8.687  0.1788 -0.0396 -0.2825
    3HTM    C1428791   9.264   9.032   8.621 -0.0692  0.0226  0.0040
    3HTM     S228792   9.236   9.170   8.733 -0.0233 -0.2102  0.3079
    4TAL    C1528793   9.355   8.786   8.637 -0.5451  0.0006 -0.1354
    4TAL    C1628794   9.399   8.768   8.492 -0.2249 -1.0957  1.4289
    4TAL    C1728795   9.472   8.639   8.440  0.7193  0.0422 -0.9334
    4TAL    C1828796   9.451   8.628   8.292 -0.3163  0.4359 -0.2649
    4TAL    C1928797   9.482   8.480   8.250  0.1947  0.2833  0.3628
    4TAL    C2028798   9.501   8.466   8.099 -0.2070  0.5287  0.2844
    5HTM    C2128799   9.235   9.050   8.484  0.4609 -0.3836  0.0169
    5HTM    C2228800   9.111   9.072   8.433  0.2506 -0.3943  0.5090
    5HTM    C2328801   9.110   9.093   8.290 -0.2775 -0.0563  0.5562
    5HTM    C2428802   9.233   9.087   8.233 -0.4695  0.2124  0.0998
    5HTM     S328803   9.362   9.054   8.356  0.0050  0.0580 -0.4289
    6TAL    C2528804   8.979   9.117   8.214 -0.1178  0.3757 -0.0654
    6TAL    C2628805   8.849   9.138   8.289 -0.0558  1.1044  0.2693
    6TAL    C2728806   8.737   9.168   8.194 -0.3123  0.2515  0.6314
    6TAL    C2828807   8.586   9.151   8.204 -0.4602 -0.6873 -0.2154
    6TAL    C2928808   8.546   9.023   8.269 -0.3596  0.2768  0.0914
    6TAL    C3028809   8.402   8.978   8.244 -0.9707 -0.4144  0.4835
    7HTM    C3128810   9.283   9.087   8.099  0.3394  0.5217  0.4374
    7HTM    C3228811   9.237   9.157   7.992  0.3552  0.3192  0.2966
    7HTM    C3328812   9.326   9.156   7.879  0.2923 -0.0393  0.2488
    7HTM    C3428813   9.440   9.085   7.900  0.2295 -0.1106  0.3531
    7HTM     S428814   9.444   9.013   8.065  0.2436  0.2727  0.5215
    8TAL    C3528815   9.310   9.230   7.752  0.4665  0.9974  0.9487
    8TAL    C3628816   9.333   9.374   7.738  0.0574  0.1450  0.8959
    8TAL    C3728817   9.273   9.432   7.601 -0.3989  0.1143 -1.5672
    8TAL    C3828818   9.290   9.582   7.604  0.1155 -0.0742  0.2392
    8TAL    C3928819   9.266   9.660   7.478 -0.1997 -0.4743  0.1687
    8TAL    C4028820   9.378   9.664   7.376 -0.3353  1.7204 -0.2283
    9HTM    C4128821   9.553   9.043   7.815  0.1282 -0.9618 -0.0258
    9HTM    C4228822   9.684   9.068   7.842  0.1419 -1.8406  0.8756
    9HTM    C4328823   9.771   9.051   7.728  0.6232 -1.2467  1.1392
    9HTM    C4428824   9.705   9.013   7.615  0.9770  0.0849  0.4388
    9HTM     S528825   9.528   8.995   7.643  0.7276  0.6967 -0.6161
   10TAL    C4528826   9.914   9.094   7.732 -0.8729  0.8486  0.0234
   10TAL    C4628827  10.001   8.977   7.777 -0.5480 -0.4262  0.6352
   10TAL    C4728828  10.144   9.031   7.780  0.7785  0.8889 -1.1954
   10TAL    C4828829  10.219   9.055   7.646  0.4161 -0.1546 -0.4535
   10TAL    C4928830  10.249   9.201   7.623  0.1722  0.2158  0.8816
   10TAL    C5028831  10.344   9.213   7.515 -1.1203  0.2027 -0.5404
   11HTM    C5128832   9.740   9.010   7.473 -0.6455 -0.5888  0.2992
   11HTM    C5228833   9.832   8.927   7.417 -1.0011 -0.9294  0.2115
   11HTM    C5328834   9.851   8.949   7.276 -0.7493 -0.7105  0.2780
   11HTM    C5428835   9.773   9.049   7.225 -0.2020 -0.2033  0.4162
   11HTM     S628836   9.670   9.123   7.352  0.0402  0.0392  0.4737
   12TAL    C5528837   9.958   8.871   7.208  0.3419 -0.0852 -0.0211
   12TAL    C5628838  10.028   8.747   7.278 -0.7634 -0.0725 -1.2442
   12TAL    C5728839  10.157   8.688   7.217  0.8279 -0.8698 -0.3623
   12TAL    C5828840  10.256   8.786   7.164 -0.2149 -0.7561  0.0691
   12TAL    C5928841  10.306   8.920   7.231 -0.1516 -0.5359  0.6735
   12TAL    C6028842  10.420   8.991   7.166 -0.2938 -0.8412  0.2417
   13HTM    C6128843   9.752   9.097   7.093 -0.7700  0.4158  0.2541
   13HTM    C6228844   9.851   9.136   7.007 -0.5118  0.5372  0.6011
   13HTM    C6328845   9.803   9.178   6.878 -0.0957  0.2675  0.3511
   13HTM    C6428846   9.667   9.172   6.866 -0.0369 -0.0594 -0.1866
   13HTM     S728847   9.589   9.111   7.017 -0.5060 -0.0518 -0.4207
   14TAL    C6528848   9.901   9.214   6.767  0.6402 -0.3596 -0.6010
   14TAL    C6628849  10.038   9.138   6.768 -1.0506  0.4151 -1.3604
   14TAL    C6728850  10.049   8.993   6.718 -0.5965  0.2477 -0.0928
   14TAL    C6828851  10.190   8.938   6.742  0.3078 -0.3251 -0.6157
   14TAL    C6928852  10.203   8.796   6.697  0.1495  0.2533 -0.0183
   14TAL    C7028853  10.319   8.722   6.766  0.5606 -0.0901  0.0582
   15HTM    C7128854   9.578   9.223   6.766 -0.1446  0.1354  0.2024
   15HTM    C7228855   9.588   9.240   6.631 -0.2220 -0.0005  0.1788
   15HTM    C7328856   9.471   9.298   6.571 -0.2174  0.0315  0.2015
   15HTM    C7428857   9.372   9.326   6.661 -0.1364  0.1917  0.2421
   15HTM     S828858   9.419   9.280   6.828 -0.0594  0.3157  0.2553
   16TAL    C7528859   9.479   9.357   6.434 -0.1251  0.6756 -0.1785
   16TAL    C7628860   9.605   9.401   6.363 -0.2725  0.8303 -0.4789
   16TAL    C7728861   9.700   9.285   6.316 -0.1210 -0.5373  0.3591
   16TAL    C7828862   9.830   9.324   6.259  0.5506 -0.8403 -0.8012
   16TAL    C7928863   9.834   9.413   6.142  0.4594  0.2657  0.4736
   16TAL    C8028864   9.849   9.562   6.174 -0.9329 -0.2126  0.5258
   17HTM    C8128865   9.237   9.356   6.634  0.2378  0.3829 -0.5610
   17HTM    C8228866   9.151   9.447   6.687  0.4284  0.8979 -1.1171
   17HTM    C8328867   9.020   9.445   6.627  0.4699  0.9143 -1.2085
   17HTM    C8428868   9.007   9.352   6.529  0.3108  0.4112 -0.7221
   17HTM     S928869   9.159   9.259   6.504  0.0946 -0.1256 -0.1060
   18TAL    C8528870   8.915   9.532   6.693  0.3723  0.4863  0.4085
   18TAL    C8628871   8.805   9.485   6.797 -0.2411  0.9454  0.0415
   18TAL    C8728872   8.861   9.430   6.929 -0.0083 -0.3413 -0.2117
   18TAL    C8828873   8.895   9.550   7.015 -0.3974  1.0091 -0.1940
   18TAL    C8928874   8.950   9.495   7.141  0.4807 -0.6866 -0.2312
   18TAL    C9028875   9.009   9.604   7.233 -0.2708 -0.0869 -0.1519
   19HTM    C9128876   8.893   9.310   6.450 -0.0661  0.0224  1.0476
   19HTM    C9228877   8.858   9.333   6.321  0.0813  1.1904  1.1897
   19HTM    C9328878   8.727   9.284   6.287  0.0498  1.6341  0.6318
   19HTM    C9428879   8.662   9.223   6.391 -0.1216  0.8046  0.0642
   19HTM    S1028880   8.763   9.224   6.541 -0.2582 -0.6131  0.1912
   20TAL    C9528881   8.653   9.304   6.154 -0.6862  0.5320  0.5302
   20TAL    C9628882   8.669   9.436   6.081 -1.2853  0.1256  0.0789
   20TAL    C9728883   8.606   9.456   5.945  0.5764  0.9083  1.0575
   20TAL    C9828884   8.587   9.606   5.934 -0.9316 -0.2280 -0.6341
   20TAL    C9928885   8.484   9.642   5.821 -0.7650  0.9812  0.1370
   20TAL   C10028886   8.523   9.608   5.680  0.8637 -0.4255  0.9481
   21HTM   C10128887   8.531   9.157   6.390 -0.5072  0.0857 -0.4248
   21HTM   C10228888   8.447   9.138   6.496 -0.4551  0.1328 -0.3753
   21HTM   C10328889   8.355   9.028   6.479 -0.2255 -0.1013 -0.1329
   21HTM   C10428890   8.369   8.964   6.359 -0.1026 -0.3270  0.0020
   21HTM    S1128891   8.500   9.037   6.259 -0.2682 -0.2610 -0.1676
   22TAL   C10528892   8.253   8.997   6.586 -0.7896 -0.1404  0.5189
   22TAL   C10628893   8.281   8.864   6.658 -0.3471  0.5548 -0.1174
   22TAL   C10728894   8.149   8.780   6.686 -0.0500 -0.6771  0.1048
   22TAL   C10828895   8.157   8.672   6.780 -0.1012  0.0968 -0.1255
   22TAL   C10928896   8.247   8.558   6.731 -0.9451  0.7117 -0.0085
   22TAL   C11028897   8.288   8.437   6.822 -0.0768  0.0594  0.7186
   23HTM   C11128898   8.287   8.857   6.305  0.0146 -0.0514 -0.3575
   23HTM   C11228899   8.234   8.744   6.361 -0.0393 -0.0460 -0.3978
   23HTM   C11328900   8.135   8.680   6.279 -0.1609  0.1009 -0.3662
   23HTM   C11428901   8.112   8.743   6.160 -0.1993  0.2074 -0.3019
   23HTM    S1228902   8.215   8.890   6.143 -0.0843  0.1297 -0.2761
   24TAL   C11528903   8.064   8.555   6.325 -0.2196 -0.3885  0.1251
   24TAL   C11628904   8.001   8.550   6.461 -0.0344 -0.3312  0.5683
   24TAL   C11728905   7.950   8.425   6.552 -0.5277  0.3233  0.3836
   24TAL   C11828906   7.880   8.482   6.675 -0.7393  0.3318 -0.4011
   24TAL   C11928907   7.830   8.394   6.789 -0.3995 -0.3054 -0.5677
   24TAL   C12028908   7.936   8.317   6.858  0.9229 -0.0615  0.2365
   25HTM   C12128909   8.035   8.696   6.046  0.2131  0.1969  0.0190
   25HTM   C12228910   8.058   8.739   5.919  0.5281 -0.2615 -0.0839
   25HTM   C12328911   7.972   8.677   5.821  0.6496 -0.4852 -0.0494
   25HTM   C12428912   7.885   8.587   5.874  0.4272 -0.1968  0.0801
   25HTM    S1328913   7.903   8.573   6.053  0.0446  0.3841  0.1687
   26TAL   C12528914   7.968   8.728   5.681 -0.4851 -0.3963  0.2996
   26TAL   C12628915   7.937   8.869   5.658  0.1665 -0.4654 -0.3856
   26TAL   C12728916   7.877   8.900   5.520  0.2109  0.9612  0.9585
   26TAL   C12828917   7.939   8.847   5.392  0.4357  0.0300  0.0283
   26TAL   C12928918   7.848   8.739   5.333 -0.7974 -0.0977  0.8881
   26TAL   C13028919   7.883   8.675   5.193 -0.0952  0.2488  0.4755
   27HTM   C13128920   7.770   8.521   5.813  0.4119 -0.2052  0.0781
   27HTM   C13228921   7.646   8.498   5.866  0.2530  0.5794  0.0718
   27HTM   C13328922   7.555   8.435   5.775 -0.1632  1.1816  0.0584
   27HTM   C13428923   7.608   8.409   5.652 -0.3216  0.8561  0.0547
   27HTM    S1428924   7.780   8.464   5.642  0.0456 -0.2447  0.0679
   28TAL   C13528925   7.413   8.423   5.823 -0.8069 -0.0438 -0.5870
   28TAL   C13628926   7.324   8.546   5.824 -0.2390  0.2408 -0.6018
   28TAL   C13728927   7.175   8.526   5.851 -0.0182 -0.3254 -0.0916
   28TAL   C13828928   7.122   8.463   5.982  0.4470  0.2930  0.5966
   28TAL   C13928929   7.159   8.541   6.109  0.2350 -0.0994  0.3776
   28TAL   C14028930   7.139   8.468   6.245  0.4924  0.8215 -1.1798
   29HTM   C14128931   7.551   8.339   5.542 -1.0344 -0.2709  0.0301
   29HTM   C14228932   7.464   8.233   5.541 -1.5483  0.1435 -0.4860
   29HTM   C14328933   7.423   8.193   5.409 -1.1063  0.4683 -0.7271
   29HTM   C14428934   7.479   8.268   5.309 -0.2555  0.3012 -0.3946
   29HTM    S1528935   7.588   8.395   5.375  0.0561 -0.2836  0.2537
   30TAL   C14528936   7.331   8.071   5.394 -0.1284  0.0459  0.6389
   30TAL   C14628937   7.414   7.946   5.398  0.4472  0.1318 -0.2464
   30TAL   C14728938   7.360   7.813   5.449  0.5892 -0.6987  0.2802
   30TAL   C14828939   7.282   7.818   5.584 -0.4448  0.4167 -0.3261
   30TAL   C14928940   7.140   7.794   5.552  0.5522 -0.3064  0.1133
   30TAL   C15028941   7.050   7.818   5.667 -0.7103  0.9127 -0.6762
   31HTM   C15128942   7.466   8.274   5.174 -1.2497 -0.0907  0.4151
   31HTM   C15228943   7.429   8.184   5.079 -1.3981 -0.0448  0.4292
   31HTM   C15328944   7.402   8.242   4.951 -0.5368 -0.1070  0.2072
   31HTM   C15428945   7.418   8.378   4.948  0.2682 -0.2010  0.0238
   31HTM    S1628946   7.470   8.442   5.109 -0.0008 -0.2174  0.1179
   32TAL   C15528947   7.329   8.151   4.844 -0.0677 -1.1186 -0.8173
   32TAL   C15628948   7.358   8.169   4.695 -0.6835 -0.0002  0.3664
   32TAL   C15728949   7.275   8.091   4.588  0.0116 -0.2993  0.0356
   32TAL   C15828950   7.238   7.948   4.634 -0.2558  0.0002 -0.5942
   32TAL   C15928951   7.347   7.838   4.625 -0.2617  0.2706  0.9169
   32TAL   C16028952   7.291   7.710   4.678 -0.0239  1.0307 -0.1619
   33HTM   C16128953   7.403   8.471   4.838 -0.1416 -0.2994 -0.4822
   33HTM   C16228954   7.492   8.486   4.736 -0.1577 -0.0751 -0.4637
   33HTM   C16328955   7.465   8.601   4.652  0.1009  0.3779  0.0629
   33HTM   C16428956   7.356   8.673   4.691  0.3140  0.4988  0.4461
   33HTM    S1728957   7.278   8.601   4.837  0.2041  0.0461  0.1693
   34TAL   C16528958   7.574   8.647   4.553  1.0799  0.2318 -1.1737
   34TAL   C16628959   7.570   8.571   4.414 -0.0838  0.4068  0.5556
   34TAL   C16728960   7.673   8.574   4.294  0.7639  0.3626 -0.2439
   34TAL   C16828961   7.702   8.709   4.227  0.4217  0.2496  0.6816
   34TAL   C16928962   7.824   8.775   4.290 -0.1528  0.4236  0.1773
   34TAL   C17028963   7.770   8.903   4.343 -0.3243  0.9283 -0.6859
   35HTM   C17128964   7.314   8.803   4.638 -0.0875 -0.2439  0.5695
   35HTM   C17228965   7.309   8.924   4.701 -0.4046 -0.3796  0.8131
   35HTM   C17328966   7.269   9.032   4.615 -0.3831 -0.2599  0.9527
   35HTM   C17428967   7.244   8.994   4.486 -0.0494 -0.0332  0.8156
   35HTM    S1828968   7.268   8.816   4.464  0.2657  0.0472  0.4972
   36TAL   C17528969   7.260   9.176   4.665  0.0153 -0.0486  0.2378
   36TAL   C17628970   7.379   9.223   4.754  0.2190  0.3600  0.7333
   36TAL   C17728971   7.514   9.260   4.677  0.7464  0.3682 -0.5920
   36TAL   C17828972   7.482   9.370   4.569 -0.0711  1.0350  1.1912
   36TAL   C17928973   7.612   9.434   4.560 -0.1615  0.6661  0.9066
   36TAL   C18028974   7.628   9.499   4.426 -0.2064  0.6823 -0.2749
   37HTM   C18128975   7.229   9.073   4.362 -1.3485 -0.5595  0.3521
   37HTM   C18228976   7.293   9.052   4.243 -1.2131 -0.9398  0.4874
   37HTM   C18328977   7.255   9.146   4.140 -0.3421 -0.6237  0.4386
   37HTM   C18428978   7.163   9.238   4.181  0.1866 -0.0019  0.2662
   37HTM    S1928979   7.116   9.213   4.353 -0.3788  0.2335  0.1510
   38TAL   C18528980   7.320   9.131   3.997 -1.1472  0.8926 -0.4015
   38TAL   C18628981   7.254   9.014   3.914 -0.2465 -0.1980 -0.0227
   38TAL   C18728982   7.281   9.013   3.763 -1.5402  0.0047  0.7193
   38TAL   C18828983   7.312   9.149   3.681  0.0666  0.0163 -0.7172
   38TAL   C18928984   7.396   9.106   3.565  0.9956  0.0311 -0.0345
   38TAL   C19028985   7.446   9.217   3.471 -0.5748 -0.2111 -1.1569
   39HTM   C19128986   7.108   9.350   4.115  0.2243  0.1308  0.6140
   39HTM   C19228987   7.100   9.377   3.982  0.9521  0.3293  0.6027
   39HTM   C19328988   7.044   9.506   3.951  0.9530  0.3028  0.4874
   39HTM   C19428989   7.010   9.578   4.061  0.2258  0.0839  0.4108
   39HTM    S2028990   7.045   9.488   4.213 -0.5222 -0.1069  0.4789
   40TAL   C19528991   7.024   9.525   3.807  0.5163 -0.0730 -0.4347
   40TAL   C19628992   7.139   9.579   3.713  0.8550 -0.0938 -0.8458
   40TAL   C19728993   7.148   9.729   3.695  0.4983 -1.5337 -0.6613
   40TAL   C19828994   7.023   9.824   3.657 -0.6659  0.2761  0.1669
   40TAL   C19928995   7.081   9.957   3.619  0.8712 -0.5140 -0.8255
   40TAL   C20028996   6.984  10.051   3.545 -0.1013 -0.8850  0.3426
   41HTM   C20128997   6.968   9.715   4.066  0.2511  0.2927 -0.7288
   41HTM   C20228998   7.030   9.812   4.139  0.2583  0.1736 -0.5748
   41HTM   C20328999   6.974   9.943   4.120  0.1979  0.1917 -0.2844
   41HTM   C20429000   6.870   9.946   4.032  0.1444  0.3249 -0.2173
   41HTM    S2129001   6.833   9.782   3.967  0.1665  0.4386 -0.5175
   42TAL   C20529002   7.049  10.060   4.193  0.6333 -0.5053  0.0296
   42TAL   C20629003   7.207  10.042   4.227  1.1773  0.6535  0.2127
   42TAL   C20729004   7.304  10.033   4.109 -0.3887  0.2506  0.1624
   42TAL   C20829005   7.292  10.121   3.977  0.0938  0.1602 -0.1351
   42TAL   C20929006   7.389  10.232   3.931  0.6834  0.3796 -0.6016
   42TAL   C21029007   7.528  10.184   3.917 -0.7161  0.2814  0.3344
   43HTM   C21129008   6.789  10.063   3.990  0.6195  0.5043 -0.1255
   43HTM   C21229009   6.757  10.086   3.860  1.1288  0.8319 -0.1979
   43HTM   C21329010   6.708  10.219   3.835  1.0616  0.8398 -0.0252
   43HTM   C21429011   6.702  10.297   3.946  0.5006  0.5182  0.1792
   43HTM    S2229012   6.759  10.209   4.092  0.0103  0.1778  0.1691
   44TAL   C21529013   6.665  10.261   3.690 -0.5028 -0.4378  0.6171
   44TAL   C21629014   6.533  10.198   3.636  0.7623 -0.5044  1.2571
   44TAL   C21729015   6.481  10.243   3.493  0.2483 -0.1588 -0.0657
   44TAL   C21829016   6.498  10.384   3.451 -0.2313 -0.8080  0.4894
   44TAL   C21929017   6.403  10.490   3.516  0.7210 -0.9405  0.3523
   44TAL   C22029018   6.478  10.624   3.567  0.4525 -0.0893 -0.2575
   45HTM   C22129019   6.647  10.437   3.947 -0.1147  0.3317  0.3566
   45HTM   C22229020   6.537  10.485   4.012  0.1364  0.7752  0.4605
   45HTM   C22329021   6.507  10.623   3.981  0.4941  0.8119  0.2679
   45HTM   C22429022   6.594  10.679   3.893  0.5157  0.3963  0.0172
   45HTM    S2329023   6.722  10.562   3.842  0.0825 -0.0772  0.0047
   46TAL   C22529024   6.384  10.687   4.043  0.2387 -0.4433  0.1706
   46TAL   C22629025   6.235  10.643   4.040 -0.3181 -0.5579  0.1709
   46TAL   C22729026   6.215  10.559   3.913  0.0511 -0.6739 -0.7905
   46TAL   C22829027   6.195  10.405   3.933  0.6159  0.9582  0.5671
   46TAL   C22929028   6.269  10.294   3.849  0.6854 -0.5483 -0.8164
   46TAL   C23029029   6.325  10.189   3.945 -0.4825  0.4272 -0.9099
   47HTM   C23129030   6.601  10.820   3.861  0.0068  0.5104  0.0807
   47HTM   C23229031   6.496  10.898   3.819  0.2531  0.8042  0.0024
   47HTM   C23329032   6.537  11.023   3.761  0.6546  0.6358 -0.0867
   47HTM   C23429033   6.672  11.041   3.758  0.7143  0.2137 -0.0760
   47HTM    S2429034   6.759  10.901   3.830  0.2648 -0.0057  0.0481
   48TAL   C23529035   6.452  11.136   3.703 -0.5079 -0.4223  0.2859
   48TAL   C23629036   6.330  11.198   3.790  1.1045 -0.3794  0.7130
   48TAL   C23729037   6.215  11.104   3.830 -1.1518  0.8815  0.1202
   48TAL   C23829038   6.152  11.124   3.962  0.4984 -0.4017 -0.3111
   48TAL   C23929039   6.048  11.026   4.018 -0.9647 -0.9285  0.5297
   48TAL   C24029040   6.044  11.017   4.168 -0.2517  0.0264  0.4276
    1HTM     C129041   9.675   3.015   4.983 -0.1928 -0.0300  0.1425
    1HTM     C229042   9.684   2.978   5.114 -0.1414 -0.2018  0.0918
    1HTM     C329043   9.576   3.028   5.196 -0.0467 -0.2108  0.2218
    1HTM     C429044   9.485   3.102   5.127 -0.0265 -0.0456  0.3720
    1HTM     S129045   9.528   3.115   4.952 -0.1258  0.1352  0.3604
    2TAL     C529046   9.560   2.983   5.351  0.3665 -0.7372  0.0311
    2TAL     C629047   9.589   2.839   5.388 -0.2451 -0.0695  0.4557
    2TAL     C729048   9.551   2.810   5.531 -0.2015 -0.2035 -1.1206
    2TAL     C829049   9.658   2.730   5.606 -0.4896  0.3748  0.5142
    2TAL     C929050   9.627   2.670   5.748  0.3470  0.0351 -0.2239
    2TAL    C1029051   9.610   2.764   5.872 -0.2592  0.7458  0.6331
    3HTM    C1129052   9.370   3.177   5.172  0.6549  0.2135 -0.5907
    3HTM    C1229053   9.279   3.235   5.089  0.9789  0.9264 -0.4631
    3HTM    C1329054   9.170   3.300   5.158  0.9973  0.8094 -0.3244
    3HTM    C1429055   9.179   3.291   5.293  0.6868  0.0072 -0.3462
    3HTM     S229056   9.325   3.200   5.345  0.3448 -0.6679 -0.5453
    4TAL    C1529057   9.059   3.369   5.080  0.7897 -0.4636 -0.3530
    4TAL    C1629058   9.008   3.315   4.947  0.3107 -0.4254  0.9722
    4TAL    C1729059   8.931   3.411   4.849 -0.8961 -0.3519 -0.4222
    4TAL    C1829060   8.923   3.356   4.705  1.1096 -0.2176  0.4213
    4TAL    C1929061   8.918   3.467   4.605 -0.0915 -0.4036  1.5205
    4TAL    C2029062   8.927   3.415   4.462 -0.5002 -1.0104 -0.4611
    5HTM    C2129063   9.101   3.350   5.395  0.0562  0.5239 -0.5769
    5HTM    C2229064   9.152   3.402   5.510  0.2298  0.4717 -0.6307
    5HTM    C2329065   9.057   3.476   5.588  0.1905 -0.0898 -0.1394
    5HTM    C2429066   8.932   3.479   5.533 -0.0135 -0.4658  0.2892
    5HTM     S329067   8.925   3.389   5.377 -0.1729 -0.1372  0.1039
    6TAL    C2529068   9.092   3.527   5.725 -0.0127 -0.2361 -0.0682
    6TAL    C2629069   9.151   3.445   5.834  0.2848  0.5212 -0.1869
    6TAL    C2729070   9.160   3.289   5.830  0.0894  0.1983  1.4937
    6TAL    C2829071   9.268   3.247   5.928 -0.2383  0.1996  0.1653
    6TAL    C2929072   9.271   3.096   5.933  0.2684  0.2103 -0.2829
    6TAL    C3029073   9.374   3.048   6.037 -0.0017 -0.3452 -0.4118
    7HTM    C3129074   8.812   3.533   5.590 -0.4644  0.2203 -0.0696
    7HTM    C3229075   8.755   3.656   5.572 -0.6809  0.1928  0.3943
    7HTM    C3329076   8.639   3.679   5.654 -0.4952 -0.1737  0.7634
    7HTM    C3429077   8.608   3.574   5.736 -0.1372 -0.4256  0.5809
    7HTM     S429078   8.723   3.437   5.714 -0.0056 -0.2179 -0.0763
    8TAL    C3529079   8.549   3.802   5.646 -0.6836  0.4348 -0.3607
    8TAL    C3629080   8.577   3.919   5.745  0.0870  1.1509 -0.5860
    8TAL    C3729081   8.606   3.886   5.887 -0.3057  0.4075 -0.1149
    8TAL    C3829082   8.665   3.991   5.976  0.0118 -0.4757 -1.0135
    8TAL    C3929083   8.785   4.076   5.942  0.2247  1.0849 -0.1218
    8TAL    C4029084   8.864   4.126   6.052  0.5263  0.4464  0.6059
    9HTM    C4129085   8.510   3.550   5.833 -0.0647 -0.4531 -0.7241
    9HTM    C4229086   8.376   3.573   5.821  0.0005 -0.1517 -0.8831
    9HTM    C4329087   8.302   3.544   5.941 -0.1361  0.5251 -0.7963
    9HTM    C4429088   8.379   3.499   6.044 -0.3052  0.7396 -0.5713
    9HTM     S529089   8.553   3.488   5.997 -0.3053  0.0987 -0.4505
   10TAL    C4529090   8.144   3.558   5.944 -1.1837  0.0954  0.3082
   10TAL    C4629091   8.067   3.449   5.864  0.3137 -0.6841 -0.0385
   10TAL    C4729092   8.066   3.321   5.943 -0.0598  1.1977  0.2720
   10TAL    C4829093   8.113   3.192   5.868 -0.5219 -0.3500 -0.4347
   10TAL    C4929094   8.260   3.200   5.813  0.4447  1.1838  1.4006
   10TAL    C5029095   8.364   3.088   5.817 -0.0545 -0.0739 -1.0749
   11HTM    C5129096   8.346   3.500   6.186 -0.3606  0.3924 -0.5815
   11HTM    C5229097   8.435   3.530   6.284  0.0668  1.0064 -1.1377
   11HTM    C5329098   8.377   3.537   6.416  0.6974  1.4342 -0.8683
   11HTM    C5429099   8.242   3.512   6.417  0.7505  1.1464 -0.1066
   11HTM     S629100   8.179   3.478   6.252  0.0030  0.3061  0.3328
   12TAL    C5529101   8.467   3.546   6.535 -0.2670  0.7669  0.6684
   12TAL    C5629102   8.494   3.412   6.599 -0.6181  0.2935  0.2666
   12TAL    C5729103   8.607   3.325   6.551 -0.2679 -0.4145 -0.2539
   12TAL    C5829104   8.749   3.391   6.535  0.0817  0.3239 -0.4177
   12TAL    C5929105   8.865   3.300   6.498  0.1112  0.7204  0.3549
   12TAL    C6029106   8.990   3.379   6.472  0.2846  0.0941 -0.1839
   13HTM    C6129107   8.150   3.558   6.522 -0.0841  1.0206 -0.0034
   13HTM    C6229108   8.020   3.594   6.505 -0.3812  0.1632  0.3206
   13HTM    C6329109   7.949   3.618   6.628 -0.4308 -0.9033  0.5240
   13HTM    C6429110   8.026   3.601   6.739 -0.1715 -0.8591  0.3551
   13HTM     S729111   8.194   3.552   6.697  0.1579  0.5439 -0.0771
   14TAL    C6529112   7.806   3.663   6.646  0.3330 -0.5619 -0.1931
   14TAL    C6629113   7.729   3.735   6.540  0.7670  0.4543 -0.5672
   14TAL    C6729114   7.590   3.786   6.564  0.0601 -0.0037 -0.4601
   14TAL    C6829115   7.478   3.682   6.566  0.1410  0.3111 -0.3355
   14TAL    C6929116   7.394   3.648   6.438  0.6456 -0.1376 -0.8024
   14TAL    C7029117   7.292   3.540   6.465 -0.3969 -0.5132 -0.6618
   15HTM    C7129118   8.008   3.615   6.881  0.2206  0.1754  0.0091
   15HTM    C7229119   8.102   3.667   6.965  0.2570 -0.1216  0.1560
   15HTM    C7329120   8.080   3.637   7.104  0.1554 -0.3684  0.0883
   15HTM    C7429121   7.968   3.563   7.126  0.0409 -0.2594 -0.1101
   15HTM     S829122   7.882   3.524   6.973  0.0533  0.1665 -0.2279
   16TAL    C7529123   8.190   3.687   7.195  0.1798  0.3668 -0.7557
   16TAL    C7629124   8.328   3.626   7.171 -0.2310  0.2902  1.2663
   16TAL    C7729125   8.446   3.717   7.198  0.2884  0.3458 -0.9615
   16TAL    C7829126   8.462   3.798   7.332  0.3144 -0.3869  0.1058
   16TAL    C7929127   8.510   3.940   7.305  0.3513 -0.5544 -0.4029
   16TAL    C8029128   8.554   3.999   7.444  1.3072  0.8465 -0.1617
   17HTM    C8129129   7.893   3.532   7.255  0.0893 -0.0418  0.0423
   17HTM    C8229130   7.758   3.512   7.256  0.0246  0.3850  0.2064
   17HTM    C8329131   7.704   3.488   7.387  0.1101  0.5311  0.2689
   17HTM    C8429132   7.798   3.489   7.486  0.2399  0.2158  0.1523
   17HTM     S929133   7.963   3.521   7.420  0.2648 -0.2943 -0.0468
   18TAL    C8529134   7.554   3.453   7.398  0.4734  0.3530 -0.0682
   18TAL    C8629135   7.522   3.306   7.391 -0.2969 -0.1998  0.6317
   18TAL    C8729136   7.529   3.247   7.256 -0.6235  0.1741 -0.4101
   18TAL    C8829137   7.496   3.099   7.248 -0.0345  0.6612  0.8620
   18TAL    C8929138   7.578   2.990   7.303 -0.0672  0.0600  0.2233
   18TAL    C9029139   7.723   3.021   7.329  0.4951  0.5967 -0.3422
   19HTM    C9129140   7.783   3.471   7.637 -0.1103  0.1730 -0.0085
   19HTM    C9229141   7.886   3.469   7.726 -0.1363 -0.8661  0.0215
   19HTM    C9329142   7.843   3.474   7.864 -0.1382 -1.0622  0.0290
   19HTM    C9429143   7.708   3.480   7.879 -0.1132 -0.1727  0.0043
   19HTM    S1029144   7.623   3.480   7.720 -0.0858  0.9906 -0.0303
   20TAL    C9529145   7.938   3.470   7.972 -1.2824  0.0419 -0.8730
   20TAL    C9629146   8.023   3.348   8.007 -1.1681  0.8095  0.0584
   20TAL    C9729147   8.152   3.399   8.070 -0.3815 -0.4608 -0.0956
   20TAL    C9829148   8.134   3.429   8.217  0.3905 -0.0835 -1.0159
   20TAL    C9929149   8.259   3.445   8.310 -0.3239  0.3863 -0.6211
   20TAL   C10029150   8.344   3.561   8.291  0.6788 -0.7627  0.5184
   21HTM   C10129151   7.620   3.503   7.993 -0.4381 -0.0177  0.3829
   21HTM   C10229152   7.491   3.546   7.997 -0.5369 -0.3113  0.4166
   21HTM   C10329153   7.431   3.540   8.127 -0.3980 -0.1853  0.4866
   21HTM   C10429154   7.515   3.492   8.224 -0.1931  0.2044  0.5064
   21HTM    S1129155   7.677   3.450   8.156 -0.1596  0.4443  0.4376
   22TAL   C10529156   7.299   3.612   8.154 -0.8215  0.2031  0.3189
   22TAL   C10629157   7.288   3.762   8.130  1.2661 -0.6660 -0.7913
   22TAL   C10729158   7.164   3.828   8.212 -0.2144  0.0031  0.5935
   22TAL   C10829159   7.127   3.975   8.200  1.9175  0.3035 -0.9903
   22TAL   C10929160   7.029   4.038   8.311 -0.7706 -0.4499  0.7511
   22TAL   C11029161   6.879   4.008   8.297 -0.4351  0.1758 -0.1244
   23HTM   C11129162   7.495   3.470   8.357 -0.2611  0.3741  0.0930
   23HTM   C11229163   7.447   3.372   8.439  0.4098 -0.0469 -0.0019
   23HTM   C11329164   7.439   3.410   8.577  0.9711 -0.5490  0.1762
   23HTM   C11429165   7.481   3.537   8.602  0.7281 -0.5108  0.4070
   23HTM    S1229166   7.535   3.619   8.450 -0.2359  0.1675  0.4171
   24TAL   C11529167   7.390   3.312   8.682  0.1575  0.2475  0.0268
   24TAL   C11629168   7.466   3.176   8.685  0.4775 -0.3936 -0.7806
   24TAL   C11729169   7.387   3.059   8.725 -0.1211  0.3998  0.1750
   24TAL   C11829170   7.461   2.926   8.711 -0.4494 -1.2916 -0.0330
   24TAL   C11929171   7.526   2.863   8.830 -0.0781 -0.1635 -0.2283
   24TAL   C12029172   7.658   2.783   8.810  0.4308 -0.3288  0.4254
   25HTM   C12129173   7.494   3.607   8.727  0.3743 -0.3915  0.1527
   25HTM   C12229174   7.611   3.662   8.770  0.5076 -0.9429  0.5274
   25HTM   C12329175   7.606   3.712   8.905  0.4737 -1.3781  0.6902
   25HTM   C12429176   7.485   3.695   8.965  0.3146 -1.1584  0.4395
   25HTM    S1329177   7.367   3.613   8.856  0.1942 -0.3787 -0.0250
   26TAL   C12529178   7.706   3.790   8.991 -0.4489 -0.0029  1.5512
   26TAL   C12629179   7.837   3.837   8.920  1.1733  0.1349 -0.8598
   26TAL   C12729180   7.814   3.925   8.797  0.4242 -0.3272 -0.3984
   26TAL   C12829181   7.926   3.930   8.691  0.5307 -0.8351 -0.4527
   26TAL   C12929182   7.977   3.796   8.646 -0.2708  0.6372 -0.9074
   26TAL   C13029183   8.073   3.795   8.527  0.2393  0.6093 -0.3934
   27HTM   C13129184   7.438   3.722   9.100 -0.0283  0.9734  0.2068
   27HTM   C13229185   7.498   3.776   9.209  0.0889  0.3328  0.4716
   27HTM   C13329186   7.417   3.770   9.329  0.2096 -0.3496  0.5260
   27HTM   C13429187   7.296   3.711   9.310  0.1842 -0.2292  0.3031
   27HTM    S1429188   7.274   3.658   9.139  0.0050  0.7629  0.0042
   28TAL   C13529189   7.454   3.853   9.460 -0.1154 -0.5133  0.7375
   28TAL   C13629190   7.524   3.986   9.427  0.4736  0.1516 -0.0973
   28TAL   C13729191   7.611   4.028   9.550 -0.4757  0.2719  0.3183
   28TAL   C13829192   7.683   4.164   9.549 -0.2449 -0.3708  0.0113
   28TAL   C13929193   7.580   4.276   9.565 -0.8390 -0.4049 -0.6547
   28TAL   C14029194   7.634   4.421   9.592 -0.1040  0.5878 -0.3038
   29HTM   C14129195   7.185   3.671   9.398  0.0566  0.4544 -0.3899
   29HTM   C14229196   7.062   3.622   9.363  0.0775  0.5034 -0.5319
   29HTM   C14329197   6.978   3.591   9.475  0.0862  0.1549 -0.6196
   29HTM   C14429198   7.035   3.616   9.596  0.0715 -0.1598 -0.5449
   29HTM    S1529199   7.202   3.682   9.577  0.0457 -0.0394 -0.3561
   30TAL   C14529200   6.856   3.507   9.449 -0.1315  0.3674 -0.4012
   30TAL   C14629201   6.853   3.416   9.324  0.4734 -0.3381  0.0846
   30TAL   C14729202   6.734   3.319   9.343  1.0593 -0.6756 -0.3297
   30TAL   C14829203   6.617   3.298   9.241 -0.1271 -0.2802  0.1225
   30TAL   C14929204   6.516   3.423   9.238 -0.0402  1.0267  0.1057
   30TAL   C15029205   6.382   3.362   9.188 -0.2389  0.1007 -0.9243
   31HTM   C15129206   6.980   3.605   9.735 -0.2602  0.1487  0.2807
   31HTM   C15229207   6.999   3.694   9.837 -0.5265  0.3983  0.1184
   31HTM   C15329208   6.932   3.657   9.959 -0.4110  0.4170  0.1877
   31HTM   C15429209   6.862   3.541   9.950 -0.0564  0.1816  0.4030
   31HTM    S1629210   6.874   3.468   9.786  0.1605 -0.0841  0.5358
   32TAL   C15529211   6.934   3.757  10.077 -0.2002 -0.3222 -0.3253
   32TAL   C15629212   6.794   3.822  10.104 -0.0921 -0.3495 -0.0231
   32TAL   C15729213   6.775   3.920  10.223 -0.4703 -0.5787  0.2918
   32TAL   C15829214   6.882   4.028  10.254 -0.4280  0.1508  0.9406
   32TAL   C15929215   6.879   4.147  10.157 -0.0129 -0.2563 -0.0342
   32TAL   C16029216   7.002   4.233  10.171 -0.1634 -0.5267  0.3913
   33HTM   C16129217   6.778   3.479  10.048  0.5607 -0.0353 -0.4474
   33HTM   C16229218   6.642   3.472  10.050  0.5553 -0.0337 -0.6786
   33HTM   C16329219   6.590   3.404  10.167  0.3660 -0.2670 -0.8960
   33HTM   C16429220   6.686   3.361  10.252  0.2271 -0.4466 -0.8305
   33HTM    S1729221   6.851   3.401  10.193  0.3254 -0.3340 -0.4865
   34TAL   C16529222   6.436   3.390  10.181 -0.2313  0.4644  0.3044
   34TAL   C16629223   6.367   3.516  10.217 -0.6671 -0.2106 -1.2432
   34TAL   C16729224   6.219   3.517  10.193 -0.7137  0.5323  0.0924
   34TAL   C16829225   6.159   3.618  10.289  0.6945  0.4866 -0.4813
   34TAL   C16929226   6.140   3.750  10.219  0.0520  0.1707  0.2091
   34TAL   C17029227   6.070   3.842  10.312  0.5495  0.3973  0.0981
   35HTM   C17129228   6.671   3.298  10.383  0.3430 -0.4633 -0.1278
   35HTM   C17229229   6.782   3.269  10.456  0.2694 -0.9602 -0.2051
   35HTM   C17329230   6.754   3.207  10.583  0.0877 -0.9472 -0.2389
   35HTM   C17429231   6.621   3.188  10.606  0.0227 -0.4405 -0.1874
   35HTM    S1829232   6.520   3.248  10.469  0.1870  0.0635 -0.0915
   36TAL   C17529233   6.862   3.176  10.674 -0.6827  0.8991  0.4753
   36TAL   C17629234   7.009   3.236  10.638 -0.3100 -0.6096 -0.0033
   36TAL   C17729235   7.117   3.196  10.737  0.7302  0.0008  0.2518
   36TAL   C17829236   7.249   3.240  10.676  0.3246 -0.2984  0.0873
   36TAL   C17929237   7.287   3.387  10.704  0.4082 -1.0285  0.4013
   36TAL   C18029238   7.432   3.401  10.682  0.2647 -0.1644 -0.8204
   37HTM   C18129239   6.562   3.135  10.725  0.1266  0.4405 -0.1971
   37HTM   C18229240   6.458   3.190  10.795 -0.4396  0.2792 -0.8877
   37HTM   C18329241   6.399   3.101  10.891 -0.7993  0.2650 -1.1159
   37HTM   C18429242   6.458   2.978  10.895 -0.5074  0.4152 -0.5993
   37HTM    S1929243   6.593   2.965  10.777  0.2503  0.5879  0.2218
   38TAL   C18529244   6.269   3.125  10.976  0.6625 -0.0054  0.6085
   38TAL   C18629245   6.146   3.161  10.908  0.7591  0.7890  1.3174
   38TAL   C18729246   6.119   3.308  10.882 -0.2702  0.0438  0.2609
   38TAL   C18829247   5.998   3.332  10.789 -0.0889 -0.8628  0.4814
   38TAL   C18929248   5.857   3.298  10.830  0.9549  0.9471 -0.6063
   38TAL   C19029249   5.748   3.284  10.723 -0.3058  0.4952  0.6450
   39HTM   C19129250   6.465   2.857  10.978  0.3055 -0.2467 -0.1067
   39HTM   C19229251   6.468   2.731  10.925 -0.1144 -0.2848 -0.0427
   39HTM   C19329252   6.453   2.627  11.023 -0.4739 -0.1882  0.0095
   39HTM   C19429253   6.440   2.673  11.151 -0.3282 -0.0764 -0.0148
   39HTM    S2029254   6.444   2.853  11.157  0.2790 -0.0845 -0.1062
   40TAL   C19529255   6.461   2.484  10.981  0.1140  0.3209  0.3091
   40TAL   C19629256   6.467   2.440  10.835  0.4487 -0.4678 -0.9507
   40TAL   C19729257   6.579   2.341  10.826 -0.1622 -0.7287  1.0970
   40TAL   C19829258   6.552   2.259  10.692  0.3994 -1.7549  0.3937
   40TAL   C19929259   6.593   2.120  10.685  0.4395 -0.1288 -0.2058
   40TAL   C20029260   6.586   2.058  10.541  0.0605 -0.4189 -0.5158
   41HTM   C20129261   6.415   2.585  11.272 -0.1291 -0.0964 -0.0953
   41HTM   C20229262   6.389   2.643  11.393  0.1314 -0.3917  0.1064
   41HTM   C20329263   6.370   2.548  11.500  0.4650 -0.6520 -0.0605
   41HTM   C20429264   6.381   2.418  11.461  0.4591 -0.5552 -0.3894
   41HTM    S2129265   6.418   2.405  11.284  0.0282 -0.1244 -0.5149
   42TAL   C20529266   6.319   2.627  11.623  0.0725  0.7073  0.1016
   42TAL   C20629267   6.409   2.714  11.704 -0.1293 -1.2270 -0.4422
   42TAL   C20729268   6.535   2.655  11.778  1.0290  0.9088  0.3217
   42TAL   C20829269   6.496   2.583  11.906 -0.1698 -0.0467 -0.7317
   42TAL   C20929270   6.469   2.681  12.028  0.2552 -0.0645 -1.2010
   42TAL   C21029271   6.395   2.584  12.127 -0.7843 -0.1996  0.5112
   43HTM   C21129272   6.391   2.294  11.536 -0.2157 -0.0459 -0.0025
   43HTM   C21229273   6.418   2.266  11.667 -0.3130 -0.0452  0.0176
   43HTM   C21329274   6.421   2.125  11.697 -0.5482 -0.0407  0.0655
   43HTM   C21429275   6.396   2.046  11.589 -0.6303 -0.0378  0.0819
   43HTM    S2229276   6.368   2.144  11.440 -0.4150 -0.0406  0.0378
   44TAL   C21529277   6.451   2.059  11.831 -0.9479 -1.8651  0.2165
   44TAL   C21629278   6.469   2.145  11.964 -0.3784  0.8271  0.0547
   44TAL   C21729279   6.521   2.083  12.097  0.9998  0.1663 -0.3554
   44TAL   C21829280   6.578   2.188  12.199  0.7498 -0.2768 -0.2094
   44TAL   C21929281   6.505   2.214  12.332 -0.5627 -0.1313  0.3606
   44TAL   C22029282   6.596   2.167  12.442  0.6569 -0.0772  0.7873
   45HTM   C22129283   6.407   1.902  11.570  0.0800  0.3500 -0.6724
   45HTM   C22229284   6.306   1.822  11.524 -0.0052  0.4101 -0.5906
   45HTM   C22329285   6.344   1.684  11.509 -0.2406  0.2941 -0.1543
   45HTM   C22429286   6.474   1.659  11.544 -0.3346  0.1455  0.0967
   45HTM    S2329287   6.558   1.809  11.598 -0.1316  0.1406 -0.2010
   46TAL   C22529288   6.261   1.574  11.451  0.9600 -0.7758  1.0585
   46TAL   C22629289   6.183   1.473  11.530  0.4678 -0.0619 -1.1479
   46TAL   C22729290   6.082   1.527  11.630 -0.3979 -0.5593 -0.8757
   46TAL   C22829291   5.969   1.621  11.610  0.3080 -0.0637  0.0934
   46TAL   C22929292   5.887   1.650  11.739 -0.3028 -0.1592 -0.1423
   46TAL   C23029293   5.787   1.761  11.717 -0.0912  0.7909 -0.4373
   47HTM   C23129294   6.566   1.548  11.520  0.2169  0.0317 -0.3558
   47HTM   C23229295   6.700   1.553  11.497  0.1839 -0.1684 -0.5912
   47HTM   C23329296   6.765   1.424  11.505  0.0616 -0.2175 -0.3793
   47HTM   C23429297   6.680   1.322  11.535  0.0014 -0.0548  0.0179
   47HTM    S2429298   6.510   1.380  11.555  0.0953  0.1747  0.1560
   48TAL   C23529299   6.910   1.403  11.480 -0.4308  0.4953  0.7407
   48TAL   C23629300   6.984   1.532  11.424  0.3466  1.2048 -0.2028
   48TAL   C23729301   6.941   1.557  11.279  0.1846  0.1351 -0.2999
   48TAL   C23829302   6.955   1.445  11.161  0.1265 -0.2068  0.3160
   48TAL   C23929303   6.921   1.482  11.019 -0.2139  0.2178 -0.5870
   48TAL   C24029304   6.987   1.379  10.925 -1.4494 -0.5483 -0.0143
    1HTM     C129305   4.921   5.442   8.902  0.2000 -0.2900  0.3482
    1HTM     C229306   4.996   5.372   8.992 -0.1633 -0.6323  0.3881
    1HTM     C329307   4.956   5.234   9.005 -0.5486 -0.5544  0.0827
    1HTM     C429308   4.852   5.199   8.925 -0.4789 -0.1526 -0.1895
    1HTM     S129309   4.794   5.338   8.826  0.0829  0.1610 -0.0810
    2TAL     C529310   5.040   5.146   9.098  0.1925  0.5210 -0.6620
    2TAL     C629311   5.185   5.170   9.126 -0.7062  0.2055 -0.2714
    2TAL     C729312   5.242   5.046   9.196  0.5572  1.3881 -0.4501
    2TAL     C829313   5.356   5.064   9.299  0.1202  0.0838 -0.0966
    2TAL     C929314   5.292   5.109   9.437 -1.4120 -0.6902 -0.0919
    2TAL    C1029315   5.224   5.019   9.529 -0.2162  0.7270 -0.3850
    3HTM    C1129316   4.764   5.079   8.942 -0.3860  0.1555 -0.8529
    3HTM    C1229317   4.767   4.963   8.871 -0.8992  0.3779 -1.2496
    3HTM    C1329318   4.679   4.861   8.921 -0.3645  0.1394 -0.7734
    3HTM    C1429319   4.608   4.900   9.032  0.5566 -0.2653 -0.0139
    3HTM     S229320   4.648   5.069   9.080  0.8221 -0.3771  0.1605
    4TAL    C1529321   4.668   4.723   8.865 -0.3238 -0.3431 -0.2668
    4TAL    C1629322   4.758   4.695   8.740  0.0027 -1.0286 -0.5689
    4TAL    C1729323   4.742   4.558   8.684  0.1591 -1.3623 -1.0403
    4TAL    C1829324   4.615   4.525   8.601  0.2722 -0.1404 -0.6361
    4TAL    C1929325   4.541   4.635   8.529  0.5364 -0.6238 -0.0865
    4TAL    C2029326   4.415   4.578   8.491 -0.0131 -1.1979 -0.1072
    5HTM    C2129327   4.500   4.827   9.096  0.0809  0.3644 -0.0665
    5HTM    C2229328   4.513   4.702   9.147  0.7261  0.4890  0.0865
    5HTM    C2329329   4.415   4.669   9.247  1.2319  0.2959  0.5331
    5HTM    C2429330   4.326   4.769   9.272  0.9723  0.0241  0.7199
    5HTM     S329331   4.360   4.914   9.170  0.0618 -0.0094  0.3443
    6TAL    C2529332   4.413   4.545   9.327  0.4823  1.5842 -0.5258
    6TAL    C2629333   4.518   4.503   9.430  0.0167 -0.1616 -0.8461
    6TAL    C2729334   4.544   4.579   9.560 -0.6212  0.6541 -0.2789
    6TAL    C2829335   4.430   4.596   9.663  0.7723  0.4977 -0.1907
    6TAL    C2929336   4.492   4.668   9.781 -0.4680  1.0277 -0.3537
    6TAL    C3029337   4.381   4.677   9.902 -0.3170 -0.3616  0.1055
    7HTM    C3129338   4.206   4.796   9.359  0.0006 -0.0177 -0.2990
    7HTM    C3229339   4.176   4.917   9.413 -0.6365  0.0736 -0.8345
    7HTM    C3329340   4.085   4.910   9.524 -0.6843  0.0951 -0.8726
    7HTM    C3429341   4.045   4.783   9.555 -0.0835  0.0200 -0.3655
    7HTM     S429342   4.121   4.662   9.445  0.5945 -0.0844  0.2036
    8TAL    C3529343   4.043   5.036   9.593  0.0681  0.1350  0.0683
    8TAL    C3629344   3.897   5.092   9.555 -0.2936  0.2739  0.4377
    8TAL    C3729345   3.865   5.126   9.402 -1.1109 -0.1572 -0.0419
    8TAL    C3829346   3.888   5.273   9.361 -0.4443 -0.6862 -0.4901
    8TAL    C3929347   3.850   5.331   9.230  0.4082  0.0847  0.3738
    8TAL    C4029348   3.833   5.477   9.222 -0.1431 -0.2290  0.6904
    9HTM    C4129349   3.979   4.740   9.677  0.6375 -0.2676  0.0006
    9HTM    C4229350   4.013   4.790   9.800  0.6347 -0.5754  0.1268
    9HTM    C4329351   3.958   4.714   9.910  0.0042 -0.4141 -0.0684
    9HTM    C4429352   3.883   4.608   9.871 -0.4739  0.0164 -0.3434
    9HTM     S529353   3.874   4.594   9.691 -0.1624  0.2537 -0.3773
   10TAL    C4529354   4.000   4.761  10.047 -0.4417 -0.5313  0.2324
   10TAL    C4629355   3.931   4.881  10.118  0.8225  0.1039 -0.7467
   10TAL    C4729356   3.852   4.854  10.246 -0.3293 -0.7336 -0.3902
   10TAL    C4829357   3.803   4.981  10.296  0.1494 -1.4648 -0.4020
   10TAL    C4929358   3.751   5.010  10.439 -0.4878 -1.1338  0.3766
   10TAL    C5029359   3.617   4.950  10.490  0.2792  0.3797 -0.7875
   11HTM    C5129360   3.826   4.494   9.950 -0.2513 -0.1624 -0.2831
   11HTM    C5229361   3.726   4.412   9.908 -0.5890 -0.0672  0.3151
   11HTM    C5329362   3.682   4.318  10.007 -0.3971  0.2770  0.7291
   11HTM    C5429363   3.748   4.329  10.126  0.0868  0.4443  0.4466
   11HTM     S629364   3.873   4.459  10.120  0.3397  0.1780 -0.3706
   12TAL    C5529365   3.562   4.221   9.981 -0.3852 -0.0006  0.4523
   12TAL    C5629366   3.609   4.099   9.916 -0.4585  0.9740 -0.4932
   12TAL    C5729367   3.619   4.081   9.762 -0.1943 -0.7367  0.8282
   12TAL    C5829368   3.516   4.139   9.671  0.1268  0.8701 -0.4495
   12TAL    C5929369   3.372   4.081   9.679  0.3138 -0.5713 -1.3637
   12TAL    C6029370   3.367   3.930   9.651  0.6800  0.4669  1.3078
   13HTM    C6129371   3.729   4.275  10.254  1.0428  0.2305  0.2180
   13HTM    C6229372   3.707   4.146  10.291  1.9495 -0.0193 -0.0785
   13HTM    C6329373   3.697   4.127  10.433  1.7099 -0.3535 -0.1378
   13HTM    C6429374   3.711   4.242  10.505  0.6208 -0.3582  0.1135
   13HTM     S729375   3.738   4.384  10.398 -0.1934  0.0618  0.4471
   14TAL    C6529376   3.677   3.988  10.498  0.7009  0.1745  0.0211
   14TAL    C6629377   3.574   3.893  10.441  0.6422  0.8783  0.3650
   14TAL    C6729378   3.429   3.867  10.500 -0.4936  0.0629 -0.2202
   14TAL    C6829379   3.398   3.716  10.489  0.5052  0.1852 -0.3289
   14TAL    C6929380   3.253   3.684  10.510  0.8880  0.0285  0.6806
   14TAL    C7029381   3.158   3.717  10.389 -0.3790  0.0095 -0.4147
   15HTM    C7129382   3.698   4.279  10.645 -0.4068  0.2631  0.1994
   15HTM    C7229383   3.593   4.327  10.719 -0.1712  0.0117  0.7106
   15HTM    C7329384   3.625   4.350  10.857  0.2958 -0.4215  0.6830
   15HTM    C7429385   3.754   4.321  10.889  0.4160 -0.5006  0.1509
   15HTM     S829386   3.846   4.261  10.746 -0.0548 -0.0302 -0.3607
   16TAL    C7529387   3.521   4.409  10.949 -0.4694 -0.5650 -0.2332
   16TAL    C7629388   3.396   4.485  10.930 -0.4105  0.5609  0.7020
   16TAL    C7729389   3.315   4.514  10.796 -0.2803 -0.6155  0.3800
   16TAL    C7829390   3.196   4.614  10.824  0.5645  0.4420 -0.3262
   16TAL    C7929391   3.112   4.653  10.699 -1.4076  0.1558 -0.1715
   16TAL    C8029392   3.184   4.715  10.573  0.7038  0.1255 -0.0413
   17HTM    C8129393   3.811   4.330  11.027 -0.3596 -0.0851  0.4697
   17HTM    C8229394   3.810   4.437  11.112 -0.5059 -0.2772  0.7122
   17HTM    C8329395   3.895   4.420  11.227 -0.2961 -0.3246  0.5514
   17HTM    C8429396   3.961   4.301  11.230  0.0103 -0.1683  0.1864
   17HTM     S929397   3.920   4.199  11.086  0.0577  0.0521  0.0161
   18TAL    C8529398   3.924   4.537  11.318 -0.7427  0.0755  1.3918
   18TAL    C8629399   4.007   4.653  11.254 -0.2721 -0.0319 -0.6978
   18TAL    C8729400   4.124   4.691  11.342  0.0248 -0.2569 -0.1121
   18TAL    C8829401   4.193   4.820  11.299  0.0118 -0.7023 -0.3458
   18TAL    C8929402   4.321   4.829  11.392  0.1084 -0.0262 -0.5419
   18TAL    C9029403   4.441   4.919  11.353 -0.2595 -0.1423 -0.4506
   19HTM    C9129404   4.038   4.232  11.328 -0.5166 -0.0002 -0.2380
   19HTM    C9229405   4.018   4.221  11.462 -0.3453  0.1605 -0.1992
   19HTM    C9329406   4.091   4.111  11.522 -0.0180  0.4244 -0.1056
   19HTM    C9429407   4.165   4.039  11.433  0.0602  0.4649 -0.0731
   19HTM    S1029408   4.149   4.104  11.266 -0.2759  0.1704 -0.1588
   20TAL    C9529409   4.099   4.075  11.676  0.2280 -0.6323  0.2857
   20TAL    C9629410   4.135   4.186  11.781  0.2283 -0.0846 -1.3437
   20TAL    C9729411   4.159   4.148  11.924  0.4905  0.8192 -0.5419
   20TAL    C9829412   4.245   4.032  11.986  0.5938  0.1526  0.4221
   20TAL    C9929413   4.396   4.022  11.980  0.0398  0.6518  0.2280
   20TAL   C10029414   4.467   4.073  11.860  0.9342 -0.2483  0.3745
   21HTM   C10129415   4.224   3.905  11.452 -0.0850 -0.3984 -0.2686
   21HTM   C10229416   4.202   3.793  11.377 -0.3091 -0.6424  0.1541
   21HTM   C10329417   4.270   3.676  11.426 -0.4482 -0.5667  0.5304
   21HTM   C10429418   4.344   3.699  11.539 -0.3303 -0.2648  0.3946
   21HTM    S1129419   4.333   3.871  11.592 -0.0319 -0.0512 -0.2239
   22TAL   C10529420   4.278   3.555  11.335 -0.7312  0.0376 -0.5479
   22TAL   C10629421   4.234   3.526  11.184 -0.0348  0.0293 -1.6224
   22TAL   C10729422   4.092   3.462  11.187  0.4489 -0.0366  0.0451
   22TAL   C10829423   4.046   3.412  11.053  0.9262 -1.1741  0.7428
   22TAL   C10929424   3.912   3.350  11.059  0.0628 -0.3628 -0.5784
   22TAL   C11029425   3.834   3.348  10.940 -0.1032 -0.9917 -0.2234
   23HTM   C11129426   4.415   3.603  11.621 -0.7007 -0.2591  0.0210
   23HTM   C11229427   4.508   3.637  11.715 -0.4877  0.1790 -0.3429
   23HTM   C11329428   4.568   3.524  11.781  0.2033  0.4604 -0.4671
   23HTM   C11429429   4.520   3.404  11.738  0.5173  0.2370 -0.1979
   23HTM    S1229430   4.396   3.424  11.610 -0.0397 -0.3508  0.2368
   24TAL   C11529431   4.686   3.556  11.869  0.2664  0.4626  1.3899
   24TAL   C11629432   4.657   3.594  12.013 -0.4714  0.0586  0.4655
   24TAL   C11729433   4.779   3.571  12.110 -0.6540  0.8235  0.8546
   24TAL   C11829434   4.847   3.422  12.123  0.8391  0.5586  0.3672
   24TAL   C11929435   4.987   3.410  12.188 -0.0999  0.2990  0.7421
   24TAL   C12029436   5.095   3.318  12.113  0.3207 -0.2515  0.2603
   25HTM   C12129437   4.545   3.270  11.787  0.6571 -0.6758 -0.4816
   25HTM   C12229438   4.646   3.196  11.842  0.3002 -1.5202 -0.9276
   25HTM   C12329439   4.611   3.058  11.864 -0.7335 -1.2639 -0.8449
   25HTM   C12429440   4.484   3.027  11.826 -1.1645 -0.2244 -0.3358
   25HTM    S1329441   4.397   3.170  11.759 -0.2918  0.5175  0.0820
   26TAL   C12529442   4.725   2.968  11.917  0.2290  1.2512  0.3335
   26TAL   C12629443   4.776   2.980  12.074  1.0791  0.0905  0.4726
   26TAL   C12729444   4.704   2.904  12.178 -0.6148  0.2574  0.7388
   26TAL   C12829445   4.765   2.894  12.322  0.1824  0.4050  1.1345
   26TAL   C12929446   4.868   2.790  12.365  0.1606  1.0027 -0.1365
   26TAL   C13029447   5.010   2.820  12.333 -0.4786 -0.5540 -0.8129
   27HTM   C13129448   4.392   2.916  11.840  0.0795  0.0027 -0.1153
   27HTM   C13229449   4.289   2.885  11.755  0.3054 -0.3586 -0.2648
   27HTM   C13329450   4.212   2.771  11.797  0.6963 -0.6843 -0.4234
   27HTM   C13429451   4.256   2.714  11.913  0.7686 -0.5715 -0.3949
   27HTM    S1429452   4.399   2.801  11.979  0.3451 -0.0408 -0.1638
   28TAL   C13529453   4.112   2.723  11.693 -0.0134 -0.7234 -0.7223
   28TAL   C13629454   3.974   2.773  11.682 -0.1533  0.0352 -0.4760
   28TAL   C13729455   3.867   2.710  11.777  0.1182 -1.0862 -0.9120
   28TAL   C13829456   3.836   2.563  11.780  0.5936  1.2149 -0.3924
   28TAL   C13929457   3.705   2.516  11.703 -0.1023  1.2891  1.1260
   28TAL   C14029458   3.682   2.360  11.731 -0.8686 -0.1024  1.1582
   29HTM   C14129459   4.193   2.598  11.980 -1.1771  0.3017 -0.3411
   29HTM   C14229460   4.157   2.611  12.111 -0.8570  0.3514 -0.2560
   29HTM   C14329461   4.079   2.501  12.160  0.2097 -0.1889  0.3035
   29HTM   C14429462   4.055   2.404  12.067  0.7024 -0.6504  0.6451
   29HTM    S1529463   4.130   2.444  11.909 -0.1487 -0.4367  0.2837
   30TAL   C14529464   4.047   2.484  12.306  0.1873  0.4003  0.3451
   30TAL   C14629465   3.972   2.593  12.386  0.5337  0.0673 -0.7408
   30TAL   C14729466   3.814   2.582  12.393  0.3262  0.0707 -0.1348
   30TAL   C14829467   3.742   2.593  12.261 -0.7325 -0.9865 -0.0727
   30TAL   C14929468   3.596   2.558  12.289  0.3366  0.8879 -0.4919
   30TAL   C15029469   3.502   2.564  12.179  0.2616 -0.1875  0.3457
   31HTM   C15129470   3.965   2.287  12.067 -0.0642  0.4368 -0.3227
   31HTM   C15229471   3.847   2.262  12.131 -0.2885  0.6695 -0.6390
   31HTM   C15329472   3.798   2.129  12.113 -0.3885  0.6995 -0.5874
   31HTM   C15429473   3.878   2.050  12.035 -0.2405  0.4897 -0.2317
   31HTM    S1629474   4.023   2.141  11.977  0.0387  0.2359  0.0678
   32TAL   C15529475   3.682   2.062  12.197  0.9902  0.5047  0.8747
   32TAL   C15629476   3.541   2.133  12.201 -0.4295  0.6154  0.5011
   32TAL   C15729477   3.461   2.122  12.075  0.4583  0.4258  0.0634
   32TAL   C15829478   3.405   1.988  12.024 -0.6965  0.6554  1.4803
   32TAL   C15929479   3.365   1.988  11.874  0.1272  0.4971  0.7705
   32TAL   C16029480   3.324   1.855  11.831 -0.4826  1.8619  0.3768
   33HTM   C16129481   3.875   1.899  12.012 -0.4203  0.1445  0.4121
   33HTM   C16229482   3.971   1.804  12.031 -0.4466  0.2413  1.0797
   33HTM   C16329483   3.931   1.672  11.990 -0.0745  0.1774  0.9169
   33HTM   C16429484   3.804   1.666  11.940  0.2354  0.0318  0.1251
   33HTM    S1729485   3.725   1.828  11.940  0.0803 -0.0363 -0.4810
   34TAL   C16529486   4.022   1.555  12.008 -0.6310 -0.4557  0.1594
   34TAL   C16629487   4.116   1.532  11.885 -0.6183 -0.4865  0.2082
   34TAL   C16729488   4.215   1.640  11.832 -0.4154  0.2840 -1.6061
   34TAL   C16829489   4.335   1.682  11.929 -0.1187 -0.0532 -0.2597
   34TAL   C16929490   4.476   1.651  11.875 -0.6535  0.1919 -1.0239
   34TAL   C17029491   4.502   1.520  11.807 -0.7525  0.6435  0.0705
   35HTM   C17129492   3.722   1.561  11.886  0.3730 -0.3940 -0.0147
   35HTM   C17229493   3.625   1.567  11.790  0.5134 -0.2099 -0.1461
   35HTM   C17329494   3.540   1.451  11.787  0.2244  0.0032 -0.1844
   35HTM   C17429495   3.571   1.357  11.881 -0.1363 -0.0185 -0.0823
   35HTM    S1829496   3.712   1.407  11.981 -0.1389 -0.3119  0.0715
   36TAL   C17529497   3.442   1.433  11.680  1.3485  0.4536  0.3131
   36TAL   C17629498   3.482   1.395  11.538  0.2162 -0.2437 -0.3220
   36TAL   C17729499   3.358   1.362  11.459 -0.2393  0.4688  0.7757
   36TAL   C17829500   3.331   1.486  11.377 -0.7286  0.7430  0.2636
   36TAL   C17929501   3.262   1.604  11.433 -0.8119  0.1970 -0.9705
   36TAL   C18029502   3.113   1.592  11.475  0.4666  0.1240  0.8132
   37HTM   C18129503   3.508   1.233  11.918 -0.0037 -0.1721  0.2610
   37HTM   C18229504   3.575   1.130  11.978 -0.4055  0.1175  1.2485
   37HTM   C18329505   3.497   1.011  11.994 -0.6735  0.3600  1.7999
   37HTM   C18429506   3.370   1.022  11.946 -0.4760  0.2554  1.2331
   37HTM    S1929507   3.339   1.185  11.877  0.0679 -0.1608 -0.0513
   38TAL   C18529508   3.544   0.894  12.070 -0.6508 -0.4818  0.5049
   38TAL   C18629509   3.680   0.836  12.030 -1.0513  0.1159  0.2184
   38TAL   C18729510   3.703   0.791  11.893 -0.4804 -0.1805 -0.4009
   38TAL   C18829511   3.633   0.656  11.871  0.5845  0.2954 -0.5769
   38TAL   C18929512   3.647   0.597  11.731  0.5772  1.1323 -0.3947
   38TAL   C19029513   3.537   0.509  11.703 -0.0316 -0.6039  0.7633
   39HTM   C19129514   3.266   0.917  11.915  0.1391 -0.1154 -0.1480
   39HTM   C19229515   3.161   0.942  11.832  0.0293  0.3574  0.1306
   39HTM   C19329516   3.088   0.824  11.794 -0.4281  0.6496  0.0885
   39HTM   C19429517   3.138   0.709  11.847 -0.6672  0.3996 -0.2223
   39HTM    S2029518   3.282   0.740  11.950 -0.3305 -0.2291 -0.4879
   40TAL   C19529519   2.987   0.831  11.686  0.0156  0.0650  0.3443
   40TAL   C19629520   2.850   0.902  11.709  0.2919 -0.3892  0.6825
   40TAL   C19729521   2.850   1.056  11.725 -0.2092 -0.1357 -0.5307
   40TAL   C19829522   2.708   1.131  11.730 -0.2283 -1.0174 -1.0674
   40TAL   C19929523   2.685   1.282  11.734  0.1652 -1.6289 -0.1625
   40TAL   C20029524   2.729   1.361  11.605  0.5309  0.3001 -0.2666
   41HTM   C20129525   3.101   0.576  11.831 -0.0698  0.1032 -0.0712
   41HTM   C20229526   3.147   0.483  11.743 -0.3108 -0.0337 -0.0541
   41HTM   C20329527   3.103   0.348  11.772 -0.3218  0.0256  0.2090
   41HTM   C20429528   3.024   0.339  11.883 -0.0893  0.2077  0.3926
   41HTM    S2129529   2.998   0.500  11.959  0.1637  0.3192  0.2463
   42TAL   C20529530   3.133   0.253  11.660 -0.1874  0.7067  0.5048
   42TAL   C20629531   3.064   0.299  11.534 -0.3066 -0.5423 -0.2299
   42TAL   C20729532   3.069   0.210  11.406 -0.1518 -0.1771 -0.7516
   42TAL   C20829533   3.055   0.278  11.268  0.6525 -0.3163 -1.3515
   42TAL   C20929534   3.177   0.305  11.195 -0.6604  0.7263  0.8683
   42TAL   C21029535   3.212   0.220  11.071  1.1714 -1.0333 -0.0288
   43HTM   C21129536   2.996   0.226  11.959 -0.7472  0.2732  0.2962
   43HTM   C21229537   2.997   0.215  12.094 -1.5523  0.1543  0.3026
   43HTM   C21329538   2.961   0.084  12.142 -1.4049 -0.0159 -0.0464
   43HTM   C21429539   2.932  -0.004  12.043 -0.4874 -0.0268 -0.3188
   43HTM    S2229540   2.949   0.071  11.880  0.2676  0.1788 -0.1545
   44TAL   C21529541   2.959   0.044  12.291 -0.9025 -0.0380 -0.3317
   44TAL   C21629542   2.838   0.087  12.360  0.1121 -0.4213 -0.6547
   44TAL   C21729543   2.871   0.071  12.512 -0.2676 -1.2484  0.7143
   44TAL   C21829544   2.859  -0.054  12.586 -0.0929  0.1586  0.3029
   44TAL   C21929545   2.941  -0.170  12.562  0.4100  0.3364 -0.5416
   44TAL   C22029546   2.945  -0.262  12.689  0.9284 -0.2209  0.1510
   45HTM   C22129547   2.885  -0.141  12.049 -0.1693  0.0220  0.2923
   45HTM   C22229548   2.802  -0.189  11.951 -0.7017  0.3326  0.5797
   45HTM   C22329549   2.754  -0.323  11.976 -0.8336  0.3793  0.5769
   45HTM   C22429550   2.800  -0.376  12.093 -0.4019  0.1046  0.2873
   45HTM    S2329551   2.908  -0.262  12.181  0.2095 -0.2375 -0.0065
   46TAL   C22529552   2.651  -0.385  11.884 -0.8152 -0.1259 -0.8375
   46TAL   C22629553   2.722  -0.469  11.781  0.3325 -0.3280  0.1873
   46TAL   C22729554   2.710  -0.417  11.640  0.7097 -0.1806 -0.6741
   46TAL   C22829555   2.746  -0.533  11.549 -0.7777  0.3468  1.4719
   46TAL   C22929556   2.681  -0.527  11.412  0.5507 -1.3693  0.3436
   46TAL   C23029557   2.579  -0.631  11.384  0.2418  1.1596  0.2312
   47HTM   C23129558   2.768  -0.502  12.155 -0.8761  0.0907  0.0105
   47HTM   C23229559   2.795  -0.626  12.106 -1.0369  0.0930 -0.0843
   47HTM   C23329560   2.751  -0.733  12.191 -0.8312  0.0885  0.0181
   47HTM   C23429561   2.690  -0.690  12.306 -0.5137  0.0831  0.1912
   47HTM    S2429562   2.684  -0.510  12.314 -0.4493  0.0830  0.2385
   48TAL   C23529563   2.772  -0.878  12.168 -0.1507 -0.8092 -0.5116
   48TAL   C23629564   2.841  -0.920  12.044  0.1438  0.2540  1.9725
   48TAL   C23729565   2.912  -1.047  12.047 -0.4687  1.1517 -0.3154
   48TAL   C23829566   2.987  -1.084  11.924  0.2480  0.3372  0.1903
   48TAL   C23929567   3.062  -1.209  11.951  0.2979 -0.6093  0.0084
   48TAL   C24029568   3.117  -1.258  11.817 -0.2941  0.6695  0.0025
    1HTM     C129569   5.134   2.501   6.813 -0.0925 -0.4622  0.0031
    1HTM     C229570   5.219   2.501   6.920 -0.3763 -0.5996  0.2279
    1HTM     C329571   5.336   2.419   6.901 -0.1222 -0.2508  0.2714
    1HTM     C429572   5.341   2.357   6.779  0.3556  0.1524  0.0798
    1HTM     S129573   5.197   2.398   6.678  0.5228  0.1228 -0.1725
    2TAL     C529574   5.457   2.420   6.996 -0.1269 -0.7535 -0.0072
    2TAL     C629575   5.509   2.560   7.030 -1.0698 -0.6334  0.5492
    2TAL     C729576   5.583   2.632   6.923 -0.1984  0.1120 -0.4900
    2TAL     C829577   5.638   2.756   6.979  0.6681 -0.5815 -0.5892
    2TAL     C929578   5.758   2.817   6.918 -0.2973  0.2411  0.2736
    2TAL    C1029579   5.843   2.917   6.998 -0.5403  0.4177  0.3769
    3HTM    C1129580   5.411   2.235   6.748  0.2766  0.2906  0.6014
    3HTM    C1229581   5.519   2.221   6.666  0.9462  1.1292  1.3027
    3HTM    C1329582   5.584   2.093   6.677  1.3908  1.3379  1.1514
    3HTM    C1429583   5.525   2.009   6.767  1.0602  0.6583  0.3350
    3HTM     S229584   5.382   2.086   6.846  0.1548 -0.3054 -0.3116
    4TAL    C1529585   5.720   2.071   6.614  0.2280  0.0222 -0.1865
    4TAL    C1629586   5.770   2.162   6.520  0.4870 -0.1282  0.7024
    4TAL    C1729587   5.903   2.129   6.444  1.2477  0.2157 -0.8083
    4TAL    C1829588   5.931   2.191   6.316 -0.0917 -0.8236  0.5390
    4TAL    C1929589   5.890   2.346   6.334  0.5209  0.3697  0.9328
    4TAL    C2029590   5.909   2.435   6.213  0.2451 -0.7395 -1.0880
    5HTM    C2129591   5.550   1.865   6.788  0.3496  0.2604 -0.4142
    5HTM    C2229592   5.658   1.801   6.840  0.1491 -0.1068 -0.4396
    5HTM    C2329593   5.634   1.663   6.873 -0.3850  0.0422 -0.1868
    5HTM    C2429594   5.507   1.622   6.847 -0.5921  0.5230  0.0314
    5HTM     S329595   5.407   1.755   6.777 -0.1247  0.8273 -0.0661
    6TAL    C2529596   5.757   1.585   6.937  0.4875 -0.0758  0.6029
    6TAL    C2629597   5.865   1.515   6.857 -0.1668  0.1024 -0.5175
    6TAL    C2729598   5.856   1.371   6.809 -0.9132 -1.0552 -0.2191
    6TAL    C2829599   5.819   1.258   6.906  0.3470  0.9070  1.0266
    6TAL    C2929600   5.899   1.225   7.022 -0.0916 -0.0125 -0.5043
    6TAL    C3029601   5.836   1.112   7.094  0.0766 -0.6374  0.1645
    7HTM    C3129602   5.429   1.496   6.857  0.0899 -0.1921  0.2608
    7HTM    C3229603   5.435   1.407   6.960 -0.6633  0.0550  0.5327
    7HTM    C3329604   5.337   1.302   6.951 -0.9081  0.2952  0.3259
    7HTM    C3429605   5.257   1.310   6.841 -0.3415  0.2313 -0.1040
    7HTM     S429606   5.298   1.453   6.740  0.5522 -0.1402 -0.2821
    8TAL    C3529607   5.329   1.173   7.041  0.5498  0.8322 -0.1648
    8TAL    C3629608   5.418   1.046   7.022 -0.7670 -0.0061  0.1190
    8TAL    C3729609   5.437   0.991   6.877  0.1324 -0.5840 -0.5974
    8TAL    C3829610   5.503   0.857   6.864 -0.6590  0.0490  0.2632
    8TAL    C3929611   5.537   0.834   6.722 -0.5026 -0.0895  0.1273
    8TAL    C4029612   5.638   0.925   6.648 -0.6697 -0.1370 -0.0333
    9HTM    C4129613   5.148   1.219   6.804  0.1481 -0.1648  0.1268
    9HTM    C4229614   5.034   1.184   6.869  0.1168 -0.0076  0.1572
    9HTM    C4329615   4.926   1.146   6.782 -0.0567  0.4357  0.1769
    9HTM    C4429616   4.958   1.153   6.649 -0.1575  0.6165  0.1618
    9HTM     S529617   5.128   1.208   6.625 -0.0403  0.2381  0.1207
   10TAL    C4529618   4.784   1.104   6.831  0.5297 -0.4652  0.9379
   10TAL    C4629619   4.752   1.004   6.940 -0.6189  1.2455  0.0329
   10TAL    C4729620   4.791   0.854   6.936 -0.1208  0.2534 -1.0042
   10TAL    C4829621   4.904   0.811   6.834  0.5989 -0.3423 -0.4462
   10TAL    C4929622   4.944   0.671   6.860 -0.3292 -0.1554  1.0592
   10TAL    C5029623   4.992   0.596   6.729 -0.9519 -0.4827  0.0534
   11HTM    C5129624   4.881   1.124   6.530  0.2722 -0.3000 -0.5863
   11HTM    C5229625   4.819   1.209   6.444  0.5137 -0.2241 -0.6887
   11HTM    C5329626   4.733   1.143   6.349  0.4047 -0.1023 -0.6759
   11HTM    C5429627   4.730   1.007   6.364  0.0801 -0.0852 -0.5638
   11HTM     S629628   4.836   0.953   6.499 -0.1147 -0.2228 -0.4649
   12TAL    C5529629   4.663   1.230   6.242  0.0032  0.5745  0.7659
   12TAL    C5629630   4.756   1.316   6.161  0.0432 -0.4491  1.0616
   12TAL    C5729631   4.655   1.392   6.065  0.0147  0.5298  0.1422
   12TAL    C5829632   4.706   1.439   5.923 -1.0833  0.1160 -0.3724
   12TAL    C5929633   4.660   1.571   5.877  0.1556  0.1921 -0.0942
   12TAL    C6029634   4.711   1.700   5.938  0.0624  0.1846 -0.2485
   13HTM    C6129635   4.630   0.913   6.300  0.3658 -0.2277  0.0119
   13HTM    C6229636   4.551   0.818   6.358  0.6731 -0.4644  0.0468
   13HTM    C6329637   4.465   0.750   6.265  0.5256 -0.4192  0.1489
   13HTM    C6429638   4.478   0.793   6.136  0.1057 -0.1480  0.1918
   13HTM     S729639   4.601   0.924   6.122 -0.1377  0.0730  0.1060
   14TAL    C6529640   4.371   0.625   6.314  0.6295 -0.3584  0.1522
   14TAL    C6629641   4.225   0.667   6.341 -0.3886  0.5981 -0.0525
   14TAL    C6729642   4.146   0.551   6.397  0.3162 -0.6810  0.6922
   14TAL    C6829643   4.087   0.463   6.288  0.0367  0.5785 -0.4795
   14TAL    C6929644   4.027   0.326   6.356 -0.4496 -1.0464  0.7312
   14TAL    C7029645   4.110   0.227   6.428  0.1599 -0.2003  0.1972
   15HTM    C7129646   4.373   0.782   6.031  0.4907  0.5537 -0.3042
   15HTM    C7229647   4.317   0.883   5.958  0.2015  0.5491 -0.0899
   15HTM    C7329648   4.202   0.843   5.882 -0.0904  0.5390  0.3518
   15HTM    C7429649   4.170   0.711   5.897 -0.0238  0.5359  0.4742
   15HTM     S829650   4.284   0.627   6.008  0.4162  0.5456  0.0376
   16TAL    C7529651   4.125   0.951   5.796 -1.0516  0.3668 -1.3692
   16TAL    C7629652   4.174   0.979   5.651  0.3155  0.3206 -0.6087
   16TAL    C7729653   4.321   0.946   5.621  0.3073 -0.0443  0.6810
   16TAL    C7829654   4.377   1.023   5.499  0.9253  0.5572 -0.6366
   16TAL    C7929655   4.510   1.087   5.493  0.4133  0.2805 -0.6543
   16TAL    C8029656   4.579   1.135   5.619 -2.0126 -0.2119 -0.1784
   17HTM    C8129657   4.054   0.638   5.839  0.2974  0.1456 -0.7320
   17HTM    C8229658   3.926   0.653   5.884  0.5336  0.1252 -0.0271
   17HTM    C8329659   3.830   0.569   5.816  0.2139 -0.1360  0.7199
   17HTM    C8429660   3.886   0.491   5.719 -0.2662 -0.3148  0.5848
   17HTM     S929661   4.064   0.517   5.706 -0.3525 -0.1659 -0.5052
   18TAL    C8529662   3.682   0.583   5.826 -0.6934  0.0359 -0.2244
   18TAL    C8629663   3.613   0.707   5.869 -0.8849 -1.1791  1.3281
   18TAL    C8729664   3.600   0.820   5.754  0.3490  0.2401 -0.0529
   18TAL    C8829665   3.548   0.785   5.616  0.4107 -0.8827  0.3034
   18TAL    C8929666   3.583   0.902   5.530 -1.1588 -0.4757 -0.0967
   18TAL    C9029667   3.566   0.857   5.382 -0.9903  0.7912 -0.6079
   19HTM    C9129668   3.833   0.398   5.625 -0.2634 -0.1858  0.6645
   19HTM    C9229669   3.714   0.392   5.559 -0.4553 -0.4431  1.0263
   19HTM    C9329670   3.699   0.277   5.475 -0.2923 -0.2689  0.7570
   19HTM    C9429671   3.808   0.194   5.476  0.0240  0.1212  0.1898
   19HTM    S1029672   3.937   0.256   5.585  0.1413  0.3003 -0.0501
   20TAL    C9529673   3.579   0.285   5.389  0.0165  0.2369 -0.1646
   20TAL    C9629674   3.489   0.163   5.375  0.7405 -0.1815 -0.8548
   20TAL    C9729675   3.376   0.157   5.273 -0.7436 -1.7031  1.0690
   20TAL    C9829676   3.264   0.052   5.281 -0.7086  0.8369 -1.0859
   20TAL    C9929677   3.189   0.029   5.418  0.2437  0.7611  0.5107
   20TAL   C10029678   3.043  -0.010   5.387 -0.4899 -0.2706 -0.0184
   21HTM   C10129679   3.828   0.064   5.408  0.2244  0.8634  0.1769
   21HTM   C10229680   3.752  -0.011   5.323 -0.0081  1.1678  0.1113
   21HTM   C10329681   3.817  -0.132   5.279 -0.3619  1.0262 -0.0291
   21HTM   C10429682   3.942  -0.149   5.331 -0.3991  0.6137 -0.0707
   21HTM    S1129683   3.988  -0.013   5.440  0.0130  0.3701  0.0654
   22TAL   C10529684   3.744  -0.240   5.187 -0.6108 -0.6558 -0.1165
   22TAL   C10629685   3.599  -0.220   5.150  0.5383  0.1519  0.2210
   22TAL   C10729686   3.554  -0.296   5.023  0.1335  0.2408 -0.5176
   22TAL   C10829687   3.404  -0.294   4.995 -0.3539 -0.4142 -0.0549
   22TAL   C10929688   3.320  -0.338   5.118 -0.5146 -0.2372  0.4618
   22TAL   C11029689   3.181  -0.377   5.077  0.1470  0.4856  1.4212
   23HTM   C11129690   4.044  -0.262   5.321 -0.4166 -0.0405  0.8006
   23HTM   C11229691   4.021  -0.394   5.294 -0.2676 -0.1957  1.3976
   23HTM   C11329692   4.136  -0.478   5.315 -0.0068  0.1185  1.2618
   23HTM   C11429693   4.246  -0.411   5.359  0.0432  0.5139  0.5613
   23HTM    S1229694   4.213  -0.234   5.377 -0.2376  0.5196  0.0145
   24TAL   C11529695   4.125  -0.633   5.294  0.3704 -0.8706 -0.1488
   24TAL   C11629696   4.157  -0.676   5.155  0.2092 -0.6922  0.0833
   24TAL   C11729697   4.116  -0.818   5.125 -0.2169 -0.9888 -0.2713
   24TAL   C11829698   3.969  -0.836   5.111  0.1052 -0.9409 -0.4307
   24TAL   C11929699   3.913  -0.969   5.074  0.2460  0.1169  0.0557
   24TAL   C12029700   3.925  -1.013   4.922 -0.5636 -0.1991 -0.5916
   25HTM   C12129701   4.388  -0.439   5.384  0.1930  0.7164  0.5256
   25HTM   C12229702   4.444  -0.536   5.462 -0.0081  0.4506  0.3427
   25HTM   C12329703   4.588  -0.535   5.462  0.0043 -0.2322 -0.1284
   25HTM   C12429704   4.642  -0.437   5.383  0.2144 -0.4876 -0.3044
   25HTM    S1329705   4.514  -0.338   5.303  0.4149  0.1202  0.1139
   26TAL   C12529706   4.661  -0.653   5.528  0.0453  0.0262 -0.1266
   26TAL   C12629707   4.814  -0.672   5.557 -0.5704 -0.5840 -0.2668
   26TAL   C12729708   4.835  -0.778   5.662 -0.3504 -0.2691  0.3492
   26TAL   C12829709   4.981  -0.778   5.706 -0.1134 -0.0435 -0.4954
   26TAL   C12929710   4.998  -0.870   5.829 -0.6603  0.0573  0.0503
   26TAL   C13029711   5.120  -0.844   5.905 -0.0764  0.2820  0.1127
   27HTM   C13129712   4.775  -0.387   5.344  0.3571  0.3814 -0.0859
   27HTM   C13229713   4.899  -0.428   5.381  0.3698  0.4714 -0.0271
   27HTM   C13329714   5.004  -0.334   5.352  0.3413  0.4623 -0.1590
   27HTM   C13429715   4.959  -0.220   5.292  0.3069  0.3659 -0.3183
   27HTM    S1429716   4.780  -0.223   5.268  0.3078  0.2780 -0.3142
   28TAL   C13529717   5.149  -0.364   5.403  0.1083 -1.1315  0.4353
   28TAL   C13629718   5.182  -0.393   5.553  0.4571 -0.4883  0.3509
   28TAL   C13729719   5.130  -0.295   5.655  0.5139 -0.1898 -0.0471
   28TAL   C13829720   5.153  -0.326   5.806 -0.1861  0.5059  1.0122
   28TAL   C13929721   5.285  -0.313   5.873  0.7144  0.9085  0.2925
   28TAL   C14029722   5.284  -0.362   6.017 -0.3141 -0.0300 -0.4231
   29HTM   C14129723   5.020  -0.098   5.238 -0.0744  0.0675 -0.8657
   29HTM   C14229724   4.942   0.004   5.192  0.1284  0.1359 -1.0586
   29HTM   C14329725   5.016   0.123   5.159  0.2822  0.1709 -0.5958
   29HTM   C14429726   5.150   0.112   5.180  0.1968  0.1295 -0.0503
   29HTM    S1529727   5.194  -0.051   5.244 -0.0868  0.0419 -0.0789
   30TAL   C14529728   4.956   0.245   5.092 -0.1115 -0.5040 -0.5501
   30TAL   C14629729   4.811   0.271   5.070 -0.9620  0.2335 -0.4977
   30TAL   C14729730   4.772   0.196   4.948  0.5524 -0.6162  1.3804
   30TAL   C14829731   4.627   0.233   4.902  0.1901 -0.7837 -0.1133
   30TAL   C14929732   4.587   0.157   4.787  0.7447 -0.3130  0.0725
   30TAL   C15029733   4.437   0.147   4.765  0.5259 -0.0542 -0.1613
   31HTM   C15129734   5.259   0.200   5.140  0.2711  0.3156 -0.1066
   31HTM   C15229735   5.368   0.241   5.211  0.3653  0.4795 -0.3436
   31HTM   C15329736   5.463   0.316   5.134  0.1342  0.5322 -0.5771
   31HTM   C15429737   5.426   0.332   5.003 -0.1358  0.4085 -0.5181
   31HTM    S1629738   5.268   0.253   4.968 -0.1195  0.2142 -0.1603
   32TAL   C15529739   5.606   0.352   5.183 -0.5545 -1.0429  0.3254
   32TAL   C15629740   5.603   0.428   5.310 -0.1784  0.7519  0.2034
   32TAL   C15729741   5.707   0.531   5.335 -0.7107 -0.1925  0.2304
   32TAL   C15829742   5.799   0.501   5.453  0.3647 -0.5712  0.5772
   32TAL   C15929743   5.932   0.447   5.403 -0.1509  0.4232  0.0726
   32TAL   C16029744   6.049   0.543   5.404 -0.2443  0.4381 -0.5481
   33HTM   C16129745   5.485   0.425   4.909 -0.6747  0.1108 -0.1261
   33HTM   C16229746   5.476   0.426   4.773 -0.2788 -0.2407 -0.1588
   33HTM   C16329747   5.520   0.549   4.713  0.4225 -0.5962 -0.3942
   33HTM   C16429748   5.563   0.642   4.804  0.5613 -0.5157 -0.5411
   33HTM    S1729749   5.550   0.580   4.973 -0.1889  0.0195 -0.3923
   34TAL   C16529750   5.530   0.556   4.560  0.5201  0.3321  0.0184
   34TAL   C16629751   5.485   0.673   4.468 -0.0101 -0.5675  0.2301
   34TAL   C16729752   5.347   0.735   4.497 -0.7191  0.1608  0.2595
   34TAL   C16829753   5.333   0.844   4.603  0.4767  0.1363  0.0584
   34TAL   C16929754   5.318   0.988   4.559 -0.6521  0.4710  1.3575
   34TAL   C17029755   5.316   1.064   4.682 -0.1696 -1.1792  0.3521
   35HTM   C17129756   5.648   0.767   4.775 -0.3255  0.1732  0.1843
   35HTM   C17229757   5.624   0.901   4.784 -0.0246  0.2088  0.5150
   35HTM   C17329758   5.737   0.983   4.751  0.1010  0.0360  0.5151
   35HTM   C17429759   5.849   0.912   4.717 -0.1044 -0.1313  0.1844
   35HTM    S1829760   5.818   0.734   4.724 -0.4751 -0.0832 -0.1555
   36TAL   C17529761   5.712   1.137   4.755  0.8864 -0.1444 -0.1957
   36TAL   C17629762   5.645   1.221   4.865  0.2089 -0.8371 -0.4224
   36TAL   C17729763   5.680   1.230   5.013  0.4585  0.2656 -0.3053
   36TAL   C17829764   5.808   1.309   5.015  0.1150 -0.1086  0.4003
   36TAL   C17929765   5.847   1.366   5.149 -0.4371  0.7322  0.0711
   36TAL   C18029766   5.973   1.434   5.140 -0.2970 -0.4999 -0.2912
   37HTM   C18129767   5.992   0.954   4.695 -0.5683 -0.1906  0.4351
   37HTM   C18229768   6.056   1.062   4.749 -0.4786 -0.1268  0.2017
   37HTM   C18329769   6.198   1.063   4.724 -0.5656  0.0174 -0.3222
   37HTM   C18429770   6.242   0.956   4.652 -0.7218  0.0637 -0.4881
   37HTM    S1929771   6.107   0.845   4.609 -0.7712 -0.0724  0.0083
   38TAL   C18529772   6.283   1.185   4.769  0.0607  0.3007  0.3798
   38TAL   C18629773   6.402   1.246   4.697 -0.2507 -0.2565  1.5453
   38TAL   C18729774   6.338   1.307   4.563  0.4187 -0.8782 -0.4676
   38TAL   C18829775   6.373   1.450   4.515  0.1036 -0.4409  0.0890
   38TAL   C18929776   6.323   1.452   4.362 -0.0235 -1.0696 -0.3813
   38TAL   C19029777   6.344   1.597   4.315  0.8819  0.5927 -0.2208
   39HTM   C19129778   6.391   0.907   4.646  0.5078  0.1382 -0.4424
   39HTM   C19229779   6.434   0.820   4.550  0.7197  0.6637 -0.8357
   39HTM   C19329780   6.572   0.784   4.562  0.7293  0.7081 -0.8134
   39HTM   C19429781   6.636   0.843   4.667  0.5250  0.2163 -0.4030
   39HTM    S2029782   6.524   0.950   4.760  0.3028 -0.3453 -0.0100
   40TAL   C19529783   6.622   0.686   4.453  0.3323 -0.2060 -0.0068
   40TAL   C19629784   6.575   0.542   4.477  0.6760  0.1565  0.9609
   40TAL   C19729785   6.570   0.470   4.612 -0.3067  0.3160  0.7186
   40TAL   C19829786   6.705   0.413   4.663 -0.4014  0.7692 -0.4286
   40TAL   C19929787   6.759   0.294   4.577 -0.8286 -0.0896  0.1583
   40TAL   C20029788   6.885   0.221   4.632  0.8053  0.1211 -0.4745
   41HTM   C20129789   6.775   0.842   4.707 -0.0425  0.6716  0.6954
   41HTM   C20229790   6.818   0.883   4.830  0.6090  0.4405  0.5543
   41HTM   C20329791   6.956   0.854   4.856  0.6528  0.0444 -0.0823
   41HTM   C20429792   7.020   0.790   4.753  0.0345 -0.0266 -0.4267
   41HTM    S2129793   6.908   0.763   4.614 -0.6561  0.4048  0.0299
   42TAL   C20529794   7.026   0.885   4.991  0.6912  0.6980 -0.2554
   42TAL   C20629795   6.959   0.981   5.078  0.6152  0.2001  0.8029
   42TAL   C20729796   6.978   0.991   5.229  0.0385 -0.1765  0.7233
   42TAL   C20829797   7.112   0.954   5.283 -1.1349 -0.1325  0.2306
   42TAL   C20929798   7.123   0.876   5.409  0.0191 -0.7542  0.3358
   42TAL   C21029799   7.054   0.738   5.414  0.6726 -0.3987 -0.1768
   43HTM   C21129800   7.160   0.749   4.743  0.2285 -0.3065  0.0658
   43HTM   C21229801   7.271   0.824   4.771  0.2210 -0.3790  0.2866
   43HTM   C21329802   7.393   0.747   4.775  0.2040 -0.4088  0.2373
   43HTM   C21429803   7.375   0.614   4.749  0.1984 -0.3591 -0.0211
   43HTM    S2229804   7.202   0.575   4.718  0.2144 -0.2700 -0.2237
   44TAL   C21529805   7.531   0.809   4.817  0.2201  0.1848  0.4893
   44TAL   C21629806   7.560   0.861   4.961 -0.4247  0.7186  0.1094
   44TAL   C21729807   7.703   0.846   5.016 -0.3479  0.2195  1.2727
   44TAL   C21829808   7.768   0.701   5.055  0.9090 -0.4827 -0.7498
   44TAL   C21929809   7.712   0.658   5.189  0.9563 -1.5073 -0.4828
   44TAL   C22029810   7.570   0.596   5.178  0.8051 -0.7414  0.6524
   45HTM   C22129811   7.465   0.502   4.746  0.2015  0.5886  0.0562
   45HTM   C22229812   7.434   0.375   4.787  0.0298  0.6469  0.1082
   45HTM   C22329813   7.548   0.289   4.801 -0.0952  0.4713  0.0585
   45HTM   C22429814   7.667   0.350   4.770 -0.0189  0.2792 -0.0311
   45HTM    S2329815   7.642   0.522   4.722  0.2187  0.3052 -0.0604
   46TAL   C22529816   7.541   0.156   4.860  0.8181 -0.2144  0.0418
   46TAL   C22629817   7.501   0.044   4.780  0.3575  0.5387  0.4159
   46TAL   C22729818   7.496  -0.091   4.871  0.7411 -1.2636 -0.0017
   46TAL   C22829819   7.351  -0.093   4.938  0.5216  0.2085 -0.1505
   46TAL   C22929820   7.370  -0.185   5.059 -0.5825  0.4834  0.0800
   46TAL   C23029821   7.249  -0.272   5.082  0.2430 -0.1608 -0.1929
   47HTM   C23129822   7.807   0.311   4.768  0.4295  0.5311 -0.5245
   47HTM   C23229823   7.904   0.357   4.852  0.2617  0.2472 -0.1661
   47HTM   C23329824   8.025   0.278   4.848  0.0269 -0.1488  0.3344
   47HTM   C23429825   8.019   0.173   4.762  0.0154 -0.1668  0.3573
   47HTM    S2429826   7.860   0.164   4.678  0.3028  0.3187 -0.2561
   48TAL   C23529827   8.149   0.304   4.931 -0.2372  0.1513 -0.8650
   48TAL   C23629828   8.174   0.213   5.052  0.6536 -1.6182 -0.0784
   48TAL   C23729829   8.295   0.259   5.145  1.0508  0.3590  0.0538
   48TAL   C23829830   8.311   0.198   5.280  0.6933 -0.5629 -0.2402
   48TAL   C23929831   8.324   0.049   5.290 -0.6258  0.2426 -0.3997
   48TAL   C24029832   8.304  -0.004   5.436  0.1026  0.8201 -0.3611
    1HTM     C129833   7.973   6.753   2.947 -0.0359 -0.0566  0.1689
    1HTM     C229834   7.946   6.733   2.814 -0.0221 -0.1943  0.1859
    1HTM     C329835   8.045   6.655   2.746  0.1149 -0.0533  0.2208
    1HTM     C429836   8.148   6.614   2.825  0.2056  0.1920  0.2304
    1HTM     S129837   8.127   6.672   2.995  0.1243  0.2643  0.1959
    2TAL     C529838   8.035   6.652   2.593 -0.3362 -0.1643  0.0045
    2TAL     C629839   8.008   6.779   2.498  0.1904 -0.3449  0.3418
    2TAL     C729840   8.085   6.904   2.519  0.3172  0.5932  0.5021
    2TAL     C829841   8.037   7.043   2.462  0.3034  0.2288  0.5386
    2TAL     C929842   7.897   7.100   2.498  0.4447  0.4910  0.1281
    2TAL    C1029843   7.878   7.128   2.640 -0.6484  0.2856 -1.0089
    3HTM    C1129844   8.272   6.545   2.792  0.1929  0.3728  0.0139
    3HTM    C1229845   8.368   6.518   2.885 -0.1526 -0.4569  0.1444
    3HTM    C1329846   8.481   6.447   2.831 -0.3877 -0.8483  0.1554
    3HTM    C1429847   8.471   6.421   2.698 -0.2214 -0.3169  0.0333
    3HTM     S229848   8.317   6.484   2.629  0.2484  0.7269 -0.1061
    4TAL    C1529849   8.603   6.406   2.912  0.0011 -0.4895 -0.5327
    4TAL    C1629850   8.670   6.543   2.966  0.8686  0.4194 -0.0113
    4TAL    C1729851   8.793   6.593   2.871 -0.2943  0.4474 -0.4639
    4TAL    C1829852   8.831   6.730   2.927  1.3100 -0.3398  0.0820
    4TAL    C1929853   8.972   6.766   2.891 -0.2737  0.4793  0.4261
    4TAL    C2029854   9.014   6.897   2.961 -0.0646  0.7181  1.1027
    5HTM    C2129855   8.566   6.359   2.611 -0.3019  0.3169  0.2850
    5HTM    C2229856   8.701   6.346   2.630 -0.3250  0.1851  0.3557
    5HTM    C2329857   8.770   6.289   2.518 -0.3390  0.0010  0.4387
    5HTM    C2429858   8.689   6.260   2.412 -0.3263 -0.0075  0.4313
    5HTM     S329859   8.517   6.301   2.447 -0.2955  0.2180  0.3179
    6TAL    C2529860   8.927   6.273   2.511  1.3667 -0.8170 -0.8602
    6TAL    C2629861   8.999   6.405   2.485  0.8739  0.6441  0.7247
    6TAL    C2729862   9.135   6.364   2.420 -0.5228  0.0228 -1.3967
    6TAL    C2829863   9.234   6.472   2.398 -0.3615 -0.5004 -0.0912
    6TAL    C2929864   9.352   6.425   2.321  0.4227  0.0779 -0.0939
    6TAL    C3029865   9.482   6.430   2.403 -0.7586  0.0542  0.3772
    7HTM    C3129866   8.712   6.200   2.280  0.4213  0.1296 -0.3588
    7HTM    C3229867   8.818   6.210   2.195  0.1888  0.3349 -0.6298
    7HTM    C3329868   8.805   6.130   2.076 -0.0179  0.4102 -0.6575
    7HTM    C3429869   8.688   6.059   2.070  0.0572  0.2623 -0.4075
    7HTM     S429870   8.586   6.088   2.216  0.3977  0.0146 -0.1155
    8TAL    C3529871   8.902   6.139   1.968 -0.5067 -0.7096  0.8889
    8TAL    C3629872   8.888   6.271   1.886 -1.0642  0.5462  0.0444
    8TAL    C3729873   9.025   6.342   1.892  0.3538 -0.8753  0.0450
    8TAL    C3829874   9.038   6.461   1.798  0.4966 -0.1756  0.1267
    8TAL    C3929875   9.129   6.433   1.677  1.0377 -1.2170  0.3151
    8TAL    C4029876   9.174   6.568   1.627 -0.3291  0.2031 -0.1231
    9HTM    C4129877   8.639   5.962   1.971  0.3842  0.3277 -0.1416
    9HTM    C4229878   8.528   5.887   1.999  0.4733  0.2642  0.0376
    9HTM    C4329879   8.473   5.819   1.885  0.4001  0.1321  0.1506
    9HTM    C4429880   8.541   5.842   1.769  0.2558  0.0951  0.0574
    9HTM     S529881   8.682   5.952   1.796  0.2005  0.2251 -0.1821
   10TAL    C4529882   8.343   5.730   1.905  0.1654 -1.0563 -0.4160
   10TAL    C4629883   8.367   5.580   1.910  0.7424 -0.3127  0.2136
   10TAL    C4729884   8.236   5.509   1.977 -0.6477 -0.7309  1.4933
   10TAL    C4829885   8.238   5.363   2.010  0.1166  0.1834 -0.3932
   10TAL    C4929886   8.190   5.279   1.895  0.0861  0.0501 -0.2805
   10TAL    C5029887   8.148   5.153   1.951 -0.7140  0.0269 -0.2239
   11HTM    C5129888   8.516   5.785   1.639 -0.6048 -0.5688 -0.2625
   11HTM    C5229889   8.409   5.765   1.558 -0.3085 -0.7029 -0.6245
   11HTM    C5329890   8.440   5.689   1.439  0.1872 -0.6515 -0.5332
   11HTM    C5429891   8.571   5.651   1.431  0.2689 -0.4781 -0.1017
   11HTM     S629892   8.666   5.710   1.572 -0.2778 -0.3656  0.2255
   12TAL    C5529893   8.327   5.645   1.344 -0.3808 -0.2083 -0.0609
   12TAL    C5629894   8.240   5.540   1.408 -0.4679  0.5608 -1.2127
   12TAL    C5729895   8.185   5.410   1.334 -0.2851 -0.6238  0.8112
   12TAL    C5829896   8.301   5.305   1.323  0.1413  0.1260 -0.9561
   12TAL    C5929897   8.283   5.211   1.204  0.4649 -0.3434  0.1098
   12TAL    C6029898   8.185   5.094   1.238  0.4052 -0.5104  0.7220
   13HTM    C6129899   8.629   5.573   1.316 -0.1046 -0.5621 -0.3217
   13HTM    C6229900   8.748   5.507   1.329 -0.1452 -0.6361 -0.3216
   13HTM    C6329901   8.792   5.444   1.207  0.0713 -0.2259 -0.4593
   13HTM    C6429902   8.707   5.462   1.102  0.2774  0.1605 -0.5642
   13HTM     S729903   8.563   5.560   1.149  0.2131  0.0357 -0.4969
   14TAL    C6529904   8.922   5.364   1.212 -0.3867 -0.1499 -0.5584
   14TAL    C6629905   9.056   5.437   1.247  0.1334  0.4645  1.1870
   14TAL    C6729906   9.163   5.338   1.194 -0.1121 -0.6165  0.2474
   14TAL    C6829907   9.317   5.378   1.196  0.2023  0.9384 -0.7070
   14TAL    C6929908   9.360   5.509   1.250  0.2084 -1.5244 -0.0834
   14TAL    C7029909   9.384   5.530   1.391 -0.3433 -0.4732  0.2394
   15HTM    C7129910   8.691   5.369   0.993  0.2117 -0.5309  0.2438
   15HTM    C7229911   8.790   5.337   0.904  0.1674 -0.7436  0.2700
   15HTM    C7329912   8.752   5.235   0.810 -0.0935 -0.5300  0.1400
   15HTM    C7429913   8.625   5.189   0.827 -0.2483 -0.1546  0.0147
   15HTM     S829914   8.542   5.272   0.964 -0.0752 -0.0408  0.0515
   16TAL    C7529915   8.844   5.185   0.708 -0.8246  0.9466 -0.3715
   16TAL    C7629916   8.996   5.211   0.711 -0.5099  0.3510 -1.1468
   16TAL    C7729917   9.086   5.155   0.830 -0.4177 -0.3956 -0.3596
   16TAL    C7829918   9.097   5.006   0.840  0.8062  0.1913 -0.0236
   16TAL    C7929919   9.211   4.964   0.929 -0.5151 -0.0711  0.7109
   16TAL    C8029920   9.253   4.818   0.925  0.8011  0.8195  0.2137
   17HTM    C8129921   8.540   5.112   0.738 -0.8873  0.3186  0.2516
   17HTM    C8229922   8.435   5.033   0.775 -1.0195  0.2286 -0.2955
   17HTM    C8329923   8.368   4.969   0.665 -0.2093 -0.0643 -0.6265
   17HTM    C8429924   8.423   4.999   0.543  0.5406 -0.1976 -0.3318
   17HTM     S929925   8.564   5.110   0.559  0.2799  0.0379  0.3923
   18TAL    C8529926   8.262   4.871   0.710 -0.6388  0.0897  0.9242
   18TAL    C8629927   8.205   4.859   0.846  0.0950  1.0414 -0.8028
   18TAL    C8729928   8.070   4.775   0.826  1.0667 -0.2296  0.6952
   18TAL    C8829929   7.990   4.742   0.954 -0.2458  0.3759  0.0900
   18TAL    C8929930   8.063   4.648   1.051 -0.4151  0.6338  0.2967
   18TAL    C9029931   7.967   4.633   1.164 -0.8449  0.3825 -1.1598
   19HTM    C9129932   8.355   4.980   0.414 -0.0444 -0.3698  0.2587
   19HTM    C9229933   8.402   5.038   0.300 -0.2546  0.0808  0.3944
   19HTM    C9329934   8.326   5.005   0.183 -0.3407  0.3667  0.3678
   19HTM    C9429935   8.220   4.922   0.208 -0.1958  0.1340  0.2117
   19HTM    S1029936   8.210   4.879   0.382  0.0620 -0.4687  0.0854
   20TAL    C9529937   8.342   5.077   0.047  0.4701 -0.1967  0.5003
   20TAL    C9629938   8.464   5.139  -0.019  0.1937 -0.3120 -1.3637
   20TAL    C9729939   8.543   5.038  -0.102  0.9565  0.4442  1.2452
   20TAL    C9829940   8.629   4.930  -0.041  0.2790 -1.0608  0.0627
   20TAL    C9929941   8.665   4.803  -0.123  1.3255  0.4567 -0.4090
   20TAL   C10029942   8.538   4.730  -0.176  0.1386  0.1389 -0.3083
   21HTM   C10129943   8.102   4.902   0.127 -0.0618  0.1860 -0.1784
   21HTM   C10229944   7.976   4.952   0.143 -0.0811  0.1746 -0.2986
   21HTM   C10329945   7.886   4.918   0.035 -0.0254  0.0131 -0.2950
   21HTM   C10429946   7.943   4.842  -0.062  0.0366 -0.0988 -0.1718
   21HTM    S1129947   8.117   4.808  -0.026  0.0296 -0.0080 -0.0503
   22TAL   C10529948   7.748   4.994   0.033 -0.1005  1.2734 -0.1273
   22TAL   C10629949   7.747   5.113  -0.054 -0.3540 -0.9143 -0.8067
   22TAL   C10729950   7.606   5.179  -0.051 -0.5480 -0.5631  0.2848
   22TAL   C10829951   7.561   5.306  -0.122 -0.8691 -0.9461  0.8284
   22TAL   C10929952   7.665   5.381  -0.209 -0.5826 -0.1460 -0.9591
   22TAL   C11029953   7.800   5.426  -0.128  0.5496 -0.9834 -0.2408
   23HTM   C11129954   7.893   4.777  -0.183 -0.4480  0.5663  0.0964
   23HTM   C11229955   7.768   4.784  -0.239 -0.4048  0.2316 -0.0479
   23HTM   C11329956   7.756   4.712  -0.362 -0.2317 -0.2943  0.2356
   23HTM   C11429957   7.871   4.649  -0.401 -0.1429 -0.3609  0.5960
   23HTM    S1229958   8.005   4.678  -0.284 -0.2720  0.2404  0.6055
   24TAL   C11529959   7.631   4.693  -0.445 -0.7006 -0.1541 -0.4868
   24TAL   C11629960   7.535   4.814  -0.452  0.1404 -0.3387  0.2601
   24TAL   C11729961   7.582   4.923  -0.548 -0.4996  0.1809  0.1215
   24TAL   C11829962   7.493   5.059  -0.552 -0.2462 -0.0946 -0.4301
   24TAL   C11929963   7.560   5.171  -0.626  0.4247 -0.2156 -0.2737
   24TAL   C12029964   7.475   5.305  -0.632 -0.9154  1.2316 -0.9672
   25HTM   C12129965   7.904   4.573  -0.522 -0.0702  0.1179 -0.7134
   25HTM   C12229966   7.864   4.448  -0.558  0.1142  0.0945 -0.8430
   25HTM   C12329967   7.932   4.396  -0.674  0.4975  0.1414 -0.6430
   25HTM   C12429968   8.024   4.481  -0.726  0.6053  0.2006 -0.3606
   25HTM    S1329969   8.032   4.635  -0.633  0.2281  0.2015 -0.3252
   26TAL   C12529970   7.917   4.253  -0.725  1.3612  0.5429 -0.3496
   26TAL   C12629971   7.790   4.173  -0.671 -0.2924 -0.3540  0.4538
   26TAL   C12729972   7.662   4.216  -0.741 -0.1713  0.3398 -0.0534
   26TAL   C12829973   7.569   4.219  -0.625  1.1491  0.4160  0.5108
   26TAL   C12929974   7.437   4.279  -0.658 -0.8746 -0.3125  0.7277
   26TAL   C13029975   7.396   4.399  -0.571  0.1752 -0.3254  0.5407
   27HTM   C13129976   8.097   4.475  -0.848  0.2583  0.2580  0.0032
   27HTM   C13229977   8.115   4.581  -0.931  0.4947  0.1266 -0.1173
   27HTM   C13329978   8.199   4.553  -1.044  0.4549 -0.1811 -0.0727
   27HTM   C13429979   8.246   4.425  -1.047  0.1882 -0.2847  0.0818
   27HTM    S1429980   8.187   4.329  -0.907 -0.0351  0.0008  0.1837
   28TAL   C13529981   8.212   4.659  -1.153  0.3267  0.9733 -0.5048
   28TAL   C13629982   8.232   4.803  -1.135 -0.3859 -0.4537 -0.2369
   28TAL   C13729983   8.293   4.885  -1.246  0.0266 -1.0907 -0.8968
   28TAL   C13829984   8.271   5.037  -1.252 -0.3190  0.4938  0.2140
   28TAL   C13929985   8.331   5.109  -1.140  0.1179  0.4673 -0.1354
   28TAL   C14029986   8.355   5.249  -1.183 -0.3631  0.6424  0.4906
   29HTM   C14129987   8.319   4.343  -1.149 -0.0199 -0.0994 -0.5234
   29HTM   C14229988   8.395   4.382  -1.255 -0.2930 -0.3613 -0.8211
   29HTM   C14329989   8.464   4.274  -1.321 -0.1979 -0.4855 -0.5205
   29HTM   C14429990   8.440   4.152  -1.265  0.1481 -0.3184  0.0060
   29HTM    S1529991   8.328   4.165  -1.124  0.3820  0.0115  0.1645
   30TAL   C14529992   8.541   4.312  -1.450 -0.2850  0.4956  0.6787
   30TAL   C14629993   8.673   4.387  -1.453  0.0158  0.3314  0.2906
   30TAL   C14729994   8.790   4.331  -1.368 -0.2946  0.0100 -0.0501
   30TAL   C14829995   8.937   4.381  -1.427  0.5395  0.8628  0.2277
   30TAL   C14929996   9.050   4.284  -1.464  0.4393  0.7515 -0.1703
   30TAL   C15029997   9.123   4.199  -1.356  0.3840  0.6717 -0.5205
   31HTM   C15129998   8.487   4.018  -1.298  0.1680  0.2834  0.0606
   31HTM   C15229999   8.468   3.903  -1.227 -0.4299  0.1225 -0.3448
   31HTM   C15330000   8.548   3.792  -1.273 -0.6623 -0.0047 -0.4449
   31HTM   C15430001   8.627   3.823  -1.380 -0.2419  0.0590 -0.1156
   31HTM    S1630002   8.608   3.995  -1.430  0.4863  0.2864  0.3496
   32TAL   C15530003   8.554   3.656  -1.201 -0.3932  1.0790  0.4189
   32TAL   C15630004   8.547   3.667  -1.048  0.5015  0.7277 -0.5077
   32TAL   C15730005   8.516   3.534  -0.975  0.2696 -0.0234  0.6800
   32TAL   C15830006   8.375   3.475  -0.982  0.7060  1.7879  0.0749
   32TAL   C15930007   8.257   3.558  -0.955  0.2520 -0.1806 -0.7666
   32TAL   C16030008   8.140   3.469  -0.929 -0.3726  0.4365  0.3953
   33HTM   C16130009   8.719   3.729  -1.445 -0.2782 -0.0424  0.5457
   33HTM   C16230010   8.849   3.754  -1.479 -0.1135  0.2024  1.3258
   33HTM   C16330011   8.912   3.646  -1.551  0.3059  0.5974  1.0943
   33HTM   C16430012   8.830   3.539  -1.572  0.4612  0.6537  0.1377
   33HTM    S1730013   8.666   3.566  -1.503  0.0862  0.2089 -0.5503
   34TAL   C16530014   9.055   3.672  -1.595 -0.4689 -0.3297  0.7944
   34TAL   C16630015   9.081   3.784  -1.700 -0.0168 -0.8072  0.1459
   34TAL   C16730016   8.997   3.798  -1.828 -0.2168  0.1960 -1.1941
   34TAL   C16830017   9.062   3.897  -1.918  0.1361 -0.0756 -0.3071
   34TAL   C16930018   8.977   3.952  -2.031  0.6799  0.2945  0.4151
   34TAL   C17030019   9.037   4.025  -2.139 -0.0446  0.2049  0.8658
   35HTM   C17130020   8.871   3.413  -1.632  0.0698 -0.3691  0.2615
   35HTM   C17230021   8.943   3.313  -1.574 -0.4554 -0.6964  0.3657
   35HTM   C17330022   8.966   3.200  -1.661 -0.7207 -0.7411  0.3533
   35HTM   C17430023   8.911   3.214  -1.785 -0.3974 -0.4478  0.2395
   35HTM    S1830024   8.825   3.372  -1.802  0.2717 -0.0897  0.1383
   36TAL   C17530025   9.052   3.083  -1.619 -0.8854 -0.4761 -0.3405
   36TAL   C17630026   9.004   2.936  -1.632  0.1408 -0.3199 -0.8829
   36TAL   C17730027   8.869   2.893  -1.581  0.8308  0.4830 -1.2532
   36TAL   C17830028   8.872   2.738  -1.591  0.8703  0.9391 -0.2791
   36TAL   C17930029   8.900   2.662  -1.719 -0.1642  0.2075 -0.2729
   36TAL   C18030030   8.788   2.641  -1.815  0.0165 -0.5930 -1.1222
   37HTM   C18130031   8.906   3.139  -1.910  0.0113  0.4585 -0.0984
   37HTM   C18230032   8.805   3.127  -2.000 -0.2100  0.2080  0.1776
   37HTM   C18330033   8.835   3.037  -2.109 -0.5515 -0.2446  0.4541
   37HTM   C18430034   8.958   2.980  -2.100 -0.5903 -0.3391  0.3888
   37HTM    S1930035   9.048   3.036  -1.954 -0.1958  0.1398 -0.0301
   38TAL   C18530036   8.735   3.009  -2.220  0.1516 -0.4327 -0.4171
   38TAL   C18630037   8.605   2.914  -2.196 -0.5720  1.1628 -0.3564
   38TAL   C18730038   8.614   2.767  -2.145 -0.8828 -0.8073  0.0991
   38TAL   C18830039   8.486   2.689  -2.157 -0.4973  0.8433 -0.7626
   38TAL   C18930040   8.521   2.559  -2.093  0.6297 -0.5561 -0.0251
   38TAL   C19030041   8.393   2.479  -2.068 -0.4871 -0.3927  0.0575
   39HTM   C19130042   9.015   2.870  -2.165  0.3294  0.1494 -0.2052
   39HTM   C19230043   9.104   2.781  -2.113 -0.2484 -0.2083  0.2012
   39HTM   C19330044   9.140   2.675  -2.205 -0.6561 -0.6651  0.5544
   39HTM   C19430045   9.078   2.685  -2.326 -0.3897 -0.6559  0.4170
   39HTM    S2030046   8.969   2.828  -2.334  0.4033 -0.0649 -0.1733
   40TAL   C19530047   9.255   2.580  -2.169  1.3401  0.2918  0.3967
   40TAL   C19630048   9.391   2.639  -2.209 -1.0447  0.6095 -0.7414
   40TAL   C19730049   9.504   2.554  -2.145 -1.2564  0.5942  1.1910
   40TAL   C19830050   9.518   2.404  -2.204 -0.0278 -0.2800 -0.8372
   40TAL   C19930051   9.656   2.346  -2.172  0.4942  0.8313 -0.2650
   40TAL   C20030052   9.634   2.233  -2.061 -0.6770 -0.4704  1.4510
   41HTM   C20130053   9.094   2.610  -2.447 -0.1878  0.1792 -0.2612
   41HTM   C20230054   9.034   2.646  -2.565 -1.0884 -0.7368 -0.1093
   41HTM   C20330055   9.077   2.567  -2.678 -1.3392 -1.0874  0.0376
   41HTM   C20430056   9.169   2.472  -2.647 -0.6299 -0.4387 -0.0021
   41HTM    S2130057   9.209   2.473  -2.471  0.4176  0.6739 -0.2298
   42TAL   C20530058   9.022   2.599  -2.819 -1.0463 -0.3157  0.0198
   42TAL   C20630059   8.890   2.547  -2.862 -0.5635 -0.0180  0.1955
   42TAL   C20730060   8.863   2.550  -3.015  0.5224 -0.8674  0.7029
   42TAL   C20830061   8.923   2.442  -3.098  0.2137  0.0442  0.4189
   42TAL   C20930062   8.872   2.437  -3.239  0.4121 -0.7986 -0.3493
   42TAL   C21030063   8.960   2.346  -3.314 -0.0582  0.2738 -0.2142
   43HTM   C21130064   9.217   2.362  -2.734 -0.4155 -0.1785  0.6653
   43HTM   C21230065   9.181   2.332  -2.862 -1.0722  0.2721  0.7349
   43HTM   C21330066   9.247   2.215  -2.916 -1.1988  0.5590 -0.0777
   43HTM   C21430067   9.333   2.156  -2.828 -0.6385  0.3272 -0.7671
   43HTM    S2230068   9.338   2.244  -2.670  0.0981 -0.2760 -0.4406
   44TAL   C21530069   9.212   2.177  -3.060 -1.1291 -0.9950 -0.2781
   44TAL   C21630070   9.309   2.180  -3.179  0.1347  0.0933 -1.0778
   44TAL   C21730071   9.397   2.307  -3.197  0.3695  0.8464  0.3017
   44TAL   C21830072   9.497   2.308  -3.325  0.6882 -0.8572 -0.0100
   44TAL   C21930073   9.566   2.179  -3.337 -0.1087  0.8765 -0.8428
   44TAL   C22030074   9.704   2.184  -3.400  0.5068  0.3838  0.4653
   45HTM   C22130075   9.392   2.021  -2.832  0.1082 -0.2043 -0.2252
   45HTM   C22230076   9.430   1.950  -2.942  0.9434 -0.1406  0.0080
   45HTM   C22330077   9.479   1.818  -2.913  1.4296  0.1132  0.3557
   45HTM   C22430078   9.479   1.788  -2.780  0.9651  0.2432  0.3876
   45HTM    S2330079   9.416   1.925  -2.681 -0.1308  0.0534 -0.0221
   46TAL   C22530080   9.510   1.744  -3.044  0.3536 -0.1034 -0.6068
   46TAL   C22630081   9.468   1.600  -3.048  1.0611 -0.0865  0.1271
   46TAL   C22730082   9.520   1.530  -3.171  0.6821  0.3737  1.6094
   46TAL   C22830083   9.492   1.383  -3.198 -0.7618  0.4037  0.1032
   46TAL   C22930084   9.552   1.281  -3.102 -0.7670  0.8300 -0.3375
   46TAL   C23030085   9.419   1.244  -3.029  0.2651 -0.0780  0.4064
   47HTM   C23130086   9.541   1.672  -2.715 -0.0337 -0.4731 -0.2637
   47HTM   C23230087   9.675   1.645  -2.720 -0.0768 -0.6869 -0.2632
   47HTM   C23330088   9.716   1.540  -2.631 -0.1664 -0.4263  0.0893
   47HTM   C23430089   9.614   1.487  -2.557 -0.1922 -0.0138  0.3577
   47HTM    S2430090   9.457   1.566  -2.595 -0.1043  0.0784  0.1847
   48TAL   C23530091   9.857   1.489  -2.601  1.1264  0.4010 -0.1087
   48TAL   C23630092   9.942   1.452  -2.733 -0.6816 -0.7091  0.3478
   48TAL   C23730093  10.084   1.505  -2.716 -0.4851  0.3564 -1.0083
   48TAL   C23830094  10.095   1.644  -2.783  0.3710  0.3676  0.2572
   48TAL   C23930095  10.228   1.693  -2.820  0.2083  0.1873 -0.1160
   48TAL   C24030096  10.244   1.835  -2.860 -0.9663 -1.1685 -0.7480
    1HTM     C130097   5.406   1.635   2.947  0.1085 -0.2044  0.0812
    1HTM     C230098   5.301   1.672   3.026 -0.0312 -0.2771 -0.0699
    1HTM     C330099   5.271   1.578   3.131 -0.1100 -0.2926 -0.1063
    1HTM     C430100   5.353   1.469   3.132 -0.0304 -0.2318  0.0169
    1HTM     S130101   5.475   1.477   3.000  0.1517 -0.1496  0.1899
    2TAL     C530102   5.167   1.614   3.230  1.1092 -0.1834  0.0530
    2TAL     C630103   5.030   1.560   3.190 -1.0173  0.0308 -0.8083
    2TAL     C730104   4.947   1.612   3.072 -0.8025  0.0999  0.7866
    2TAL     C830105   4.939   1.747   3.022  0.2649  0.0456 -0.0661
    2TAL     C930106   4.912   1.867   3.110 -1.0289 -0.2923 -0.0602
    2TAL    C1030107   5.021   1.986   3.102  0.1026  0.1893 -0.1242
    3HTM    C1130108   5.347   1.355   3.218  0.0226 -0.0533  0.9442
    3HTM    C1230109   5.441   1.306   3.304 -0.3319  0.3518  1.5795
    3HTM    C1330110   5.397   1.189   3.376 -0.4531  0.3980  1.5812
    3HTM    C1430111   5.270   1.149   3.345 -0.1912  0.0282  0.9473
    3HTM     S230112   5.196   1.258   3.221  0.2320 -0.4105  0.2940
    4TAL    C1530113   5.491   1.088   3.439  0.3251 -0.3095 -0.0328
    4TAL    C1630114   5.643   1.100   3.407 -0.5940  0.5048  0.1952
    4TAL    C1730115   5.741   1.186   3.483 -0.0818 -0.0481 -0.3008
    4TAL    C1830116   5.900   1.173   3.491  0.2718  0.0318  0.2846
    4TAL    C1930117   5.973   1.051   3.421  0.4959 -0.7306  0.5430
    4TAL    C2030118   6.109   1.009   3.473  0.1942  0.5277  1.4368
    5HTM    C2130119   5.185   1.039   3.382  0.5038  0.2001  0.4056
    5HTM    C2230120   5.095   0.974   3.303  1.1780 -0.3041  0.0399
    5HTM    C2330121   5.024   0.868   3.370  1.3946 -0.6097 -0.2085
    5HTM    C2430122   5.060   0.852   3.501  0.8857 -0.3384 -0.0323
    5HTM     S330123   5.187   0.971   3.550  0.0870  0.3291  0.4651
    6TAL    C2530124   4.915   0.781   3.297  0.9875  0.0300 -0.3510
    6TAL    C2630125   4.801   0.863   3.240 -0.5409 -0.8659  0.1404
    6TAL    C2730126   4.693   0.767   3.183  0.4829 -0.4850  0.4359
    6TAL    C2830127   4.562   0.824   3.112 -0.4985 -0.4228  0.2349
    6TAL    C2930128   4.581   0.880   2.974  1.5100 -0.4884  0.9214
    6TAL    C3030129   4.567   0.765   2.869  0.2090 -0.1119 -0.7533
    7HTM    C3130130   5.013   0.766   3.600  0.5942 -0.1041 -0.0227
    7HTM    C3230131   4.935   0.655   3.591  1.1333 -0.4682 -0.3505
    7HTM    C3330132   4.904   0.595   3.718  0.7157 -0.4890 -0.4589
    7HTM    C3430133   4.959   0.661   3.825 -0.1419 -0.1406 -0.2137
    7HTM     S430134   5.054   0.804   3.771 -0.4915  0.2436  0.1760
    8TAL    C3530135   4.793   0.492   3.736 -0.0150  0.4500 -0.6700
    8TAL    C3630136   4.689   0.460   3.626  0.5003 -0.2220 -0.2702
    8TAL    C3730137   4.630   0.308   3.622  0.4616 -0.0804 -0.9427
    8TAL    C3830138   4.595   0.260   3.481 -0.0950  0.0805 -0.1737
    8TAL    C3930139   4.486   0.340   3.406  0.1764  0.6398  0.0895
    8TAL    C4030140   4.352   0.309   3.461  0.1407  0.2614  0.3645
    9HTM    C4130141   4.944   0.635   3.968 -0.3528  0.3338  0.3082
    9HTM    C4230142   4.895   0.723   4.060 -0.3273 -0.0851  0.7284
    9HTM    C4330143   4.907   0.677   4.196  0.0086 -0.5670  0.5418
    9HTM    C4430144   4.967   0.555   4.208  0.2391 -0.5155 -0.0209
    9HTM     S530145   5.011   0.487   4.047  0.0483  0.1507 -0.3609
   10TAL    C4530146   4.852   0.774   4.298  0.5925  0.2952 -0.2374
   10TAL    C4630147   4.971   0.863   4.349 -0.1407  0.3618 -0.3211
   10TAL    C4730148   4.904   0.985   4.414 -0.7270 -0.1442 -0.2309
   10TAL    C4830149   4.929   1.020   4.561  0.0891  0.3654  0.4175
   10TAL    C4930150   4.842   0.934   4.650  0.8277  0.7586 -0.3479
   10TAL    C5030151   4.838   0.990   4.795  0.8900 -0.2296  0.7740
   11HTM    C5130152   4.992   0.484   4.328 -0.2715 -0.0575 -0.3610
   11HTM    C5230153   4.958   0.508   4.457 -0.0643  0.0689 -0.3279
   11HTM    C5330154   5.012   0.412   4.550  0.3299  0.3295 -0.2835
   11HTM    C5430155   5.088   0.315   4.491  0.4231  0.4016 -0.2826
   11HTM     S630156   5.097   0.338   4.313  0.0171  0.1442 -0.3384
   12TAL    C5530157   4.959   0.395   4.691  0.3490 -0.0223  0.0475
   12TAL    C5630158   4.968   0.511   4.784  1.4685 -0.5943 -0.4944
   12TAL    C5730159   5.104   0.559   4.834  0.3951 -0.6521  0.4258
   12TAL    C5830160   5.104   0.691   4.920 -0.3244 -0.1615  0.0410
   12TAL    C5930161   5.230   0.732   5.003 -0.0923 -0.3931  0.8521
   12TAL    C6030162   5.216   0.664   5.141 -0.0773 -1.3069  0.5006
   13HTM    C6130163   5.166   0.210   4.561 -0.3543 -0.4417 -0.4023
   13HTM    C6230164   5.290   0.169   4.524 -0.3405 -0.4579 -0.3378
   13HTM    C6330165   5.343   0.063   4.606 -0.2831 -0.2747 -0.1388
   13HTM    C6430166   5.259   0.024   4.706 -0.2530 -0.1189 -0.0514
   13HTM     S730167   5.105   0.118   4.704 -0.2953 -0.1920 -0.2152
   14TAL    C6530168   5.466  -0.025   4.585 -0.3971  1.1619  0.6470
   14TAL    C6630169   5.582   0.040   4.503 -0.4068  0.5277  0.2707
   14TAL    C6730170   5.699  -0.041   4.455  0.0193  0.1447 -0.0199
   14TAL    C6830171   5.661  -0.164   4.371 -0.5637  0.8535  0.2778
   14TAL    C6930172   5.778  -0.247   4.316  0.0483  0.4768  0.2701
   14TAL    C7030173   5.881  -0.307   4.404  0.1840 -0.3386  0.5119
   15HTM    C7130174   5.268  -0.072   4.816 -0.2298  0.1680  0.1672
   15HTM    C7230175   5.205  -0.192   4.815  0.0019  0.0441 -0.3350
   15HTM    C7330176   5.262  -0.289   4.905  0.0216 -0.1335 -0.5361
   15HTM    C7430177   5.370  -0.241   4.975 -0.1951 -0.1449 -0.1874
   15HTM     S830178   5.407  -0.070   4.931 -0.4427  0.0691  0.4270
   16TAL    C7530179   5.200  -0.431   4.911 -0.7409 -0.2698  0.0232
   16TAL    C7630180   5.067  -0.449   4.979  0.2021 -0.1038  0.6483
   16TAL    C7730181   4.996  -0.588   4.966  0.7937 -0.3092  0.2330
   16TAL    C7830182   5.086  -0.712   4.986 -0.3840 -0.4389 -0.0648
   16TAL    C7930183   5.016  -0.846   4.965 -0.5827 -1.2962  0.4380
   16TAL    C8030184   5.114  -0.959   4.977 -0.8411  0.1938  1.0789
   17HTM    C8130185   5.453  -0.307   5.077  0.0179 -0.4938 -0.0544
   17HTM    C8230186   5.582  -0.275   5.104  0.0975 -0.4532 -0.4660
   17HTM    C8330187   5.644  -0.361   5.203  0.3884 -0.3364 -0.5430
   17HTM    C8430188   5.560  -0.458   5.251  0.5308 -0.2881 -0.1903
   17HTM     S930189   5.397  -0.448   5.174  0.3067 -0.3866  0.2703
   18TAL    C8530190   5.790  -0.338   5.233  0.3774 -0.3157 -0.0042
   18TAL    C8630191   5.889  -0.355   5.119 -0.5701 -0.3188  0.4562
   18TAL    C8730192   6.016  -0.280   5.165 -0.4650  0.3241  0.1579
   18TAL    C8830193   6.007  -0.139   5.230  1.2508  0.2332 -0.0621
   18TAL    C8930194   6.122  -0.046   5.253 -0.3952 -0.3651 -0.7368
   18TAL    C9030195   6.074   0.081   5.314  0.0726 -0.6064 -0.8309
   19HTM    C9130196   5.571  -0.551   5.351 -0.3991 -0.2810 -0.0760
   19HTM    C9230197   5.586  -0.686   5.342 -0.5397 -0.3068  0.0480
   19HTM    C9330198   5.596  -0.753   5.469 -0.1675 -0.1473  0.1048
   19HTM    C9430199   5.589  -0.668   5.576  0.2568  0.0001  0.0240
   19HTM    S1030200   5.568  -0.497   5.524  0.2190 -0.0518 -0.1313
   20TAL    C9530201   5.609  -0.898   5.464 -0.8155  0.0455  0.4269
   20TAL    C9630202   5.490  -0.989   5.478  0.8453 -0.0609 -0.4163
   20TAL    C9730203   5.422  -1.015   5.341  0.4386 -0.1547  0.4791
   20TAL    C9830204   5.493  -1.121   5.261  0.0223 -0.2583 -0.5805
   20TAL    C9930205   5.461  -1.165   5.116  0.1089 -0.0120  0.3480
   20TAL   C10030206   5.571  -1.257   5.088 -0.4029  0.4703  0.8670
   21HTM   C10130207   5.611  -0.697   5.717  0.2166  0.0827  0.1385
   21HTM   C10230208   5.598  -0.610   5.821 -0.3625 -0.0174  0.1607
   21HTM   C10330209   5.616  -0.670   5.951 -0.6447 -0.0589  0.1814
   21HTM   C10430210   5.642  -0.804   5.946 -0.2806  0.0100  0.1748
   21HTM    S1130211   5.646  -0.864   5.776  0.4526  0.1334  0.1420
   22TAL   C10530212   5.605  -0.592   6.084  0.4031  0.6948 -0.0096
   22TAL   C10630213   5.632  -0.442   6.099  0.5599  0.0234  0.1209
   22TAL   C10730214   5.764  -0.363   6.046  0.1804 -0.8003 -0.0790
   22TAL   C10830215   5.896  -0.428   6.070 -0.1397  0.6413 -0.3233
   22TAL   C10930216   5.929  -0.508   6.203  0.4958  0.4226  0.2397
   22TAL   C11030217   6.054  -0.595   6.203  0.6925 -0.4312  0.0823
   23HTM   C11130218   5.679  -0.906   6.037  0.3246  0.3933 -0.3303
   23HTM   C11230219   5.653  -1.040   6.033  0.1391  0.4401 -0.8835
   23HTM   C11330220   5.720  -1.115   6.136 -0.2337 -0.0319 -0.9789
   23HTM   C11430221   5.797  -1.038   6.219 -0.3324 -0.4388 -0.4988
   23HTM    S1230222   5.791  -0.864   6.172  0.0406 -0.2561  0.1162
   24TAL   C11530223   5.696  -1.264   6.152 -0.1221 -0.1321  0.4726
   24TAL   C11630224   5.576  -1.339   6.095  0.6140 -0.2312 -0.9559
   24TAL   C11730225   5.444  -1.293   6.160  0.4624 -0.3142 -0.5528
   24TAL   C11830226   5.357  -1.414   6.224  0.3970 -0.8172  0.3546
   24TAL   C11930227   5.231  -1.359   6.286  0.3650 -0.6197  0.7616
   24TAL   C12030228   5.148  -1.444   6.372 -0.6015 -1.0479  0.3675
   25HTM   C12130229   5.882  -1.072   6.336  0.4391 -0.2206 -0.1698
   25HTM   C12230230   5.868  -1.183   6.413  0.7114 -0.6127 -0.6727
   25HTM   C12330231   5.973  -1.200   6.510  0.6162 -0.6497 -0.5751
   25HTM   C12430232   6.067  -1.102   6.506  0.2709 -0.2858  0.0023
   25HTM    S1330233   6.031  -0.979   6.380  0.0378  0.1350  0.4713
   26TAL   C12530234   5.985  -1.336   6.590  0.0460  0.0507 -0.2431
   26TAL   C12630235   5.946  -1.475   6.532  0.1825 -0.2535 -0.3164
   26TAL   C12730236   5.813  -1.502   6.452 -0.2703 -0.0682  0.0956
   26TAL   C12830237   5.700  -1.436   6.523  0.1048  0.4581 -0.3617
   26TAL   C12930238   5.630  -1.532   6.628  1.0520 -0.1174  0.1652
   26TAL   C13030239   5.558  -1.453   6.733  0.7653  0.6032 -1.0777
   27HTM   C13130240   6.176  -1.085   6.604 -0.3669  0.1068  0.2456
   27HTM   C13230241   6.248  -1.174   6.679 -0.2619  0.3400  0.4244
   27HTM   C13330242   6.364  -1.117   6.742 -0.2940  0.5879  0.2601
   27HTM   C13430243   6.382  -0.985   6.714 -0.4235  0.5435 -0.0439
   27HTM    S1430244   6.252  -0.921   6.607 -0.5157  0.1826 -0.1472
   28TAL   C13530245   6.452  -1.214   6.813  0.4255  0.3159  0.1037
   28TAL   C13630246   6.491  -1.356   6.772 -0.3995 -0.4105 -0.2370
   28TAL   C13730247   6.584  -1.425   6.868  0.1364  0.2913 -0.1498
   28TAL   C13830248   6.711  -1.490   6.803  1.1534 -0.1588  0.5722
   28TAL   C13930249   6.693  -1.636   6.787  0.1576  0.0119  0.5939
   28TAL   C14030250   6.819  -1.712   6.759 -0.6761  0.5881  0.2170
   29HTM   C14130251   6.484  -0.899   6.769 -0.4017  0.8485 -0.1571
   29HTM   C14230252   6.460  -0.790   6.847  0.2097  1.1666 -0.3946
   29HTM   C14330253   6.579  -0.723   6.892  0.5920  0.6828 -0.6649
   29HTM   C14430254   6.694  -0.780   6.847  0.2719 -0.0039 -0.6339
   29HTM    S1530255   6.661  -0.925   6.745 -0.5431 -0.0939 -0.2577
   30TAL   C14530256   6.582  -0.605   6.993 -0.5356  0.6126 -0.0406
   30TAL   C14630257   6.492  -0.496   6.978  0.1373 -0.0570  0.7017
   30TAL   C14730258   6.464  -0.438   6.832 -0.5363 -0.0157  0.2484
   30TAL   C14830259   6.376  -0.320   6.819 -0.3631 -1.0581 -0.8248
   30TAL   C14930260   6.436  -0.192   6.749  0.4427  0.7231 -0.8878
   30TAL   C15030261   6.419  -0.061   6.820  0.0502  0.3178  0.4450
   31HTM   C15130262   6.826  -0.729   6.844 -0.4108 -0.1532  0.1082
   31HTM   C15230263   6.890  -0.691   6.730 -0.4965 -0.0613  0.0900
   31HTM   C15330264   7.024  -0.643   6.752 -0.5063 -0.0086  0.0361
   31HTM   C15430265   7.062  -0.644   6.883 -0.4281 -0.0599  0.0132
   31HTM    S1630266   6.930  -0.707   6.989 -0.3354 -0.1802  0.0578
   32TAL   C15530267   7.113  -0.601   6.644 -0.1002  0.8783  0.4857
   32TAL   C15630268   7.193  -0.711   6.552  0.5438 -0.0837  0.0606
   32TAL   C15730269   7.215  -0.637   6.411  0.5439  0.4011  0.5480
   32TAL   C15830270   7.085  -0.615   6.329 -0.5908  0.9877  0.2465
   32TAL   C15930271   7.106  -0.539   6.196  0.2502  0.9334 -0.0541
   32TAL   C16030272   7.117  -0.384   6.209 -0.4903 -0.1304 -0.6596
   33HTM   C16130273   7.186  -0.585   6.941  0.0293 -0.1254 -0.1049
   33HTM   C16230274   7.277  -0.653   7.016  0.0736 -0.4578 -0.4504
   33HTM   C16330275   7.399  -0.579   7.041  0.2337 -0.7050 -0.4966
   33HTM   C16430276   7.400  -0.456   6.983  0.3115 -0.5606 -0.1867
   33HTM    S1730277   7.247  -0.422   6.894  0.1877 -0.0985  0.1910
   34TAL   C16530278   7.501  -0.627   7.139  0.4248 -0.7619  0.0787
   34TAL   C16630279   7.552  -0.762   7.107 -0.2809  0.5413 -0.1301
   34TAL   C16730280   7.632  -0.811   7.233  0.6002 -1.1314  0.8484
   34TAL   C16830281   7.543  -0.864   7.344  0.3938  0.1429 -0.5510
   34TAL   C16930282   7.607  -0.963   7.452  0.0754  0.3801 -0.5855
   34TAL   C17030283   7.712  -0.923   7.539  0.1373 -1.0953 -0.6634
   35HTM   C17130284   7.504  -0.363   6.980  0.0031  0.3503 -0.3844
   35HTM   C17230285   7.592  -0.340   6.877 -0.6416  1.2603 -0.7652
   35HTM   C17330286   7.694  -0.244   6.909 -0.8919  1.5554 -0.8411
   35HTM   C17430287   7.685  -0.193   7.035 -0.4380  0.8704 -0.5185
   35HTM    S1830288   7.545  -0.263   7.124  0.3468 -0.2090 -0.0902
   36TAL   C17530289   7.816  -0.222   6.816 -0.5296 -0.3335  0.0465
   36TAL   C17630290   7.947  -0.285   6.862 -0.5156 -0.3906  0.3858
   36TAL   C17730291   8.072  -0.274   6.780  0.5152 -0.4663  0.8618
   36TAL   C17830292   8.191  -0.331   6.854 -0.2427  0.5744 -0.6550
   36TAL   C17930293   8.296  -0.348   6.747  0.6315 -0.1464  0.1295
   36TAL   C18030294   8.405  -0.434   6.802 -0.3908  0.2846 -0.5423
   37HTM   C18130295   7.755  -0.099   7.118 -0.0592 -0.5306  0.0628
   37HTM   C18230296   7.816   0.018   7.085 -0.0430 -0.6497 -0.3320
   37HTM   C18330297   7.879   0.085   7.196  0.1771 -0.4053 -0.6001
   37HTM   C18430298   7.865   0.018   7.314  0.3286 -0.1000 -0.4098
   37HTM    S1930299   7.772  -0.135   7.295  0.2042 -0.0972  0.1270
   38TAL   C18530300   7.943   0.224   7.164 -0.2298  0.2081  0.5937
   38TAL   C18630301   7.870   0.316   7.054 -0.2275 -0.3469  1.0959
   38TAL   C18730302   7.926   0.459   7.057  0.0139 -0.3811  0.1688
   38TAL   C18830303   7.840   0.538   6.966  0.8752 -0.7876  0.0347
   38TAL   C18930304   7.825   0.692   6.977  0.6708 -1.0026 -0.0042
   38TAL   C19030305   7.746   0.771   6.870 -0.3356  0.8586  0.8069
   39HTM   C19130306   7.935   0.057   7.431 -0.3941  0.0559 -0.0482
   39HTM   C19230307   7.895   0.132   7.538  0.0640  0.3095 -0.0472
   39HTM   C19330308   7.984   0.125   7.650  0.3816  0.3179 -0.2966
   39HTM   C19430309   8.093   0.045   7.629  0.1658  0.0708 -0.4878
   39HTM    S2030310   8.090  -0.028   7.465 -0.4603 -0.1938 -0.3668
   40TAL   C19530311   7.930   0.178   7.787 -0.1112 -0.1786  0.7435
   40TAL   C19630312   7.788   0.133   7.834  0.9873  0.8939  0.2274
   40TAL   C19730313   7.780  -0.024   7.866 -0.1194 -1.0131 -0.3722
   40TAL   C19830314   7.701  -0.113   7.767 -1.3445  0.4313 -0.5802
   40TAL   C19930315   7.558  -0.113   7.766  0.8697  0.8219  0.0186
   40TAL   C20030316   7.495  -0.230   7.683 -0.5776 -0.1424  0.4745
   41HTM   C20130317   8.209   0.010   7.712 -0.5272 -0.4793 -0.7799
   41HTM   C20230318   8.200  -0.042   7.838 -0.7761 -0.3018 -0.7221
   41HTM   C20330319   8.324  -0.096   7.887 -0.7508  0.2127 -0.2021
   41HTM   C20430320   8.428  -0.085   7.799 -0.4828  0.4278  0.1369
   41HTM    S2130321   8.376  -0.005   7.646 -0.2399 -0.0064 -0.1770
   42TAL   C20530322   8.354  -0.147   8.028 -0.4982  0.6328 -0.5105
   42TAL   C20630323   8.247  -0.207   8.116  2.1189 -0.6065  0.4505
   42TAL   C20730324   8.164  -0.330   8.059 -1.0428 -0.8440 -0.3099
   42TAL   C20830325   8.045  -0.359   8.135  0.6977 -0.3688 -0.2147
   42TAL   C20930326   7.949  -0.246   8.184  0.7796  0.3073 -0.0771
   42TAL   C21030327   7.810  -0.304   8.229  0.2754 -0.0494 -0.3472
   43HTM   C21130328   8.562  -0.131   7.830  0.0866 -0.5348  0.3089
   43HTM   C21230329   8.638  -0.207   7.745  0.2670  0.1934 -0.1984
   43HTM   C21330330   8.778  -0.207   7.777  0.3562  0.7718 -0.5572
   43HTM   C21430331   8.809  -0.131   7.886  0.2432  0.4853 -0.3236
   43HTM    S2230332   8.663  -0.053   7.958  0.0142 -0.5455  0.3730
   44TAL   C21530333   8.867  -0.281   7.687  0.9964  0.2273  0.1928
   44TAL   C21630334   8.852  -0.435   7.667  0.6721  0.5568 -1.1563
   44TAL   C21730335   8.930  -0.506   7.556 -0.2557  0.6562  0.3661
   44TAL   C21830336   8.861  -0.642   7.521 -0.3267 -1.0446  0.7146
   44TAL   C21930337   8.926  -0.723   7.420 -0.0824  0.1147  0.3940
   44TAL   C22030338   8.870  -0.855   7.444 -0.9420 -0.0578 -0.8428
   45HTM   C22130339   8.923  -0.106   7.976 -0.3967  0.0961  0.3705
   45HTM   C22230340   8.989   0.009   8.007 -0.5233  0.0343  0.8926
   45HTM   C22330341   9.101  -0.010   8.096 -0.3545 -0.2837  0.6168
   45HTM   C22430342   9.120  -0.140   8.133 -0.0994 -0.4647 -0.1157
   45HTM    S2330343   8.998  -0.249   8.058 -0.0522 -0.2456 -0.5170
   46TAL   C22530344   9.212   0.100   8.122 -1.1281 -0.2386 -0.2562
   46TAL   C22630345   9.267   0.180   8.001 -0.3106 -0.5271  0.4031
   46TAL   C22730346   9.408   0.152   7.946 -0.0822 -0.6283 -0.1824
   46TAL   C22830347   9.417   0.018   7.862  1.0166 -0.5378 -0.4990
   46TAL   C22930348   9.547  -0.047   7.824  0.9209  0.1936  0.5449
   46TAL   C23030349   9.660   0.048   7.813 -0.2631 -0.3607  0.4998
   47HTM   C23130350   9.226  -0.194   8.230  0.2261  0.1049 -0.2771
   47HTM   C23230351   9.334  -0.268   8.191  0.5960  0.7246 -0.4499
   47HTM   C23330352   9.431  -0.288   8.295  0.5014  0.6361 -0.3769
   47HTM   C23430353   9.398  -0.229   8.413  0.0596 -0.0504 -0.1484
   47HTM    S2430354   9.240  -0.144   8.403 -0.2746 -0.6438 -0.0071
   48TAL   C23530355   9.560  -0.376   8.281 -0.2140 -0.7362 -0.8197
   48TAL   C23630356   9.638  -0.383   8.157  0.3381  0.1449  0.6802
   48TAL   C23730357   9.684  -0.257   8.082  0.3463 -0.0062  0.7965
   48TAL   C23830358   9.683  -0.122   8.158  0.1536  0.4902  0.2752
   48TAL   C23930359   9.767  -0.089   8.268  1.3560  0.0184  0.1853
   48TAL   C24030360   9.911  -0.139   8.244 -0.6657 -0.2163 -0.0510
    1HTM     C130361   6.272   0.026   8.994  0.2584 -0.1564  0.0805
    1HTM     C230362   6.248  -0.070   8.900  0.3667 -0.0341 -0.0727
    1HTM     C330363   6.129  -0.047   8.824  0.3586 -0.0293 -0.0587
    1HTM     C430364   6.061   0.066   8.859  0.2440 -0.1479  0.1056
    1HTM     S130365   6.145   0.154   8.993  0.1367 -0.2758  0.2564
    2TAL     C530366   6.091  -0.151   8.721  0.2966  1.1572  0.7952
    2TAL     C630367   6.202  -0.209   8.642 -0.4142 -0.0550  0.3241
    2TAL     C730368   6.153  -0.299   8.538 -0.0067  0.6831  0.4523
    2TAL     C830369   6.115  -0.230   8.401 -0.3096 -0.6944 -1.2771
    2TAL     C930370   6.083  -0.314   8.282 -0.7936 -1.2722 -0.2820
    2TAL    C1030371   6.121  -0.216   8.167  0.2222  0.1528 -1.1168
    3HTM    C1130372   5.938   0.129   8.820 -0.0887  0.0241  0.4714
    3HTM    C1230373   5.899   0.184   8.701 -0.3244 -0.8347  0.1349
    3HTM    C1330374   5.773   0.255   8.708 -0.5760 -1.2308 -0.2658
    3HTM    C1430375   5.717   0.253   8.832 -0.5322 -0.6740 -0.2350
    3HTM     S230376   5.818   0.162   8.951 -0.1668  0.4021  0.3070
    4TAL    C1530377   5.730   0.331   8.582  0.6669  0.1869  0.2737
    4TAL    C1630378   5.829   0.433   8.526 -1.0308  0.1138  0.0088
    4TAL    C1730379   5.868   0.561   8.594  0.5597 -0.2720  0.2616
    4TAL    C1830380   5.760   0.644   8.670 -0.5432  0.1471 -0.2603
    4TAL    C1930381   5.817   0.697   8.820  0.3261 -0.1832  0.9700
    4TAL    C2030382   5.936   0.788   8.833  0.7708  0.4662  0.6980
    5HTM    C2130383   5.604   0.312   8.900  0.1345  0.1873  0.7041
    5HTM    C2230384   5.531   0.272   9.007  0.4063  0.6320  1.0626
    5HTM    C2330385   5.419   0.359   9.037  0.4143  0.6933  0.9139
    5HTM    C2430386   5.408   0.465   8.952  0.1485  0.2952  0.4422
    5HTM     S330387   5.539   0.463   8.827 -0.1348 -0.1917  0.1466
    6TAL    C2530388   5.326   0.330   9.152  0.0316  0.1283  0.5564
    6TAL    C2630389   5.348   0.406   9.277 -0.6528 -1.1942 -0.4460
    6TAL    C2730390   5.480   0.377   9.339  0.8355 -0.3558  0.5949
    6TAL    C2830391   5.566   0.493   9.392 -0.4588 -0.4609  0.1363
    6TAL    C2930392   5.690   0.422   9.453 -0.2789  0.3619 -0.4403
    6TAL    C3030393   5.663   0.343   9.591 -0.7157  0.0642  0.2069
    7HTM    C3130394   5.301   0.571   8.944 -0.2048  0.4151 -0.0281
    7HTM    C3230395   5.196   0.564   8.857  0.0087  0.6817 -0.3135
    7HTM    C3330396   5.108   0.678   8.863  0.0752  0.7322 -0.2868
    7HTM    C3430397   5.146   0.772   8.955 -0.0874  0.5040  0.0188
    7HTM     S430398   5.297   0.724   9.041 -0.3393  0.2054  0.2987
    8TAL    C3530399   4.982   0.685   8.775  0.9035 -0.2280 -0.3126
    8TAL    C3630400   4.883   0.563   8.767  1.0215 -1.7645  0.5642
    8TAL    C3730401   4.841   0.502   8.901 -0.5297  0.0421  0.0416
    8TAL    C3830402   4.781   0.360   8.890  0.0325 -0.1644  0.0891
    8TAL    C3930403   4.653   0.332   8.804  1.1621 -0.6983 -1.0011
    8TAL    C4030404   4.523   0.379   8.858  0.4654  0.1106 -0.6221
    9HTM    C4130405   5.053   0.876   8.998  0.3563  0.1468 -0.4444
    9HTM    C4230406   4.950   0.864   9.087 -0.2425 -0.3517 -1.1806
    9HTM    C4330407   4.891   0.990   9.124 -0.9379 -0.6122 -1.3731
    9HTM    C4430408   4.949   1.098   9.064 -0.8693 -0.3124 -0.7835
    9HTM     S530409   5.084   1.048   8.955  0.0862  0.3273  0.0669
   10TAL    C4530410   4.764   1.006   9.195 -0.3803  0.4667 -0.2096
   10TAL    C4630411   4.641   0.946   9.117  0.2366 -0.9658 -0.3472
   10TAL    C4730412   4.513   0.920   9.192 -0.5671 -0.2160  0.9407
   10TAL    C4830413   4.521   0.802   9.296 -0.6524  0.3957 -0.4075
   10TAL    C4930414   4.403   0.772   9.385 -0.3819  1.0012  0.6487
   10TAL    C5030415   4.294   0.712   9.303  0.2002  0.7913 -0.0799
   11HTM    C5130416   4.946   1.240   9.096  0.7320  0.1230 -0.0079
   11HTM    C5230417   4.994   1.334   9.010  0.4956  0.3306  0.0813
   11HTM    C5330418   4.958   1.469   9.044 -0.0708  0.1898  0.0651
   11HTM    C5430419   4.883   1.478   9.157 -0.2662 -0.1252 -0.0362
   11HTM     S630420   4.850   1.316   9.229  0.2542 -0.2695 -0.1203
   12TAL    C5530421   4.988   1.578   8.955  0.0479 -1.3421  1.0069
   12TAL    C5630422   5.032   1.574   8.814 -0.2688 -0.2153  0.2788
   12TAL    C5730423   5.171   1.525   8.784  1.0541  0.2203 -0.6152
   12TAL    C5830424   5.181   1.515   8.630  0.1841 -0.2998 -0.7808
   12TAL    C5930425   5.299   1.448   8.577 -1.1761 -0.5667  0.2553
   12TAL    C6030426   5.432   1.503   8.616 -0.6229 -0.2963 -0.8605
   13HTM    C6130427   4.835   1.589   9.234  0.4917 -0.2090  0.1683
   13HTM    C6230428   4.886   1.716   9.242  0.6595 -0.2357 -0.4015
   13HTM    C6330429   4.803   1.807   9.318  0.5386  0.3430 -1.1950
   13HTM    C6430430   4.690   1.749   9.368  0.2790  0.8110 -1.2308
   13HTM     S730431   4.679   1.575   9.323  0.1659  0.5551 -0.2569
   14TAL    C6530432   4.857   1.950   9.341 -1.0036  0.3614 -0.7906
   14TAL    C6630433   4.982   1.973   9.431 -0.3096 -0.3812  0.3924
   14TAL    C6730434   5.121   1.972   9.360  0.7200  0.7373  0.4145
   14TAL    C6830435   5.231   2.045   9.411 -0.4224  0.4837 -0.5337
   14TAL    C6930436   5.304   1.961   9.518  0.3434  0.1632 -0.9846
   14TAL    C7030437   5.409   2.047   9.599  0.7914  0.9860  0.7205
   15HTM    C7130438   4.599   1.811   9.458 -0.0179  0.0312 -0.5988
   15HTM    C7230439   4.582   1.797   9.593 -0.3147 -0.4024 -0.6778
   15HTM    C7330440   4.475   1.877   9.646 -0.2922 -0.4083 -0.6239
   15HTM    C7430441   4.410   1.952   9.553  0.0219  0.0209 -0.5035
   15HTM     S830442   4.479   1.928   9.388  0.3159  0.4692 -0.4488
   16TAL    C7530443   4.429   1.836   9.786 -0.2138 -0.0840 -0.9708
   16TAL    C7630444   4.409   1.695   9.837 -0.9744  0.7702 -0.1776
   16TAL    C7730445   4.348   1.677   9.976  0.0560  0.9740  0.5359
   16TAL    C7830446   4.271   1.530  10.011 -0.0368 -0.8915  0.2912
   16TAL    C7930447   4.120   1.548  10.037  0.2962 -0.0136  0.7417
   16TAL    C8030448   4.069   1.632  10.148  0.5433  0.9044  0.5376
   17HTM    C8130449   4.311   2.051   9.566 -0.1493 -0.2395  0.0669
   17HTM    C8230450   4.204   2.088   9.490 -0.0820  0.1103  0.1366
   17HTM    C8330451   4.126   2.195   9.548  0.3241  0.3939  0.1690
   17HTM    C8430452   4.174   2.240   9.667  0.5666  0.2602  0.1234
   17HTM     S930453   4.322   2.150   9.717  0.2987 -0.2380  0.0360
   18TAL    C8530454   3.999   2.238   9.476 -0.9155 -0.5668 -0.3474
   18TAL    C8630455   3.965   2.210   9.328 -0.2680 -0.9589  0.8641
   18TAL    C8730456   3.835   2.268   9.271 -0.3133  0.2505 -1.0955
   18TAL    C8830457   3.792   2.414   9.306  0.9802 -0.8151  0.3144
   18TAL    C8930458   3.694   2.481   9.206  0.6703 -0.5787  0.1343
   18TAL    C9030459   3.663   2.619   9.267 -0.4104  0.5774  0.9261
   19HTM    C9130460   4.126   2.349   9.758 -0.2249  0.1559  0.2427
   19HTM    C9230461   4.002   2.403   9.776 -0.3455 -0.4045  1.2355
   19HTM    C9330462   4.004   2.529   9.845 -0.3828 -0.4815  1.3773
   19HTM    C9430463   4.128   2.572   9.880 -0.2907  0.0202  0.4933
   19HTM    S1030464   4.255   2.454   9.828 -0.1488  0.6335 -0.5960
   20TAL    C9530465   3.865   2.592   9.872  0.0797  0.4966  0.4019
   20TAL    C9630466   3.737   2.508   9.889  1.3807  0.3320  0.0190
   20TAL    C9730467   3.592   2.580   9.898 -0.2739  0.8950  0.2483
   20TAL    C9830468   3.482   2.475   9.896  0.9784 -0.5222  0.4819
   20TAL    C9930469   3.338   2.540   9.928  0.1660 -0.7948  0.1537
   20TAL   C10030470   3.238   2.435   9.925 -0.2685  0.1792  0.1776
   21HTM   C10130471   4.174   2.683   9.963 -0.2104  0.2633 -0.5766
   21HTM   C10230472   4.306   2.714   9.976 -0.1558  0.1740 -0.8864
   21HTM   C10330473   4.332   2.817  10.074  0.2024 -0.3282 -0.4384
   21HTM   C10430474   4.219   2.864  10.135  0.4211 -0.6217  0.2130
   21HTM    S1130475   4.071   2.782  10.073  0.1896 -0.2841  0.3119
   22TAL   C10530476   4.470   2.869  10.084 -0.9870  0.3387  0.1125
   22TAL   C10630477   4.564   2.784  10.175  0.1354 -0.8684  1.3995
   22TAL   C10730478   4.718   2.812  10.158  1.5314  0.5646 -0.5968
   22TAL   C10830479   4.802   2.762  10.275 -0.5614 -0.4666  0.0152
   22TAL   C10930480   4.775   2.622  10.337  0.1361 -0.4673 -0.9504
   22TAL   C11030481   4.849   2.598  10.457  0.2314 -0.6137 -1.1443
   23HTM   C11130482   4.200   2.962  10.251 -0.9201  0.5644 -0.3570
   23HTM   C11230483   4.080   2.991  10.309 -0.7836  0.4495 -0.0089
   23HTM   C11330484   4.091   3.055  10.437 -0.4785 -0.3167  0.3545
   23HTM   C11430485   4.220   3.074  10.478 -0.3823 -0.7861  0.2834
   23HTM    S1230486   4.338   3.013  10.356 -0.6718 -0.2930 -0.2521
   24TAL   C11530487   3.975   3.087  10.529  0.4318 -0.0569  0.7371
   24TAL   C11630488   3.855   2.996  10.517 -0.2567  0.2925 -0.7320
   24TAL   C11730489   3.750   3.016  10.623  0.1470 -0.1707  0.1188
   24TAL   C11830490   3.766   2.939  10.757 -0.7970  0.1700  0.4291
   24TAL   C11930491   3.692   2.983  10.867 -0.2328  0.0751 -0.6838
   24TAL   C12030492   3.716   2.908  10.993  0.8290  0.3661  0.2369
   25HTM   C12130493   4.277   3.135  10.598  0.1599  0.5293 -0.2869
   25HTM   C12230494   4.274   3.096  10.729  0.7459 -0.1537 -0.4683
   25HTM   C12330495   4.342   3.186  10.818  1.3071 -0.7146 -0.3107
   25HTM   C12430496   4.396   3.295  10.756  1.1492 -0.4591 -0.0092
   25HTM    S1330497   4.366   3.291  10.578  0.2723  0.5171  0.0999
   26TAL   C12530498   4.344   3.178  10.975  0.1835  0.7676  0.0551
   26TAL   C12630499   4.434   3.059  11.027  0.3191 -0.3906 -0.1933
   26TAL   C12730500   4.573   3.034  10.968  0.4650 -0.6370  0.0760
   26TAL   C12830501   4.692   3.119  11.005 -0.1249 -0.9631  0.7635
   26TAL   C12930502   4.817   3.095  10.919  0.9643  0.9867 -0.5654
   26TAL   C13030503   4.941   3.179  10.963  0.0491  0.1971  0.6044
   27HTM   C13130504   4.468   3.414  10.787  0.0313 -0.3908  0.1394
   27HTM   C13230505   4.550   3.480  10.701 -0.0281 -0.4070  0.0702
   27HTM   C13330506   4.626   3.586  10.762 -0.4196 -0.0104 -0.1248
   27HTM   C13430507   4.601   3.602  10.895 -0.6587  0.3083 -0.2044
   27HTM    S1430508   4.479   3.482  10.954 -0.4059  0.1307 -0.0378
   28TAL   C13530509   4.729   3.666  10.676  0.6471 -0.4578  1.0376
   28TAL   C13630510   4.672   3.801  10.619 -0.0175  0.8555 -0.7075
   28TAL   C13730511   4.648   3.775  10.468 -0.3620 -0.6340 -0.9971
   28TAL   C13830512   4.542   3.680  10.404  0.9396  0.7647 -0.0444
   28TAL   C13930513   4.385   3.700  10.407 -0.4041  0.1318  0.4562
   28TAL   C14030514   4.376   3.817  10.306 -0.3346 -0.3526  0.6656
   29HTM   C14130515   4.660   3.693  10.992 -0.1873 -0.6147 -0.2376
   29HTM   C14230516   4.646   3.677  11.127  0.4649 -1.7969 -0.2782
   29HTM   C14330517   4.739   3.755  11.204  0.5211 -2.0962 -0.0402
   29HTM   C14430518   4.824   3.830  11.128 -0.0885 -1.1422  0.1819
   29HTM    S1530519   4.793   3.807  10.952 -0.7859  0.2189  0.1070
   30TAL   C14530520   4.741   3.745  11.357 -0.4228  0.2858  0.5117
   30TAL   C14630521   4.754   3.615  11.429 -0.3637 -0.2029 -1.4385
   30TAL   C14730522   4.849   3.504  11.380 -0.9880 -0.6344 -0.5663
   30TAL   C14830523   4.817   3.362  11.420  1.0668  0.1954  0.0615
   30TAL   C14930524   4.716   3.303  11.316 -0.5836  0.1788  0.5884
   30TAL   C15030525   4.644   3.193  11.386 -0.0314  0.6345  0.7239
   31HTM   C15130526   4.921   3.933  11.162 -0.2456  0.3744  0.2175
   31HTM   C15230527   4.944   4.049  11.094 -0.3487  0.6011  0.5621
   31HTM   C15330528   5.033   4.139  11.161 -0.2446  0.3769  0.7256
   31HTM   C15430529   5.078   4.092  11.281 -0.0621 -0.0204  0.5057
   31HTM    S1630530   5.011   3.929  11.318 -0.0071 -0.1437  0.0717
   32TAL   C15530531   5.078   4.261  11.086  0.4428 -0.0169 -0.2692
   32TAL   C15630532   5.226   4.266  11.040 -1.0152 -0.2413 -0.0236
   32TAL   C15730533   5.229   4.373  10.929  1.3052  0.5535  0.3764
   32TAL   C15830534   5.346   4.392  10.838 -0.6189  0.1394  0.3180
   32TAL   C15930535   5.357   4.528  10.757 -0.3430 -0.0847 -0.5012
   32TAL   C16030536   5.490   4.552  10.689  0.1855 -0.8734 -0.3518
   33HTM   C16130537   5.174   4.146  11.370  0.0642  0.0221 -0.6353
   33HTM   C16230538   5.182   4.275  11.412 -0.1196  0.1869 -1.0948
   33HTM   C16330539   5.276   4.295  11.519 -0.4679  0.6264 -0.8670
   33HTM   C16430540   5.339   4.181  11.559 -0.5497  0.7967 -0.2338
   33HTM    S1730541   5.284   4.038  11.464 -0.1903  0.4122  0.1268
   34TAL   C16530542   5.300   4.434  11.583 -0.6871  0.5667 -1.0644
   34TAL   C16630543   5.347   4.538  11.482  0.0023 -0.3605  0.3580
   34TAL   C16730544   5.497   4.555  11.447  0.6274  0.0832 -0.1649
   34TAL   C16830545   5.526   4.685  11.378  0.0520  0.3463 -0.5528
   34TAL   C16930546   5.489   4.685  11.220  0.0187 -0.0138  1.4470
   34TAL   C17030547   5.353   4.652  11.146 -0.5585 -0.1627  0.7210
   35HTM   C17130548   5.446   4.161  11.658 -0.4239  0.3201 -0.2848
   35HTM   C17230549   5.508   4.040  11.662 -1.1268 -0.0336  0.4627
   35HTM   C17330550   5.638   4.043  11.725 -1.1708 -0.4390  0.5842
   35HTM   C17430551   5.675   4.167  11.768 -0.5016 -0.3945 -0.0707
   35HTM    S1830552   5.547   4.290  11.733  0.2419  0.1673 -0.8979
   36TAL   C17530553   5.735   3.921  11.724 -0.3092  0.1799 -1.0023
   36TAL   C17630554   5.761   3.853  11.600  0.4055  0.0881  0.1725
   36TAL   C17730555   5.862   3.745  11.609 -0.5174  0.5741  0.6929
   36TAL   C17830556   6.000   3.778  11.660 -0.2178 -0.3955  0.4117
   36TAL   C17930557   6.108   3.671  11.678  0.6477  0.5481  0.3233
   36TAL   C18030558   6.130   3.609  11.540 -0.5317  0.0203 -0.0498
   37HTM   C18130559   5.784   4.215  11.847  0.1119  0.5626 -0.5917
   37HTM   C18230560   5.776   4.280  11.967 -0.0232  1.8015 -1.2335
   37HTM   C18330561   5.904   4.315  12.023 -0.0545  1.8129 -1.1693
   37HTM   C18430562   6.009   4.278  11.945  0.0571  0.5827 -0.4787
   37HTM    S1930563   5.955   4.195  11.795  0.2114 -0.6955  0.1492
   38TAL   C18530564   5.931   4.376  12.162 -1.0097  0.5305  0.9281
   38TAL   C18630565   5.897   4.518  12.182  1.0194 -0.6981 -0.0887
   38TAL   C18730566   5.751   4.571  12.160  0.0410  0.4572 -0.2410
   38TAL   C18830567   5.654   4.533  12.280 -0.5908  0.2869 -0.4048
   38TAL   C18930568   5.512   4.517  12.242  0.4344 -1.1138 -0.6849
   38TAL   C19030569   5.419   4.577  12.351 -0.9844 -0.0334  0.6817
   39HTM   C19130570   6.153   4.301  11.952  0.1901 -0.2141 -0.0271
   39HTM   C19230571   6.217   4.416  11.988  0.3421 -0.3003 -0.0211
   39HTM   C19330572   6.354   4.422  11.945  0.3644 -0.5010  0.0218
   39HTM   C19430573   6.395   4.311  11.876  0.2295 -0.5678  0.0487
   39HTM    S2030574   6.262   4.190  11.860  0.0623 -0.3810  0.0215
   40TAL   C19530575   6.433   4.551  11.964 -1.2362  0.1841 -0.3114
   40TAL   C19630576   6.571   4.543  12.047  0.1814  0.7431 -0.3596
   40TAL   C19730577   6.528   4.552  12.200 -1.0789 -0.9480 -0.7100
   40TAL   C19830578   6.442   4.669  12.245 -0.1714  0.3924 -0.0449
   40TAL   C19930579   6.469   4.685  12.397  0.9624 -0.2397  0.4351
   40TAL   C20030580   6.610   4.717  12.453 -0.7159 -0.8134 -0.4715
   41HTM   C20130581   6.518   4.285  11.809 -0.2701  0.2992 -0.0852
   41HTM   C20230582   6.600   4.181  11.841 -0.0864  0.6596  0.6608
   41HTM   C20330583   6.701   4.155  11.741  0.3465  0.5015  1.1305
   41HTM   C20430584   6.695   4.238  11.633  0.4931  0.0206  0.7426
   41HTM    S2130585   6.561   4.357  11.650  0.0928 -0.2722 -0.2537
   42TAL   C20530586   6.770   4.018  11.752 -0.6427 -0.1714  0.1354
   42TAL   C20630587   6.689   3.892  11.747  0.5182 -0.0028 -0.3090
   42TAL   C20730588   6.696   3.796  11.639  0.6847 -0.5914  0.2606
   42TAL   C20830589   6.603   3.684  11.685 -0.3375 -0.2513 -0.0675
   42TAL   C20930590   6.597   3.584  11.574  0.2181  0.4413 -0.1736
   42TAL   C21030591   6.552   3.435  11.601  0.5343 -0.3585 -1.0449
   43HTM   C21130592   6.772   4.257  11.506  0.0529 -0.5697 -0.9416
   43HTM   C21230593   6.711   4.283  11.387  0.3836 -0.9433 -1.2000
   43HTM   C21330594   6.803   4.303  11.278  0.7124 -0.6889 -0.8811
   43HTM   C21430595   6.934   4.292  11.314  0.6323 -0.1215 -0.3796
   43HTM    S2230596   6.952   4.255  11.490  0.1318  0.1376 -0.2703
   44TAL   C21530597   6.740   4.339  11.145 -0.3595 -0.0387  1.2551
   44TAL   C21630598   6.702   4.486  11.128 -0.1371  0.0658  0.4750
   44TAL   C21730599   6.551   4.508  11.106 -0.2377 -0.3819 -0.7654
   44TAL   C21830600   6.510   4.660  11.085  0.2518  0.4852  0.1965
   44TAL   C21930601   6.359   4.672  11.067  0.1004 -0.0211  0.0478
   44TAL   C22030602   6.312   4.656  10.922 -0.2588 -0.9388 -0.2753
   45HTM   C22130603   7.049   4.323  11.249 -0.1100 -0.0976  0.0844
   45HTM   C22230604   7.136   4.424  11.276 -0.4526  0.2656 -0.1473
   45HTM   C22330605   7.248   4.430  11.185 -0.5307  0.5074 -0.2285
   45HTM   C22430606   7.246   4.334  11.089 -0.2477  0.3286 -0.0587
   45HTM    S2330607   7.102   4.227  11.105  0.1423 -0.1626  0.2192
   46TAL   C22530608   7.359   4.547  11.190  0.7323  0.9551 -0.7247
   46TAL   C22630609   7.433   4.545  11.330 -0.2189  0.2887  0.0279
   46TAL   C22730610   7.395   4.686  11.393 -0.0881 -0.0504  1.2266
   46TAL   C22830611   7.480   4.691  11.506 -0.6045 -0.7959 -0.5524
   46TAL   C22930612   7.498   4.831  11.556 -0.5531  0.1227 -0.5667
   46TAL   C23030613   7.555   4.842  11.700 -0.4599 -0.2639 -0.4468
   47HTM   C23130614   7.358   4.295  10.998 -0.3033  0.0167 -0.5481
   47HTM   C23230615   7.398   4.337  10.875  0.0565  0.0287 -0.4276
   47HTM   C23330616   7.530   4.291  10.838  0.2831  0.2614  0.0660
   47HTM   C23430617   7.589   4.213  10.933  0.0959  0.4267  0.3217
   47HTM    S2430618   7.483   4.192  11.078 -0.3848  0.3002 -0.0437
   48TAL   C23530619   7.585   4.328  10.705 -0.3346  0.1011 -0.2804
   48TAL   C23630620   7.733   4.367  10.691  0.5783 -0.0227  0.9330
   48TAL   C23730621   7.798   4.341  10.556 -0.9152  0.6093 -0.7542
   48TAL   C23830622   7.813   4.184  10.534 -0.0207 -0.2688 -0.1376
   48TAL   C23930623   7.912   4.152  10.427 -0.8000  0.1795 -0.6970
   48TAL   C24030624   7.904   4.017  10.366 -0.1626  0.1832 -0.1032
    1HTM     C130625   6.654   0.100   7.647  0.8640 -0.2194  0.5822
    1HTM     C230626   6.518   0.100   7.639  0.8087 -0.0993  1.3287
    1HTM     C330627   6.463  -0.026   7.596  0.4901  0.0558  1.2772
    1HTM     C430628   6.557  -0.122   7.573  0.3026  0.0540  0.4914
    1HTM     S130629   6.724  -0.060   7.602  0.5154 -0.1452 -0.2502
    2TAL     C530630   6.312  -0.067   7.592 -1.0022  0.2170  1.1522
    2TAL     C630631   6.218   0.025   7.659  0.1935 -0.4449 -1.4818
    2TAL     C730632   6.083  -0.039   7.692 -0.7947  0.7245 -0.2149
    2TAL     C830633   5.972   0.045   7.750  0.2833  0.1085 -0.5904
    2TAL     C930634   5.904   0.148   7.647  0.8228 -0.3055 -0.0626
    2TAL    C1030635   5.875   0.090   7.513 -0.0816 -0.3474  1.0016
    3HTM    C1130636   6.550  -0.261   7.518  0.3045  0.2373 -0.2993
    3HTM    C1230637   6.618  -0.360   7.582  0.2218  0.3743  0.0019
    3HTM    C1330638   6.591  -0.492   7.532  0.1485  0.2470  0.3721
    3HTM    C1430639   6.501  -0.494   7.429  0.1752  0.0124  0.3531
    3HTM     S230640   6.444  -0.328   7.388  0.2959 -0.0659 -0.1378
    4TAL    C1530641   6.657  -0.619   7.591 -0.9927 -0.8360  0.7135
    4TAL    C1630642   6.797  -0.612   7.663  0.4467  1.0293  0.0807
    4TAL    C1730643   6.839  -0.756   7.704 -0.5581 -1.4392  0.4376
    4TAL    C1830644   6.844  -0.778   7.852 -0.1701 -0.5564 -0.0019
    4TAL    C1930645   6.709  -0.790   7.920 -0.2260 -0.0108 -0.1199
    4TAL    C2030646   6.690  -0.823   8.073 -0.4449 -0.0573  0.0574
    5HTM    C2130647   6.447  -0.611   7.353 -0.0405 -0.1485  0.4739
    5HTM    C2230648   6.328  -0.598   7.287  0.1030 -0.0508  0.2327
    5HTM    C2330649   6.280  -0.721   7.229  0.2884  0.0589 -0.1640
    5HTM    C2430650   6.362  -0.828   7.252  0.2862  0.0446 -0.2255
    5HTM     S330651   6.508  -0.781   7.348  0.0482 -0.1097  0.2164
    6TAL    C2530652   6.147  -0.716   7.160  0.9643 -0.4645  0.6332
    6TAL    C2630653   6.112  -0.594   7.062  0.2436 -0.4932 -0.5363
    6TAL    C2730654   6.051  -0.459   7.110  0.3937 -0.0347 -0.3777
    6TAL    C2830655   6.071  -0.339   7.023 -1.0993 -0.4042  0.1089
    6TAL    C2930656   5.992  -0.214   7.064 -0.0728 -0.0268 -0.2339
    6TAL    C3030657   5.923  -0.159   6.942  0.4314  0.3478  0.0220
    7HTM    C3130658   6.356  -0.975   7.236  0.2130  0.2237 -0.3044
    7HTM    C3230659   6.251  -1.051   7.197 -0.0654  0.4075  0.0775
    7HTM    C3330660   6.280  -1.192   7.194 -0.4513  0.3173  0.3754
    7HTM    C3430661   6.407  -1.223   7.230 -0.4670  0.0651  0.2209
    7HTM     S430662   6.502  -1.075   7.271  0.0082 -0.0797 -0.3174
    8TAL    C3530663   6.173  -1.296   7.159 -0.0752 -0.1349  0.8269
    8TAL    C3630664   6.055  -1.273   7.050 -0.4587 -0.0468  0.1625
    8TAL    C3730665   5.958  -1.388   7.030  0.9351  0.7377 -0.5813
    8TAL    C3830666   5.986  -1.537   6.979  0.1902  0.0163  0.0575
    8TAL    C3930667   6.053  -1.628   7.081  0.8461  0.4144 -0.4474
    8TAL    C4030668   6.099  -1.770   7.065  0.0498  0.1948 -0.6812
    9HTM    C4130669   6.478  -1.352   7.245  0.3596 -0.4124  0.0676
    9HTM    C4230670   6.428  -1.476   7.270  0.6095 -0.4690  0.2955
    9HTM    C4330671   6.526  -1.581   7.261  0.7849 -0.3076  0.3167
    9HTM    C4430672   6.651  -1.537   7.229  0.6686 -0.1275  0.1048
    9HTM     S530673   6.654  -1.358   7.208  0.3260 -0.1486 -0.1396
   10TAL    C4530674   6.499  -1.730   7.297 -0.0641 -0.1297  0.2283
   10TAL    C4630675   6.364  -1.767   7.360 -1.0899  0.9509 -1.2224
   10TAL    C4730676   6.350  -1.732   7.505 -0.8045 -1.5063  0.5462
   10TAL    C4830677   6.237  -1.795   7.575  0.1464  0.3532 -0.1112
   10TAL    C4930678   6.234  -1.809   7.729 -0.1543 -0.9068 -0.1871
   10TAL    C5030679   6.110  -1.867   7.785  0.5562 -0.5496 -0.1673
   11HTM    C5130680   6.776  -1.614   7.210  0.5587 -0.2715 -0.5386
   11HTM    C5230681   6.901  -1.561   7.211  0.6224 -0.4101 -0.9187
   11HTM    C5330682   7.004  -1.655   7.175  0.4202 -0.5503 -1.1334
   11HTM    C5430683   6.957  -1.780   7.147  0.2025 -0.5183 -0.9173
   11HTM     S630684   6.777  -1.788   7.163  0.2360 -0.3070 -0.4218
   12TAL    C5530685   7.148  -1.598   7.172 -0.0571 -0.4209 -1.0421
   12TAL    C5630686   7.238  -1.634   7.056 -0.1565 -0.0567  0.1466
   12TAL    C5730687   7.216  -1.555   6.929 -0.1398 -0.1184 -0.4159
   12TAL    C5830688   7.312  -1.567   6.803 -0.1322  1.2082 -0.7737
   12TAL    C5930689   7.459  -1.545   6.830  0.0155 -1.0555 -0.4638
   12TAL    C6030690   7.550  -1.597   6.713 -0.6106 -0.1352  0.3878
   13HTM    C6130691   7.035  -1.899   7.127 -0.0862  0.2451  0.0278
   13HTM    C6230692   7.083  -1.952   7.010 -0.1619  0.3506 -0.0510
   13HTM    C6330693   7.119  -2.091   7.020 -0.1483  0.3433 -0.1984
   13HTM    C6430694   7.099  -2.144   7.144 -0.0626  0.2327 -0.2320
   13HTM     S730695   7.033  -2.022   7.259  0.0085  0.1279 -0.0789
   14TAL    C6530696   7.161  -2.172   6.894 -0.3000 -0.2178  1.1133
   14TAL    C6630697   7.061  -2.252   6.817 -0.3002 -0.0933 -0.4248
   14TAL    C6730698   7.120  -2.325   6.683  0.4052 -0.0770  0.2169
   14TAL    C6830699   7.028  -2.431   6.618  1.0077  0.5160 -0.0255
   14TAL    C6930700   7.099  -2.518   6.510 -0.0247 -0.2584 -0.0162
   14TAL    C7030701   7.027  -2.557   6.379  0.2875 -0.2462  0.1834
   15HTM    C7130702   7.128  -2.281   7.182 -0.0875  0.1555  0.1896
   15HTM    C7230703   7.051  -2.390   7.156 -0.5057  0.3654  0.5181
   15HTM    C7330704   7.115  -2.515   7.186 -0.7534  0.1906  0.3334
   15HTM    C7430705   7.241  -2.502   7.236 -0.5244 -0.1525 -0.1361
   15HTM     S830706   7.289  -2.328   7.248  0.0266 -0.2826 -0.3830
   16TAL    C7530707   7.047  -2.656   7.145  0.0633 -0.0290 -0.1474
   16TAL    C7630708   7.077  -2.711   7.006 -0.7757 -0.4828  0.1084
   16TAL    C7730709   6.968  -2.673   6.903 -0.6428 -0.8199 -0.2713
   16TAL    C7830710   6.981  -2.719   6.761  0.1631  0.1763  0.6321
   16TAL    C7930711   6.983  -2.865   6.753 -0.7764  0.7995  0.3328
   16TAL    C8030712   6.989  -2.899   6.599 -0.1539 -0.6999  0.0316
   17HTM    C8130713   7.340  -2.593   7.284 -0.3009  0.6586  0.2881
   17HTM    C8230714   7.452  -2.623   7.213 -0.4706  0.7905 -0.0378
   17HTM    C8330715   7.526  -2.735   7.266 -0.2728  0.7722 -0.3474
   17HTM    C8430716   7.471  -2.789   7.378  0.0478  0.6264 -0.2574
   17HTM     S930717   7.320  -2.703   7.425  0.1253  0.4997  0.2289
   18TAL    C8530718   7.645  -2.796   7.187 -1.3664 -1.4307  0.4557
   18TAL    C8630719   7.792  -2.736   7.224 -0.1637 -0.9190 -0.2071
   18TAL    C8730720   7.801  -2.609   7.304  1.4167 -1.1451  0.6156
   18TAL    C8830721   7.938  -2.551   7.299 -0.5455 -0.4835  0.9257
   18TAL    C8930722   7.969  -2.411   7.367 -0.1121  0.4292 -0.2379
   18TAL    C9030723   8.000  -2.285   7.290 -0.5348  0.9983 -0.2591
   19HTM    C9130724   7.515  -2.907   7.458  0.3073 -0.2820 -0.1339
   19HTM    C9230725   7.606  -3.003   7.425  0.3827 -0.3227  0.1829
   19HTM    C9330726   7.641  -3.090   7.534  0.0138 -0.2959  0.3258
   19HTM    C9430727   7.577  -3.060   7.651 -0.3429 -0.2348  0.1180
   19HTM    S1030728   7.467  -2.919   7.632 -0.2399 -0.2059 -0.2775
   20TAL    C9530729   7.756  -3.200   7.528  0.6369 -0.3967  0.0119
   20TAL    C9630730   7.794  -3.267   7.391  0.2059 -0.6857  0.3856
   20TAL    C9730731   7.683  -3.322   7.300 -0.5202 -0.5958 -0.1782
   20TAL    C9830732   7.576  -3.413   7.371 -0.1121  0.3511 -0.6402
   20TAL    C9930733   7.445  -3.439   7.293 -0.0758 -0.0256  0.5773
   20TAL   C10030734   7.458  -3.532   7.165 -0.3007  0.8029 -0.8711
   21HTM   C10130735   7.572  -3.124   7.780 -0.3358 -0.3990  0.0695
   21HTM   C10230736   7.675  -3.175   7.854 -0.1131  0.2249  0.2029
   21HTM   C10330737   7.633  -3.238   7.976  0.1677  0.4553  0.4213
   21HTM   C10430738   7.498  -3.235   7.996  0.1591  0.0068  0.4545
   21HTM    S1130739   7.413  -3.152   7.860 -0.2069 -0.7468  0.2105
   22TAL   C10530740   7.730  -3.328   8.066  1.3430  0.3755  0.9153
   22TAL   C10630741   7.836  -3.415   7.986  0.4744 -0.9330  0.3540
   22TAL   C10730742   7.903  -3.528   8.070 -1.1231  0.2588  0.6303
   22TAL   C10830743   7.824  -3.649   8.057  0.1531  1.4747  1.2047
   22TAL   C10930744   7.885  -3.785   8.114  1.0113  0.0862  0.3416
   22TAL   C11030745   8.001  -3.847   8.028 -0.3495  1.7979 -0.5754
   23HTM   C11130746   7.413  -3.283   8.104 -0.3975 -0.3351 -0.3542
   23HTM   C11230747   7.305  -3.207   8.139 -0.7635 -0.6074 -0.8588
   23HTM   C11330748   7.213  -3.275   8.227 -0.6565 -0.6126 -0.7498
   23HTM   C11430749   7.251  -3.402   8.258 -0.2084 -0.3441 -0.1623
   23HTM    S1230750   7.407  -3.446   8.179  0.1152 -0.0617  0.3028
   24TAL   C11530751   7.093  -3.211   8.274  0.3361  0.7666 -0.3788
   24TAL   C11630752   6.968  -3.249   8.200  0.0465  0.3241 -0.5565
   24TAL   C11730753   6.841  -3.210   8.263 -0.0941 -0.1823  0.1648
   24TAL   C11830754   6.802  -3.297   8.391 -0.6622 -0.3572  0.6280
   24TAL   C11930755   6.663  -3.248   8.433  0.3028  0.1547  0.2170
   24TAL   C12030756   6.632  -3.109   8.449  0.4106 -0.6405 -1.5317
   25HTM   C12130757   7.188  -3.507   8.329  0.1924  0.0578  0.0638
   25HTM   C12230758   7.234  -3.560   8.446 -0.7402  0.2722  0.5476
   25HTM   C12330759   7.179  -3.690   8.476 -1.1311  0.4129  0.4508
   25HTM   C12430760   7.091  -3.735   8.382 -0.4966  0.3060 -0.1068
   25HTM    S1330761   7.071  -3.617   8.247  0.6526  0.0170 -0.5562
   26TAL   C12530762   7.231  -3.763   8.595 -0.9313  0.2684 -0.1462
   26TAL   C12630763   7.380  -3.796   8.585 -0.2657 -0.1810  0.1814
   26TAL   C12730764   7.435  -3.895   8.486  0.1592  0.6978 -1.7419
   26TAL   C12830765   7.453  -3.837   8.351  0.4481  0.1026 -0.7074
   26TAL   C12930766   7.493  -3.947   8.254 -0.5700  1.1128  0.3977
   26TAL   C13030767   7.520  -3.881   8.118 -0.3056  0.6087 -0.6123
   27HTM   C13130768   7.018  -3.866   8.377  0.4371 -0.5958  0.0668
   27HTM   C13230769   6.974  -3.924   8.261  0.6725 -0.6111 -0.0145
   27HTM   C13330770   6.904  -4.047   8.281  0.3490 -0.4442 -0.1156
   27HTM   C13430771   6.893  -4.084   8.412 -0.1329 -0.3015 -0.1115
   27HTM    S1430772   6.972  -3.965   8.521 -0.2164 -0.3675  0.0222
   28TAL   C13530773   6.852  -4.135   8.170 -0.5407  0.0618 -0.0742
   28TAL   C13630774   6.823  -4.077   8.030 -0.8923  0.1476 -0.0226
   28TAL   C13730775   6.753  -4.188   7.956 -0.2454 -0.2701  0.1248
   28TAL   C13830776   6.752  -4.147   7.803  0.5750  0.9531 -1.0542
   28TAL   C13930777   6.669  -4.033   7.775  0.3817  0.0957  0.3166
   28TAL   C14030778   6.588  -4.017   7.650 -0.3957 -0.4917 -0.2526
   29HTM   C14130779   6.815  -4.193   8.460  0.3708  0.3895 -0.2196
   29HTM   C14230780   6.845  -4.296   8.546  0.3600  0.3477 -0.2661
   29HTM   C14330781   6.731  -4.373   8.586  0.3470  0.3637 -0.2718
   29HTM   C14430782   6.613  -4.330   8.532  0.3477  0.4178 -0.2301
   29HTM    S1530783   6.638  -4.187   8.425  0.3651  0.4529 -0.1797
   30TAL   C14530784   6.759  -4.505   8.671 -0.1412 -0.4192 -0.7815
   30TAL   C14630785   6.706  -4.493   8.816  0.3153  0.1683 -1.1402
   30TAL   C14730786   6.716  -4.368   8.894  0.6637  0.0020  0.3092
   30TAL   C14830787   6.855  -4.343   8.953 -0.3547  0.0338  0.0619
   30TAL   C14930788   6.881  -4.191   8.950  1.0060  0.1420 -0.0408
   30TAL   C15030789   6.991  -4.136   9.018 -0.6091 -0.1531 -0.3108
   31HTM   C15130790   6.469  -4.367   8.540  0.1477 -0.2571  0.0886
   31HTM   C15230791   6.396  -4.399   8.651  0.0590  0.3796  0.2229
   31HTM   C15330792   6.259  -4.432   8.622 -0.1246  0.9706  0.4015
   31HTM   C15430793   6.227  -4.425   8.490 -0.1757  0.7848  0.4036
   31HTM    S1630794   6.369  -4.375   8.390  0.0052 -0.1586  0.1777
   32TAL   C15530795   6.164  -4.501   8.722  0.8967  0.1678  0.9753
   32TAL   C15630796   6.116  -4.649   8.716 -0.1175  0.7068 -0.6961
   32TAL   C15730797   6.223  -4.742   8.663 -0.4576 -0.3090 -0.3469
   32TAL   C15830798   6.175  -4.884   8.676  1.3007 -0.5959  0.2424
   32TAL   C15930799   6.262  -5.002   8.617  1.4997 -1.1199  0.4577
   32TAL   C16030800   6.183  -5.135   8.606  0.6964 -0.2922  0.3068
   33HTM   C16130801   6.109  -4.440   8.419  0.1701  0.2204  0.6219
   33HTM   C16230802   6.088  -4.518   8.309  0.4964  0.3027  0.5009
   33HTM   C16330803   5.962  -4.494   8.244  0.7447  0.4467  0.0632
   33HTM   C16430804   5.886  -4.398   8.304  0.6077  0.4739 -0.1497
   33HTM    S1730805   5.969  -4.330   8.449  0.1511  0.3189  0.1890
   34TAL   C16530806   5.923  -4.599   8.144  1.3025 -0.1274  0.0554
   34TAL   C16630807   5.783  -4.637   8.086 -0.9292 -0.7848 -0.0854
   34TAL   C16730808   5.734  -4.556   7.964  0.1896 -0.5851  0.3092
   34TAL   C16830809   5.821  -4.533   7.839 -0.2457 -0.2664 -0.1944
   34TAL   C16930810   5.773  -4.479   7.709  0.0181  0.3305 -0.1340
   34TAL   C17030811   5.718  -4.337   7.712 -0.8696 -0.1735  0.4530
   35HTM   C17130812   5.747  -4.343   8.276 -0.4976  0.3041  0.3351
   35HTM   C17230813   5.621  -4.372   8.320 -0.6573  0.2339 -0.1547
   35HTM   C17330814   5.518  -4.303   8.247 -0.4303  0.0132 -0.7012
   35HTM   C17430815   5.564  -4.222   8.148 -0.0978 -0.0851 -0.6282
   35HTM    S1830816   5.744  -4.226   8.139 -0.0449  0.0952  0.1428
   36TAL   C17530817   5.387  -4.339   8.313  0.0958  0.2423 -0.0430
   36TAL   C17630818   5.279  -4.397   8.223 -0.0225 -0.0187  0.2764
   36TAL   C17730819   5.321  -4.491   8.117  0.7761 -0.1651  0.3610
   36TAL   C17830820   5.311  -4.635   8.166 -0.0124  0.3471 -0.1684
   36TAL   C17930821   5.371  -4.731   8.060 -0.7746  0.2265 -0.1085
   36TAL   C18030822   5.327  -4.752   7.917  0.2662  0.6347  0.2646
   37HTM   C18130823   5.490  -4.139   8.056 -0.4443 -0.8688 -0.8158
   37HTM   C18230824   5.369  -4.082   8.085 -0.9550 -1.4427 -1.7202
   37HTM   C18330825   5.340  -3.965   8.008 -0.5751 -1.1435 -1.4179
   37HTM   C18430826   5.439  -3.931   7.919  0.2255 -0.3413 -0.2834
   37HTM    S1930827   5.577  -4.047   7.927  0.5641  0.1015  0.4976
   38TAL   C18530828   5.206  -3.884   8.042  0.0733 -0.4005  0.6355
   38TAL   C18630829   5.175  -3.843   8.193  0.3128  0.1188  0.1728
   38TAL   C18730830   5.056  -3.920   8.252  0.4525 -0.1386  1.1436
   38TAL   C18830831   4.995  -3.849   8.380 -0.0483 -0.2740  0.2818
   38TAL   C18930832   4.912  -3.930   8.471 -0.9883 -0.2577 -0.2199
   38TAL   C19030833   4.870  -3.846   8.585  0.1489  0.1282 -0.5809
   39HTM   C19130834   5.430  -3.834   7.805  0.0927  0.2362 -0.5078
   39HTM   C19230835   5.455  -3.855   7.672  0.1647  0.5561 -0.5454
   39HTM   C19330836   5.421  -3.743   7.588  0.2350  0.7697 -0.2911
   39HTM   C19430837   5.369  -3.637   7.657  0.2165  0.6127 -0.0599
   39HTM    S2030838   5.360  -3.671   7.834  0.1083  0.1795 -0.1457
   40TAL   C19530839   5.446  -3.755   7.442  0.7412  0.1050 -0.0608
   40TAL   C19630840   5.581  -3.798   7.386  0.6102  0.5315  0.0405
   40TAL   C19730841   5.694  -3.715   7.438 -0.0767 -0.6460 -0.5223
   40TAL   C19830842   5.824  -3.771   7.377 -0.2565 -0.8606 -0.1407
   40TAL   C19930843   5.952  -3.681   7.359  0.6673 -0.5068 -0.6985
   40TAL   C20030844   6.028  -3.663   7.491 -1.3635 -0.0032  1.2785
   41HTM   C20130845   5.299  -3.520   7.600  0.0685  0.0096 -0.0068
   41HTM   C20230846   5.285  -3.471   7.474  0.5773  0.6378  0.1725
   41HTM   C20330847   5.201  -3.354   7.466  0.5825  0.6588  0.4112
   41HTM   C20430848   5.151  -3.314   7.586  0.0778  0.0466  0.4137
   41HTM    S2130849   5.206  -3.422   7.720 -0.4474 -0.6090  0.1127
   42TAL   C20530850   5.138  -3.290   7.332 -0.0559 -0.1334 -0.2241
   42TAL   C20630851   5.141  -3.376   7.204 -0.0923  0.2794  0.0161
   42TAL   C20730852   5.084  -3.300   7.087  0.3848 -0.4890  0.0291
   42TAL   C20830853   5.136  -3.350   6.955 -0.3108 -0.1640 -0.0454
   42TAL   C20930854   5.041  -3.305   6.840 -0.5485  0.4723 -0.1396
   42TAL   C21030855   5.055  -3.411   6.730 -0.5992  0.2920 -0.4528
   43HTM   C21130856   5.060  -3.213   7.626 -0.0556  0.4238 -0.0040
   43HTM   C21230857   4.962  -3.233   7.719  0.0435  0.5031  0.1184
   43HTM   C21330858   4.878  -3.118   7.739  0.1493  0.5648  0.2091
   43HTM   C21430859   4.911  -3.011   7.662  0.1307  0.5326  0.1561
   43HTM    S2230860   5.053  -3.047   7.557 -0.0230  0.4209 -0.0138
   44TAL   C21530861   4.778  -3.123   7.863 -0.3243 -0.0354  0.2923
   44TAL   C21630862   4.645  -3.191   7.847  0.2507 -0.5976 -0.4414
   44TAL   C21730863   4.577  -3.167   7.976 -0.9014 -0.3600  0.1217
   44TAL   C21830864   4.428  -3.193   7.998 -0.0205 -0.2249  0.7443
   44TAL   C21930865   4.406  -3.338   8.040  0.2600  0.2230  0.8222
   44TAL   C22030866   4.339  -3.351   8.176 -0.3860  0.0068  0.1302
   45HTM   C22130867   4.857  -2.884   7.663 -0.0467 -0.2099  0.7492
   45HTM   C22230868   4.920  -2.764   7.654  0.3395 -0.3985  0.8889
   45HTM   C22330869   4.830  -2.651   7.652  0.6704 -0.1361  0.4939
   45HTM   C22430870   4.699  -2.686   7.660  0.5364  0.2526  0.0530
   45HTM    S2330871   4.678  -2.864   7.670 -0.0224  0.3179  0.1028
   46TAL   C22530872   4.882  -2.503   7.659  0.3783 -0.3736 -0.0236
   46TAL   C22630873   4.977  -2.441   7.548 -0.1226  0.4017  0.0783
   46TAL   C22730874   4.911  -2.430   7.404  1.3475 -0.3818 -0.0709
   46TAL   C22830875   4.998  -2.378   7.290  0.6906 -0.9555  0.3593
   46TAL   C22930876   5.144  -2.422   7.287 -0.2244 -0.4784  0.0210
   46TAL   C23030877   5.236  -2.307   7.251 -0.2226  0.2705 -0.3384
   47HTM   C23130878   4.578  -2.615   7.658  0.3076  0.0723  0.1837
   47HTM   C23230879   4.468  -2.646   7.732  0.4201  0.1884  0.3988
   47HTM   C23330880   4.352  -2.567   7.701  0.3289  0.0324  0.3409
   47HTM   C23430881   4.373  -2.475   7.602  0.1467 -0.2026  0.0814
   47HTM    S2430882   4.542  -2.482   7.541  0.0759 -0.2454 -0.1112
   48TAL   C23530883   4.226  -2.568   7.798 -0.6105  0.3749  0.1667
   48TAL   C23630884   4.106  -2.480   7.773 -0.1046  0.9309  0.2365
   48TAL   C23730885   3.992  -2.487   7.868  0.5449 -0.6787  1.5818
   48TAL   C23830886   4.020  -2.471   8.002 -0.8556 -0.6124 -1.5847
   48TAL   C23930887   3.918  -2.406   8.105 -0.6746  0.2387  0.1072
   48TAL   C24030888   3.949  -2.399   8.259 -0.2669 -0.1104  0.4246
    1HTM     C130889   1.257   1.712   5.632  0.3130 -0.4741  0.5576
    1HTM     C230890   1.251   1.817   5.546  0.2668 -0.9750 -0.0709
    1HTM     C330891   1.278   1.944   5.608  0.2095 -0.5880 -0.8132
    1HTM     C430892   1.306   1.935   5.741  0.2120  0.2079 -0.7508
    1HTM     S130893   1.299   1.765   5.799  0.2875  0.5330  0.2583
    2TAL     C530894   1.269   2.069   5.517 -0.2384 -0.2011  0.7636
    2TAL     C630895   1.278   2.067   5.360  0.4151 -0.0916 -0.9677
    2TAL     C730896   1.309   2.194   5.276  0.0381  0.4286 -0.2096
    2TAL     C830897   1.207   2.309   5.279 -0.6081 -0.2715  0.5069
    2TAL     C930898   1.263   2.447   5.337  1.7370  0.2074  0.2423
    2TAL    C1030899   1.150   2.544   5.353 -0.1379  0.6712 -0.1517
    3HTM    C1130900   1.298   2.052   5.832  0.5960 -0.4546  0.9010
    3HTM    C1230901   1.232   2.050   5.951  1.2250 -0.2087  1.2605
    3HTM    C1330902   1.232   2.178   6.019  0.9983  0.1162  0.6633
    3HTM    C1430903   1.298   2.276   5.951  0.1964  0.1179 -0.1518
    3HTM     S230904   1.365   2.215   5.795 -0.3388 -0.2937 -0.2290
    4TAL    C1530905   1.206   2.173   6.161  0.3779 -0.2086 -0.1606
    4TAL    C1630906   1.063   2.195   6.211 -0.1882 -0.6859 -0.5625
    4TAL    C1730907   0.995   2.329   6.185  1.1145  0.1101  0.8136
    4TAL    C1830908   0.847   2.327   6.227 -0.5814 -0.1433 -0.2371
    4TAL    C1930909   0.779   2.456   6.207 -0.2228 -0.3483 -0.0274
    4TAL    C2030910   0.855   2.586   6.256  0.1235  0.9120 -0.3251
    5HTM    C2130911   1.289   2.421   5.983  0.8832  0.4190 -0.3204
    5HTM    C2230912   1.205   2.508   5.921  1.4171  0.6078 -0.8008
    5HTM    C2330913   1.202   2.639   5.980  1.3471  0.6039 -0.7955
    5HTM    C2430914   1.284   2.652   6.088  0.7598  0.4120 -0.3107
    5HTM     S330915   1.373   2.499   6.123  0.2456  0.2200  0.1803
    6TAL    C2530916   1.093   2.745   5.940 -0.3507  0.5167 -0.1758
    6TAL    C2630917   1.068   2.771   5.789  0.1324  0.5674  0.4316
    6TAL    C2730918   1.084   2.920   5.754  0.4616 -0.1778 -1.8498
    6TAL    C2830919   1.083   2.968   5.610 -0.7580 -0.7154  0.1625
    6TAL    C2930920   1.148   2.889   5.495  0.7912  0.1738  0.5372
    6TAL    C3030921   1.157   2.967   5.361 -0.6692 -0.2157 -0.7989
    7HTM    C3130922   1.292   2.754   6.180 -0.6477 -0.3070 -0.2728
    7HTM    C3230923   1.325   2.884   6.154 -1.0284 -0.2092 -0.2925
    7HTM    C3330924   1.329   2.967   6.272 -0.2750 -0.4218 -0.1571
    7HTM    C3430925   1.299   2.901   6.387  0.6801 -0.6816 -0.0340
    7HTM     S430926   1.262   2.727   6.356  0.7023 -0.6780 -0.0802
    8TAL    C3530927   1.360   3.116   6.258  0.4968  0.4939  0.6983
    8TAL    C3630928   1.349   3.200   6.117  1.1111 -0.1576 -0.7089
    8TAL    C3730929   1.391   3.157   5.981 -0.7625  0.1572 -0.1305
    8TAL    C3830930   1.539   3.116   5.959 -0.5338 -0.3495 -1.1539
    8TAL    C3930931   1.563   3.070   5.821  0.3513 -0.1175  0.8822
    8TAL    C4030932   1.706   3.056   5.768 -0.7260  1.4894 -0.2460
    9HTM    C4130933   1.259   2.949   6.516 -0.2897 -0.2770  0.3327
    9HTM    C4230934   1.169   2.895   6.602 -0.1706 -0.5037  0.3167
    9HTM    C4330935   1.130   2.983   6.709 -0.3183 -0.6434  0.3800
    9HTM    C4430936   1.191   3.105   6.704 -0.5499 -0.5231  0.4440
    9HTM     S530937   1.303   3.118   6.563 -0.5999 -0.2219  0.4294
   10TAL    C4530938   1.031   2.930   6.801  0.9099  0.6475 -0.7626
   10TAL    C4630939   1.042   2.795   6.868  0.2666  1.3202 -0.3962
   10TAL    C4730940   1.043   2.795   7.025  0.0044  0.5169 -0.6488
   10TAL    C4830941   0.972   2.669   7.077 -0.3689  0.0111 -1.5328
   10TAL    C4930942   0.933   2.692   7.226  0.3430  0.3330 -0.9198
   10TAL    C5030943   0.989   2.593   7.329 -0.3581  0.0736 -0.5179
   11HTM    C5130944   1.178   3.234   6.779  0.1268  0.6557  0.0298
   11HTM    C5230945   1.156   3.351   6.713  0.8451  1.1315  0.6013
   11HTM    C5330946   1.099   3.454   6.796  1.0629  0.9337  1.0035
   11HTM    C5430947   1.078   3.416   6.925  0.5106  0.3068  0.7388
   11HTM     S630948   1.129   3.245   6.952 -0.3340 -0.0852 -0.0452
   12TAL    C5530949   1.075   3.589   6.726 -0.7746 -0.2670 -0.4213
   12TAL    C5630950   1.206   3.663   6.728  0.5816 -0.1567 -0.5434
   12TAL    C5730951   1.199   3.805   6.662 -0.2679  0.0193 -0.6067
   12TAL    C5830952   1.159   3.918   6.755 -0.3273 -0.2313 -0.5191
   12TAL    C5930953   1.269   3.940   6.875 -0.0816 -0.5311  1.3590
   12TAL    C6030954   1.216   4.054   6.968  1.1117  0.5007 -0.3025
   13HTM    C6130955   1.020   3.483   7.038  0.1993  0.1757  0.1217
   13HTM    C6230956   1.009   3.439   7.166  1.3939  0.3131  0.2996
   13HTM    C6330957   0.945   3.534   7.254  1.6923  0.1828  0.6586
   13HTM    C6430958   0.909   3.650   7.193  0.7251 -0.0540  0.7547
   13HTM     S730959   0.952   3.649   7.018 -0.6481 -0.1313  0.3963
   14TAL    C6530960   0.913   3.491   7.397  0.8095 -0.7161 -0.6805
   14TAL    C6630961   1.029   3.529   7.485 -0.0245  0.4818 -0.1974
   14TAL    C6730962   1.014   3.508   7.636 -0.4289  0.5080 -0.4386
   14TAL    C6830963   1.116   3.414   7.705  0.3110 -0.1250  0.2353
   14TAL    C6930964   1.070   3.274   7.725 -0.4015  1.7763  0.2678
   14TAL    C7030965   1.188   3.176   7.704  0.0886 -0.1018  0.2571
   15HTM    C7130966   0.840   3.765   7.248  0.2134  0.3620  0.1926
   15HTM    C7230967   0.838   3.892   7.198  1.0562  0.7600  1.1083
   15HTM    C7330968   0.755   3.982   7.273  1.2360  0.6390  1.4586
   15HTM    C7430969   0.693   3.925   7.380  0.5304  0.1489  0.8101
   15HTM     S830970   0.736   3.750   7.395 -0.4234 -0.2006 -0.3020
   16TAL    C7530971   0.725   4.126   7.226 -1.3223  0.2490 -0.2526
   16TAL    C7630972   0.857   4.205   7.196  0.3480 -0.1275 -0.2270
   16TAL    C7730973   0.848   4.344   7.125  0.0735 -0.2672 -0.2017
   16TAL    C7830974   0.962   4.371   7.032 -0.4237  0.2004  0.5186
   16TAL    C7930975   0.971   4.521   7.017 -0.3847 -0.2490 -0.5158
   16TAL    C8030976   1.081   4.555   6.921  0.1139  0.0293 -0.0341
   17HTM    C8130977   0.601   3.983   7.473 -0.6599  0.0234  0.4816
   17HTM    C8230978   0.502   3.920   7.542 -0.6556  0.3693  0.8154
   17HTM    C8330979   0.444   3.999   7.647 -0.2579  0.6968  0.7918
   17HTM    C8430980   0.499   4.123   7.659  0.0411  0.6008  0.4399
   17HTM     S930981   0.629   4.150   7.537 -0.1581  0.0854  0.1085
   18TAL    C8530982   0.320   3.939   7.698 -0.2461 -0.1913 -1.7103
   18TAL    C8630983   0.301   3.951   7.857  0.4678 -0.4540 -0.3154
   18TAL    C8730984   0.152   3.960   7.897 -0.6809 -0.2321 -0.5787
   18TAL    C8830985   0.119   3.937   8.047  0.4390 -0.4703  0.1296
   18TAL    C8930986  -0.024   3.937   8.095 -0.1545 -0.2577  1.3309
   18TAL    C9030987  -0.114   3.810   8.045  0.0143 -0.5852 -0.0270
   19HTM    C9130988   0.474   4.234   7.745 -0.4100  0.0680  0.0179
   19HTM    C9230989   0.566   4.294   7.825 -0.5288  0.0552  0.1655
   19HTM    C9330990   0.509   4.381   7.925 -0.6798  0.0001  0.1273
   19HTM    C9430991   0.373   4.387   7.921 -0.6762 -0.0288 -0.0493
   19HTM    S1030992   0.306   4.283   7.789 -0.4803  0.0112 -0.1823
   20TAL    C9530993   0.607   4.461   8.021  0.5384  0.6525  0.1297
   20TAL    C9630994   0.683   4.380   8.127 -0.7836  0.3867 -0.3804
   20TAL    C9730995   0.814   4.447   8.166  1.0215 -0.0844  0.3742
   20TAL    C9830996   0.920   4.368   8.236  0.5826  0.2882 -0.8812
   20TAL    C9930997   1.031   4.449   8.269 -0.6807 -0.3935  0.1127
   20TAL   C10030998   1.145   4.358   8.306 -0.3088  0.3635  0.0110
   21HTM   C10130999   0.282   4.450   8.017 -0.3366 -0.4498  0.1843
   21HTM   C10231000   0.147   4.449   8.002 -0.3743 -0.1420  0.4714
   21HTM   C10331001   0.076   4.521   8.104  0.0346  0.5163  0.3016
   21HTM   C10431002   0.158   4.577   8.198  0.3840  0.7106 -0.1143
   21HTM    S1131003   0.332   4.543   8.163  0.2225  0.0721 -0.3259
   22TAL   C10531004  -0.069   4.547   8.094 -0.7970 -0.3536 -0.7692
   22TAL   C10631005  -0.173   4.456   8.030 -0.8183  1.0673  0.2708
   22TAL   C10731006  -0.148   4.302   8.027 -1.1003 -0.0336 -0.8875
   22TAL   C10831007  -0.265   4.236   7.955  1.2801  0.4405  0.9994
   22TAL   C10931008  -0.251   4.224   7.801 -0.1360  0.2999  0.7560
   22TAL   C11031009  -0.160   4.106   7.762  0.6245 -0.9303 -0.7933
   23HTM   C11131010   0.133   4.637   8.327  0.8442  0.6253 -0.0063
   23HTM   C11231011   0.012   4.694   8.356  1.0087  1.1958 -0.4032
   23HTM   C11331012  -0.015   4.702   8.497  0.5012  1.1567 -0.4971
   23HTM   C11431013   0.084   4.650   8.575 -0.0504  0.5563 -0.1720
   23HTM    S1231014   0.221   4.588   8.476  0.0292 -0.0107  0.2819
   24TAL   C11531015  -0.145   4.761   8.539  0.2645 -0.8514 -0.3839
   24TAL   C11631016  -0.262   4.685   8.600  0.4613  0.6305 -0.0021
   24TAL   C11731017  -0.270   4.540   8.534  1.5607 -0.6437  0.1389
   24TAL   C11831018  -0.376   4.456   8.613 -0.2662 -2.0113  0.0923
   24TAL   C11931019  -0.527   4.498   8.634  0.0859 -0.3263  0.1061
   24TAL   C12031020  -0.623   4.562   8.540  0.7024  0.0267 -0.4254
   25HTM   C12131021   0.106   4.641   8.721  0.1999  0.3055  0.1528
   25HTM   C12231022   0.070   4.727   8.821  0.1803  0.2242  0.2162
   25HTM   C12331023   0.118   4.688   8.951  0.0510  0.0521  0.2127
   25HTM   C12431024   0.190   4.573   8.950 -0.0280  0.0023  0.1470
   25HTM    S1331025   0.204   4.504   8.784  0.0555  0.1702  0.0841
   26TAL   C12531026   0.098   4.778   9.072 -0.1211 -0.0781 -0.0096
   26TAL   C12631027  -0.046   4.796   9.106 -0.3232 -0.9633 -0.0401
   26TAL   C12731028  -0.093   4.888   9.212  0.3980 -0.7265 -0.4373
   26TAL   C12831029  -0.244   4.918   9.213  0.5991 -0.1631  0.0293
   26TAL   C12931030  -0.278   5.060   9.187 -0.9821 -0.2797  0.6411
   26TAL   C13031031  -0.424   5.084   9.197  0.1593  0.2370  0.1753
   27HTM   C13131032   0.245   4.489   9.054 -0.4869 -0.7404  0.2005
   27HTM   C13231033   0.302   4.366   9.045 -0.4749 -0.7427  0.2997
   27HTM   C13331034   0.357   4.318   9.169 -0.1075 -0.4624  0.2477
   27HTM   C13431035   0.342   4.405   9.273  0.1607 -0.2467  0.1084
   27HTM    S1431036   0.257   4.555   9.222 -0.0316 -0.3816  0.0321
   28TAL   C13531037   0.425   4.170   9.155 -0.0488 -0.2336 -0.0893
   28TAL   C13631038   0.363   4.077   9.252  0.1016 -0.4691 -0.9415
   28TAL   C13731039   0.261   3.968   9.203  0.2573 -0.5013  0.9660
   28TAL   C13831040   0.236   3.868   9.330 -0.1764 -0.1439  0.0848
   28TAL   C13931041   0.120   3.772   9.320 -1.0540 -0.0011  0.5486
   28TAL   C14031042   0.158   3.628   9.285 -0.4937 -0.4984  0.2427
   29HTM   C14131043   0.381   4.400   9.416  0.2409  0.0524  0.0914
   29HTM   C14231044   0.303   4.465   9.507  0.0354 -0.0721  0.0062
   29HTM   C14331045   0.341   4.440   9.644 -0.2770 -0.2662  0.0603
   29HTM   C14431046   0.448   4.356   9.656 -0.3097 -0.2894  0.1870
   29HTM    S1531047   0.509   4.302   9.495  0.0543 -0.0664  0.2476
   30TAL   C14531048   0.266   4.514   9.753 -0.1668 -0.5108 -0.2061
   30TAL   C14631049   0.164   4.433   9.831  0.6339  0.4161  0.8104
   30TAL   C14731050   0.097   4.508   9.942  0.1885 -1.0664 -0.4552
   30TAL   C14831051  -0.031   4.434  10.009 -1.0720 -0.4474  0.3790
   30TAL   C14931052  -0.135   4.527  10.030  0.2691 -0.1862 -0.2388
   30TAL   C15031053  -0.248   4.462  10.101  0.4430  0.3471 -0.3394
   31HTM   C15131054   0.498   4.285   9.780  0.3518  0.1237  0.0076
   31HTM   C15231055   0.475   4.154   9.809  0.4257  0.1652  0.2560
   31HTM   C15331056   0.551   4.105   9.921  0.7061  0.3275  0.1371
   31HTM   C15431057   0.633   4.199   9.977  0.8460  0.4097 -0.2022
   31HTM    S1631058   0.620   4.357   9.892  0.6327  0.2878 -0.3992
   32TAL   C15531059   0.522   3.969   9.975  0.0276  0.4767  1.6603
   32TAL   C15631060   0.569   3.845   9.885  0.6441 -0.0814 -0.8223
   32TAL   C15731061   0.481   3.821   9.757  0.2157  0.6466 -0.4546
   32TAL   C15831062   0.500   3.682   9.690  1.0884 -0.0772  0.4798
   32TAL   C15931063   0.442   3.554   9.754  0.7353  0.9459  0.7565
   32TAL   C16031064   0.536   3.505   9.862  0.5706  0.2072  0.8641
   33HTM   C16131065   0.712   4.199  10.093 -0.5861  0.1130  0.2253
   33HTM   C16231066   0.844   4.228  10.110 -0.4375 -0.2036 -0.3286
   33HTM   C16331067   0.891   4.211  10.246  0.0671 -0.2137 -0.4980
   33HTM   C16431068   0.794   4.169  10.332  0.3032  0.0952 -0.0733
   33HTM    S1731069   0.636   4.147  10.248 -0.0965  0.4256  0.5786
   34TAL   C16531070   1.035   4.258  10.272  0.4462 -0.1065  0.3665
   34TAL   C16631071   1.146   4.203  10.188 -0.8323  0.1891 -0.0186
   34TAL   C16731072   1.290   4.252  10.212 -0.3058  0.8020 -0.5179
   34TAL   C16831073   1.360   4.156  10.316  0.4891  0.3772 -0.1355
   34TAL   C16931074   1.380   4.006  10.275  0.0101  0.3042 -0.7212
   34TAL   C17031075   1.362   3.907  10.391  0.8693 -0.6487  0.0853
   35HTM   C17131076   0.813   4.097  10.458  0.4667 -0.2639 -0.7677
   35HTM   C17231077   0.919   4.100  10.543  0.4825 -0.4672 -0.7795
   35HTM   C17331078   0.913   4.000  10.647  0.1716 -0.2940 -0.6265
   35HTM   C17431079   0.803   3.920  10.639 -0.0813  0.0412 -0.4981
   35HTM    S1831080   0.697   3.966  10.501  0.0546  0.1654 -0.5609
   36TAL   C17531081   1.007   4.014  10.768 -0.9078 -0.4582  0.1241
   36TAL   C17631082   0.979   4.099  10.895  0.4166 -0.0412 -0.4248
   36TAL   C17731083   1.008   4.246  10.878 -0.1337  0.7795  0.6410
   36TAL   C17831084   0.928   4.358  10.949  0.1196  0.1616 -0.2525
   36TAL   C17931085   0.985   4.498  10.924 -0.3626 -1.4444  0.2907
   36TAL   C18031086   0.905   4.603  10.985 -0.6339  0.0701 -0.0251
   37HTM   C18131087   0.779   3.797  10.708 -0.2017  0.4492  0.2838
   37HTM   C18231088   0.707   3.691  10.661 -0.5719  0.7113  0.2545
   37HTM   C18331089   0.706   3.577  10.749 -0.7154  0.5813  0.0859
   37HTM   C18431090   0.777   3.596  10.864 -0.4547  0.2203 -0.0133
   37HTM    S1931091   0.852   3.760  10.870 -0.0041  0.0146  0.0992
   38TAL   C18531092   0.618   3.464  10.715  0.1426  0.1457  0.9320
   38TAL   C18631093   0.489   3.475  10.786 -0.0199 -1.1114  0.5167
   38TAL   C18731094   0.406   3.353  10.737  0.4422 -0.2157  0.5930
   38TAL   C18831095   0.277   3.311  10.828 -0.9417 -0.4170  0.4408
   38TAL   C18931096   0.139   3.371  10.796 -0.7164  0.1669  0.0399
   38TAL   C19031097   0.096   3.303  10.666  0.4199  0.6319 -0.2732
   39HTM   C19131098   0.780   3.501  10.976 -0.2338  0.5189  0.1394
   39HTM   C19231099   0.855   3.388  10.992 -0.5351  0.2351 -0.4128
   39HTM   C19331100   0.854   3.336  11.126 -0.5617 -0.3454 -0.6320
   39HTM   C19431101   0.778   3.410  11.213 -0.2807 -0.5043 -0.2471
   39HTM    S2031102   0.702   3.551  11.131  0.0419  0.0715  0.4275
   40TAL   C19531103   0.938   3.203  11.157  1.0799 -0.1031 -0.9153
   40TAL   C19631104   0.992   3.129  11.028  0.2381 -0.6940 -0.3403
   40TAL   C19731105   1.078   3.009  11.030 -0.1791 -0.0605  0.0759
   40TAL   C19831106   1.023   2.889  11.113 -0.5256 -0.3962  0.3453
   40TAL   C19931107   1.142   2.783  11.120 -0.0383 -0.5797  0.1481
   40TAL   C20031108   1.105   2.660  11.198  0.2247 -0.4305 -0.4790
   41HTM   C20131109   0.754   3.397  11.359  0.1454 -0.0618 -0.1851
   41HTM   C20231110   0.775   3.480  11.465  0.4011  0.0265 -0.3037
   41HTM   C20331111   0.749   3.420  11.593  0.1130  0.3198 -0.2213
   41HTM   C20431112   0.707   3.290  11.585 -0.3625  0.4553 -0.0397
   41HTM    S2131113   0.699   3.234  11.413 -0.4840  0.2210  0.0418
   42TAL   C20531114   0.749   3.505  11.714  0.8852  0.0245 -0.7477
   42TAL   C20631115   0.871   3.588  11.749  0.4609  1.0391 -0.3973
   42TAL   C20731116   0.885   3.614  11.902  0.8744  0.6069  0.1141
   42TAL   C20831117   1.026   3.656  11.940  1.0900 -0.4457 -0.4082
   42TAL   C20931118   1.027   3.707  12.081  0.4958  0.1188 -0.3631
   42TAL   C21031119   1.142   3.800  12.083  0.1838 -1.1718 -0.0865
   43HTM   C21131120   0.661   3.188  11.684 -0.6651 -0.4197  0.0013
   43HTM   C21231121   0.580   3.083  11.654 -0.8411 -0.5203  0.7845
   43HTM   C21331122   0.552   2.997  11.766 -0.6839  0.1477  1.3489
   43HTM   C21431123   0.612   3.036  11.882 -0.3881  0.7577  0.9961
   43HTM    S2231124   0.710   3.186  11.858 -0.2844  0.5340 -0.0848
   44TAL   C21531125   0.474   2.864  11.714 -0.2262 -1.5634  0.0762
   44TAL   C21631126   0.338   2.869  11.666 -0.0477  0.7693 -0.4229
   44TAL   C21731127   0.256   2.761  11.737  0.9481  0.0919  0.1172
   44TAL   C21831128   0.122   2.712  11.670  0.4483  0.6824  0.1823
   44TAL   C21931129   0.135   2.645  11.526 -0.0986 -0.5533  0.4886
   44TAL   C22031130   0.030   2.539  11.506  0.1510 -0.6629 -0.5397
   45HTM   C22131131   0.582   2.977  12.015  0.3869  0.0445  0.2955
   45HTM   C22231132   0.566   2.848  12.056  0.2129  0.1007  0.4081
   45HTM   C22331133   0.554   2.833  12.199 -0.0670  0.2654  0.4026
   45HTM   C22431134   0.561   2.952  12.267 -0.1063  0.3346  0.2858
   45HTM    S2331135   0.582   3.091  12.154  0.2096  0.1962  0.1729
   46TAL   C22531136   0.543   2.701  12.268  0.1112  0.4981  0.5312
   46TAL   C22631137   0.442   2.596  12.213  0.3210 -0.6532 -0.8656
   46TAL   C22731138   0.473   2.454  12.282  0.0592 -1.3182  0.1702
   46TAL   C22831139   0.387   2.348  12.214 -1.0952  0.1085 -0.6999
   46TAL   C22931140   0.425   2.300  12.081 -0.2066  0.2348  0.8328
   46TAL   C23031141   0.377   2.181  11.994 -0.1574 -0.5118  0.3347
   47HTM   C23131142   0.554   2.983  12.409  0.8282  0.5064  0.4831
   47HTM   C23231143   0.636   2.954  12.514  0.7915  1.0099  0.6549
   47HTM   C23331144   0.592   3.011  12.639  0.1386  0.6952  0.5781
   47HTM   C23431145   0.477   3.084  12.629 -0.3226 -0.0481  0.3477
   47HTM    S2431146   0.415   3.085  12.460  0.0348 -0.4111  0.2088
   48TAL   C23531147   0.675   2.998  12.761 -0.3049 -0.4662  0.2482
   48TAL   C23631148   0.767   2.868  12.762 -0.6838 -0.1824 -0.7246
   48TAL   C23731149   0.890   2.890  12.857  0.1394  0.8555 -0.1530
   48TAL   C23831150   0.943   2.764  12.931  0.9465 -0.8049  0.0803
   48TAL   C23931151   1.067   2.790  13.008 -0.2997  0.5379 -0.1560
   48TAL   C24031152   1.117   2.668  13.093  0.3576  0.1620  0.0325
    1HTM     C131153   7.788   3.004   0.991 -0.8454 -0.3411 -0.0158
    1HTM     C231154   7.662   2.993   0.939 -0.8171 -0.8323  0.0125
    1HTM     C331155   7.633   2.862   0.886 -0.2822 -0.9204 -0.0775
    1HTM     C431156   7.736   2.774   0.897  0.0975 -0.4964 -0.1745
    1HTM     S131157   7.880   2.849   0.976 -0.1935  0.0513 -0.1595
    2TAL     C531158   7.489   2.845   0.837  0.0338  0.5371 -0.0802
    2TAL     C631159   7.452   2.903   0.700 -0.6614 -0.2616 -0.0963
    2TAL     C731160   7.307   2.872   0.672  0.2263  0.9052  0.9764
    2TAL     C831161   7.225   2.982   0.598 -0.1638  0.3297  0.1898
    2TAL     C931162   7.083   2.946   0.560  1.2753 -0.5178  0.1059
    2TAL    C1031163   6.993   3.073   0.538 -0.0987 -0.2515 -0.3797
    3HTM    C1131164   7.750   2.637   0.857 -0.2713  0.4925 -0.1288
    3HTM    C1231165   7.865   2.575   0.817 -0.0464  1.2895 -0.7922
    3HTM    C1331166   7.848   2.435   0.789  0.6762  1.2633 -1.1389
    3HTM    C1431167   7.720   2.390   0.806  1.0022  0.4462 -0.7398
    3HTM     S231168   7.611   2.523   0.861  0.4171 -0.3596  0.1114
    4TAL    C1531169   7.952   2.343   0.730 -1.2090  0.0952  1.5411
    4TAL    C1631170   8.091   2.340   0.792 -1.6782  0.3706 -0.1155
    4TAL    C1731171   8.211   2.268   0.708  0.7988 -0.0575 -0.0324
    4TAL    C1831172   8.179   2.122   0.658 -0.1405 -0.0870 -0.7123
    4TAL    C1931173   8.099   2.029   0.749 -0.7539 -0.4911  0.1866
    4TAL    C2031174   8.161   1.930   0.853  0.3228  1.1809  0.9656
    5HTM    C2131175   7.660   2.253   0.816 -0.6026 -0.1551  0.2474
    5HTM    C2231176   7.616   2.192   0.930 -0.0877 -0.8779  0.0779
    5HTM    C2331177   7.589   2.051   0.915  0.7454 -0.9911 -0.4335
    5HTM    C2431178   7.614   2.005   0.789  0.8657 -0.3545 -0.6539
    5HTM     S331179   7.672   2.136   0.680 -0.0714  0.4433 -0.2294
    6TAL    C2531180   7.545   1.979   1.037 -0.1158 -0.4778  0.6077
    6TAL    C2631181   7.623   2.004   1.175  0.3951 -0.1584  0.2848
    6TAL    C2731182   7.575   1.913   1.282 -0.3995 -0.1103 -1.1017
    6TAL    C2831183   7.568   1.988   1.405  0.2160  0.1300 -0.2098
    6TAL    C2931184   7.527   1.907   1.533 -0.1886  0.0468  0.1046
    6TAL    C3031185   7.404   1.819   1.535  0.7411 -0.4220  1.3292
    7HTM    C3131186   7.594   1.872   0.729 -0.1723 -0.2964 -0.1099
    7HTM    C3231187   7.548   1.758   0.787 -0.4722 -0.3223 -0.3952
    7HTM    C3331188   7.548   1.644   0.699 -0.5391 -0.1596 -0.6074
    7HTM    C3431189   7.594   1.671   0.573 -0.2901 -0.0095 -0.4840
    7HTM     S431190   7.642   1.844   0.557  0.0505 -0.0624 -0.0870
    8TAL    C3531191   7.487   1.521   0.757  0.2160  0.7842  0.9870
    8TAL    C3631192   7.582   1.401   0.771  0.0155 -0.3574 -0.1707
    8TAL    C3731193   7.644   1.380   0.918  0.5350 -0.3353  1.1069
    8TAL    C3831194   7.717   1.511   0.947 -0.7556  0.5529  0.6221
    8TAL    C3931195   7.775   1.495   1.086  0.5177 -0.8633  0.1195
    8TAL    C4031196   7.858   1.612   1.140  0.2190 -0.6695 -0.8729
    9HTM    C4131197   7.600   1.596   0.442  0.4443  0.3092 -0.3172
    9HTM    C4231198   7.689   1.500   0.404  0.2548  0.1852 -0.4459
    9HTM    C4331199   7.689   1.473   0.263 -0.3473 -0.1711 -0.3860
    9HTM    C4431200   7.600   1.550   0.193 -0.6168 -0.3188 -0.2115
    9HTM     S531201   7.510   1.662   0.301 -0.1272 -0.0170 -0.1086
   10TAL    C4531202   7.806   1.390   0.214  0.7319 -0.1946  0.3609
   10TAL    C4631203   7.947   1.444   0.203 -0.1323 -0.5884  0.2406
   10TAL    C4731204   8.028   1.359   0.107  0.6802  0.2605 -0.0275
   10TAL    C4831205   8.089   1.242   0.188  0.0479  0.4951 -0.8841
   10TAL    C4931206   8.235   1.192   0.141  0.9743  0.1056  0.9410
   10TAL    C5031207   8.225   1.061   0.062  1.0345 -0.2610  0.3091
   11HTM    C5131208   7.585   1.555   0.040 -0.3554 -0.5002  0.0728
   11HTM    C5231209   7.664   1.509  -0.061 -1.1691 -1.3555 -0.1988
   11HTM    C5331210   7.619   1.548  -0.192 -1.3592 -1.1141 -0.0641
   11HTM    C5431211   7.506   1.623  -0.191 -0.6901 -0.0746  0.3105
   11HTM     S631212   7.447   1.652  -0.023  0.2388  0.6859  0.5238
   12TAL    C5531213   7.695   1.491  -0.308 -0.1904 -0.6086  0.4161
   12TAL    C5631214   7.841   1.480  -0.300 -0.7422 -1.0827 -0.3401
   12TAL    C5731215   7.913   1.558  -0.419  0.0512  0.6638 -0.3020
   12TAL    C5831216   7.906   1.710  -0.378  1.0551 -0.9876  0.6795
   12TAL    C5931217   8.028   1.804  -0.405  0.1803 -0.3467 -0.9271
   12TAL    C6031218   7.997   1.944  -0.375  0.4438  1.0950 -0.9169
   13HTM    C6131219   7.441   1.698  -0.293  0.0646 -0.0178 -0.1029
   13HTM    C6231220   7.481   1.724  -0.420  0.4427  0.7902  0.1736
   13HTM    C6331221   7.380   1.786  -0.502  0.5776  1.0088  0.1698
   13HTM    C6431222   7.262   1.807  -0.436  0.3025  0.3675 -0.1091
   13HTM     S731223   7.270   1.749  -0.266 -0.1520 -0.5696 -0.3912
   14TAL    C6531224   7.389   1.791  -0.654 -0.3480 -0.5971 -0.9326
   14TAL    C6631225   7.473   1.923  -0.687  0.7727 -0.6808 -0.2118
   14TAL    C6731226   7.396   2.048  -0.640  0.2383 -0.6699  0.6092
   14TAL    C6831227   7.477   2.170  -0.590  0.2754 -0.4073 -0.7819
   14TAL    C6931228   7.585   2.206  -0.693  0.1971 -0.5317 -0.8203
   14TAL    C7031229   7.578   2.312  -0.806  0.6498  0.0588 -0.0854
   15HTM    C7131230   7.130   1.853  -0.462 -0.0835 -0.7179  0.1169
   15HTM    C7231231   7.046   1.811  -0.561 -0.2810 -1.1527  0.4640
   15HTM    C7331232   6.916   1.873  -0.557 -0.1336 -0.8213  0.2089
   15HTM    C7431233   6.901   1.962  -0.455  0.1762 -0.1337 -0.3328
   15HTM     S831234   7.051   1.975  -0.355  0.3070  0.1507 -0.5646
   16TAL    C7531235   6.810   1.819  -0.660 -0.1054 -0.7726 -0.6735
   16TAL    C7631236   6.775   1.661  -0.647  0.1932  0.1867  1.5883
   16TAL    C7731237   6.677   1.606  -0.759  0.6957 -1.6117 -0.0011
   16TAL    C7831238   6.631   1.473  -0.720 -0.6213 -0.0436 -0.0947
   16TAL    C7931239   6.548   1.389  -0.823 -0.0106 -0.6820 -0.3067
   16TAL    C8031240   6.536   1.245  -0.771 -0.1864 -0.3077  1.5721
   17HTM    C8131241   6.788   2.028  -0.408  0.4440  0.2694 -0.0594
   17HTM    C8231242   6.736   2.030  -0.282  1.0509  0.4508  0.1924
   17HTM    C8331243   6.614   2.104  -0.271  0.8490  0.0682  0.5748
   17HTM    C8431244   6.571   2.159  -0.388  0.0882 -0.4051  0.6153
   17HTM     S931245   6.684   2.120  -0.524 -0.4364 -0.4042  0.1698
   18TAL    C8531246   6.530   2.110  -0.144  0.3400 -0.7504  0.3696
   18TAL    C8631247   6.423   1.993  -0.123 -0.4212 -0.1806  0.6183
   18TAL    C8731248   6.322   1.999  -0.009  0.6612  0.1555  0.6216
   18TAL    C8831249   6.218   1.887  -0.026  0.4432 -0.1608  0.1105
   18TAL    C8931250   6.119   1.890   0.089  1.0186 -0.5413 -0.5705
   18TAL    C9031251   6.005   1.810   0.044 -0.2370 -0.1749  0.2189
   19HTM    C9131252   6.463   2.243  -0.427  0.3947  0.0348  0.4719
   19HTM    C9231253   6.447   2.378  -0.428  0.6852  0.0721  0.6061
   19HTM    C9331254   6.317   2.421  -0.473  0.9028  0.4068  0.2818
   19HTM    C9431255   6.234   2.318  -0.506  0.7782  0.6247 -0.0989
   19HTM    S1031256   6.314   2.158  -0.482  0.3731  0.4225 -0.0782
   20TAL    C9531257   6.289   2.571  -0.477 -1.0861  0.5940  1.0014
   20TAL    C9631258   6.267   2.630  -0.342  0.2579  0.2092 -0.4172
   20TAL    C9731259   6.113   2.641  -0.292 -1.3863  0.4211  0.2671
   20TAL    C9831260   6.101   2.705  -0.151  0.9840  0.1213 -0.0549
   20TAL    C9931261   5.951   2.729  -0.092  0.7627  0.7479  0.5987
   20TAL   C10031262   5.852   2.803  -0.178 -0.1613  0.4705 -0.4662
   21HTM   C10131263   6.091   2.321  -0.547  0.1512 -0.5370 -0.0088
   21HTM   C10231264   6.050   2.248  -0.655 -0.3510 -0.5809  0.2062
   21HTM   C10331265   5.919   2.282  -0.702 -0.3763 -0.2625  0.5033
   21HTM   C10431266   5.859   2.382  -0.630  0.1064  0.0242  0.5148
   21HTM    S1131267   5.966   2.440  -0.497  0.6348 -0.0865  0.1481
   22TAL   C10531268   5.856   2.211  -0.826  0.7036 -0.1221  0.1920
   22TAL   C10631269   5.800   2.063  -0.781  0.0326  0.2718  0.0050
   22TAL   C10731270   5.898   1.970  -0.700 -0.0409  0.0857 -0.2598
   22TAL   C10831271   5.824   1.843  -0.646 -0.0536 -0.8789 -0.1080
   22TAL   C10931272   5.694   1.845  -0.549 -0.6674  0.0805  0.0854
   22TAL   C11031273   5.677   1.920  -0.411 -0.4758 -0.3889  0.2030
   23HTM   C11131274   5.734   2.454  -0.640 -0.3801  0.9932  0.2710
   23HTM   C11231275   5.675   2.532  -0.546 -0.1607  1.7402 -0.1974
   23HTM   C11331276   5.563   2.609  -0.595  0.2095  1.9556 -0.7155
   23HTM   C11431277   5.537   2.588  -0.728  0.2722  1.3729 -0.6419
   23HTM    S1231278   5.653   2.470  -0.800 -0.1345  0.5001  0.0927
   24TAL   C11531279   5.491   2.710  -0.497 -0.2574  1.3205 -0.1962
   24TAL   C11631280   5.575   2.829  -0.442 -0.1862 -0.1309  0.1901
   24TAL   C11731281   5.675   2.883  -0.547  0.3281  0.4745 -0.2372
   24TAL   C11831282   5.615   2.957  -0.675  0.1109 -0.1925  0.0596
   24TAL   C11931283   5.721   3.051  -0.722 -1.3033 -0.4688  0.0281
   24TAL   C12031284   5.684   3.128  -0.849 -0.3533  0.2031 -0.3442
   25HTM   C12131285   5.443   2.655  -0.810  0.4484  0.1878 -0.1659
   25HTM   C12231286   5.473   2.709  -0.931  0.1647  0.1454 -0.2565
   25HTM   C12331287   5.374   2.802  -0.980 -0.0421 -0.0158 -0.1462
   25HTM   C12431288   5.268   2.819  -0.895  0.0836 -0.0963  0.0277
   25HTM    S1331289   5.286   2.718  -0.746  0.4762  0.0261  0.0670
   26TAL   C12531290   5.378   2.865  -1.118  0.3394 -0.6023  0.3574
   26TAL   C12631291   5.418   2.772  -1.236 -0.3148  0.5811 -0.7654
   26TAL   C12731292   5.431   2.849  -1.370  0.0774 -0.4369 -0.5111
   26TAL   C12831293   5.468   2.773  -1.491  0.4336  1.1460 -1.0671
   26TAL   C12931294   5.542   2.862  -1.588  0.2905 -0.4291 -0.4819
   26TAL   C13031295   5.570   2.812  -1.727 -0.3314  0.4430  1.1506
   27HTM   C13131296   5.130   2.871  -0.905 -0.0553 -0.4809  0.0450
   27HTM   C13231297   5.011   2.808  -0.881 -0.3164 -0.3129 -0.7398
   27HTM   C13331298   4.898   2.897  -0.878 -0.1546 -0.0919 -1.0736
   27HTM   C13431299   4.931   3.027  -0.900  0.2297 -0.0914 -0.5432
   27HTM    S1431300   5.108   3.048  -0.926  0.4190 -0.3723  0.4264
   28TAL   C13531301   4.758   2.840  -0.852 -0.0387 -0.9789  1.1816
   28TAL   C13631302   4.740   2.861  -0.697 -0.0607  0.8299  1.2376
   28TAL   C13731303   4.592   2.878  -0.679 -0.3842 -0.3431 -0.3299
   28TAL   C13831304   4.560   2.924  -0.538  0.6261  0.3610 -0.2338
   28TAL   C13931305   4.428   3.000  -0.561 -0.1595  1.5208  0.0676
   28TAL   C14031306   4.398   3.069  -0.431  0.3186  0.0906 -0.3977
   29HTM   C14131307   4.848   3.143  -0.886  0.3748  0.3395 -0.5864
   29HTM   C14231308   4.876   3.253  -0.812  0.8782  0.8746 -1.5376
   29HTM   C14331309   4.764   3.341  -0.792  1.0321  1.0642 -1.4961
   29HTM   C14431310   4.649   3.297  -0.852  0.6462  0.6734 -0.5130
   29HTM    S1531311   4.675   3.141  -0.938  0.0538  0.0308  0.4435
   30TAL   C14531312   4.789   3.474  -0.727  0.3150  0.6219 -0.7957
   30TAL   C14631313   4.890   3.475  -0.604 -0.1685  0.4886  0.5055
   30TAL   C14731314   4.802   3.519  -0.482 -0.2527 -0.8286 -0.5379
   30TAL   C14831315   4.867   3.513  -0.343 -0.5599  0.1332 -1.2026
   30TAL   C14931316   4.850   3.632  -0.247 -0.1823 -0.7317  0.1973
   30TAL   C15031317   4.707   3.676  -0.201  0.0187  0.7505  1.2206
   31HTM   C15131318   4.541   3.384  -0.876  0.0114  0.8250 -0.0128
   31HTM   C15231319   4.525   3.501  -0.945 -0.0299  1.3423  0.8476
   31HTM   C15331320   4.390   3.550  -0.946 -0.0613  1.2660  1.1485
   31HTM   C15431321   4.302   3.470  -0.878 -0.0437  0.6905  0.5173
   31HTM    S1631322   4.385   3.326  -0.807  0.0141  0.1964 -0.5135
   32TAL   C15531323   4.359   3.682  -1.017 -0.2003 -0.3961  0.0554
   32TAL   C15631324   4.477   3.751  -1.093 -0.4172  0.0739 -0.3260
   32TAL   C15731325   4.436   3.868  -1.183 -0.0471  0.0260 -0.1453
   32TAL   C15831326   4.557   3.899  -1.270 -0.2501  0.7024 -1.0331
   32TAL   C15931327   4.524   3.952  -1.409  1.4350 -0.2338  0.2221
   32TAL   C16031328   4.646   3.924  -1.490  0.6395  0.6366  0.5545
   33HTM   C16131329   4.155   3.473  -0.863  0.0825 -0.0418  0.4385
   33HTM   C16231330   4.086   3.436  -0.751 -0.0532 -0.2672  0.2832
   33HTM   C16331331   3.947   3.472  -0.754 -0.0948 -0.4454  0.0997
   33HTM   C16431332   3.909   3.535  -0.869  0.0090 -0.3558  0.1153
   33HTM    S1731333   4.048   3.555  -0.982  0.1686 -0.0369  0.3646
   34TAL   C16531334   3.858   3.440  -0.630  0.3338 -0.1222  0.3158
   34TAL   C16631335   3.934   3.422  -0.499 -1.2111  0.3159 -0.6937
   34TAL   C16731336   3.850   3.340  -0.391  0.5035 -1.1016  0.5447
   34TAL   C16831337   3.897   3.195  -0.346  0.5149  0.0855  0.9191
   34TAL   C16931338   4.039   3.192  -0.292 -0.6530 -0.5476  0.4266
   34TAL   C17031339   4.058   3.194  -0.144  0.6159 -0.0502 -0.1968
   35HTM   C17131340   3.776   3.570  -0.913  0.5912  0.1396  0.7898
   35HTM   C17231341   3.753   3.604  -1.043  1.1180 -0.4073  0.5457
   35HTM   C17331342   3.628   3.671  -1.064  1.1237 -0.6399 -0.2756
   35HTM   C17431343   3.554   3.688  -0.951  0.6014 -0.2705 -0.6585
   35HTM    S1831344   3.639   3.620  -0.807  0.0575  0.4053 -0.0057
   36TAL   C17531345   3.615   3.726  -1.204  0.1060  1.1325 -0.8171
   36TAL   C17631346   3.539   3.660  -1.313 -0.2902  1.1207  1.4043
   36TAL   C17731347   3.509   3.769  -1.409 -0.7016 -0.9482  0.2734
   36TAL   C17831348   3.438   3.743  -1.540 -0.7004 -0.2542  0.8449
   36TAL   C17931349   3.340   3.853  -1.590 -0.0327  0.8479 -0.8588
   36TAL   C18031350   3.220   3.887  -1.500 -1.0294  0.0416  0.0314
   37HTM   C18131351   3.420   3.762  -0.927 -0.0340 -0.6843  0.1964
   37HTM   C18231352   3.367   3.831  -0.822 -0.1930 -1.2033  0.4644
   37HTM   C18331353   3.235   3.883  -0.848 -0.0635 -0.8847  0.4370
   37HTM   C18431354   3.188   3.854  -0.972  0.1942 -0.1226  0.1480
   37HTM    S1931355   3.307   3.757  -1.067  0.2940  0.2545 -0.1145
   38TAL   C18531356   3.174   3.979  -0.738  0.1026 -0.4177 -0.5072
   38TAL   C18631357   3.049   3.923  -0.678  0.9999  0.3675 -0.8725
   38TAL   C18731358   3.009   3.963  -0.525 -0.9889  0.2581  0.4540
   38TAL   C18831359   2.891   3.918  -0.432 -1.1422  0.3012  0.4601
   38TAL   C18931360   2.900   4.007  -0.296  0.0893 -0.5670  0.8600
   38TAL   C19031361   2.860   3.906  -0.183 -0.3491  0.3621  0.7754
   39HTM   C19131362   3.061   3.895  -1.042 -0.2298 -0.5551 -0.0463
   39HTM   C19231363   3.019   4.025  -1.046 -0.3251 -0.5813  0.0978
   39HTM   C19331364   2.916   4.049  -1.144 -0.5408 -0.6050  0.3171
   39HTM   C19431365   2.880   3.938  -1.214 -0.6099 -0.5970  0.3400
   39HTM    S2031366   2.974   3.793  -1.163 -0.4064 -0.5584  0.0842
   40TAL   C19531367   2.852   4.183  -1.146 -0.6658  0.1992  1.3973
   40TAL   C19631368   2.918   4.319  -1.204 -0.3907  1.0442  0.2785
   40TAL   C19731369   2.957   4.316  -1.354  0.3188  0.7532  0.1240
   40TAL   C19831370   3.053   4.432  -1.385 -0.0970  0.3242  0.9633
   40TAL   C19931371   3.139   4.437  -1.516 -0.6420  0.3480  0.0996
   40TAL   C20031372   3.093   4.337  -1.621  0.1017 -0.4985  0.4101
   41HTM   C20131373   2.787   3.921  -1.314  0.6698 -0.5013  0.1720
   41HTM   C20231374   2.654   3.949  -1.306  0.6115 -0.9050  0.7136
   41HTM   C20331375   2.579   3.913  -1.423  0.3432 -0.6202  0.7925
   41HTM   C20431376   2.655   3.856  -1.521  0.1970  0.0007  0.3107
   41HTM    S2131377   2.829   3.845  -1.473  0.3883  0.2761 -0.2843
   42TAL   C20531378   2.432   3.930  -1.439  0.8447  0.3568  0.8734
   42TAL   C20631379   2.361   4.044  -1.379 -0.4351 -0.3783  0.9464
   42TAL   C20731380   2.318   4.029  -1.233  0.1819 -0.1686 -0.4531
   42TAL   C20831381   2.272   4.166  -1.169  0.6863 -0.4488 -1.0880
   42TAL   C20931382   2.373   4.271  -1.148 -0.3860 -0.4667  0.3110
   42TAL   C21031383   2.351   4.421  -1.113  0.3290 -0.6983 -0.4974
   43HTM   C21131384   2.608   3.778  -1.635 -0.2713 -0.2335  0.1000
   43HTM   C21231385   2.569   3.835  -1.752 -0.1830 -0.1136  0.1287
   43HTM   C21331386   2.519   3.741  -1.849  0.3385 -0.0786 -0.1856
   43HTM   C21431387   2.520   3.612  -1.805  0.6480 -0.1719 -0.4539
   43HTM    S2231388   2.584   3.599  -1.637  0.3020 -0.3122 -0.3293
   44TAL   C21531389   2.508   3.791  -1.994  0.7009 -1.3703 -0.2806
   44TAL   C21631390   2.501   3.941  -2.033  0.5830 -0.7846  0.2449
   44TAL   C21731391   2.618   4.036  -2.007  1.4061 -0.3880  0.4143
   44TAL   C21831392   2.607   4.125  -1.888 -0.8272  0.0777 -0.3158
   44TAL   C21931393   2.749   4.158  -1.838  0.4894  0.1395 -0.3412
   44TAL   C22031394   2.752   4.169  -1.689 -0.3794 -0.2551 -0.1181
   45HTM   C22131395   2.471   3.491  -1.876  0.1688 -0.0042 -0.3874
   45HTM   C22231396   2.420   3.489  -2.002  0.1173 -0.4205 -0.3631
   45HTM   C22331397   2.387   3.357  -2.049 -0.1377 -0.5579  0.1805
   45HTM   C22431398   2.414   3.258  -1.959 -0.2806 -0.2464  0.5707
   45HTM    S2331399   2.483   3.325  -1.806 -0.1028  0.2486  0.2795
   46TAL   C22531400   2.325   3.326  -2.189 -0.2841  0.7652 -0.5567
   46TAL   C22631401   2.362   3.426  -2.301  0.4911 -0.1692 -0.3430
   46TAL   C22731402   2.289   3.369  -2.422 -0.4871  0.1602  0.2952
   46TAL   C22831403   2.282   3.477  -2.529  0.2374 -0.8329 -0.4907
   46TAL   C22931404   2.188   3.429  -2.646 -0.6031  0.8389 -1.2593
   46TAL   C23031405   2.182   3.541  -2.743  0.4311 -0.5153  0.8777
   47HTM   C23131406   2.389   3.121  -1.970  0.1738  0.1793  0.1140
   47HTM   C23231407   2.265   3.063  -1.969  0.1907  0.1351 -0.2183
   47HTM   C23331408   2.267   2.921  -1.945  0.2121  0.0414 -0.7515
   47HTM   C23431409   2.393   2.871  -1.928  0.2114  0.0139 -0.8258
   47HTM    S2431410   2.519   2.999  -1.940  0.1837  0.1053 -0.2234
   48TAL   C23531411   2.158   2.821  -1.967  0.6482  0.2950  0.5140
   48TAL   C23631412   2.047   2.865  -2.071 -0.3827 -0.4068 -0.3448
   48TAL   C23731413   2.101   2.894  -2.211 -0.3957  0.7143  0.1005
   48TAL   C23831414   2.010   2.920  -2.333 -0.6378  0.0421  0.0938
   48TAL   C23931415   2.045   3.058  -2.379 -0.1049  0.1601  0.6307
   48TAL   C24031416   1.955   3.105  -2.496 -0.6923  0.1331 -0.9713
    1HTM     C131417   6.998   2.773   6.147 -0.0645  0.2740  0.3606
    1HTM     C231418   7.128   2.812   6.139 -0.1097  0.4107  0.2903
    1HTM     C331419   7.214   2.747   6.234  0.0888  0.1844 -0.0387
    1HTM     C431420   7.149   2.658   6.315  0.2850 -0.1248 -0.2194
    1HTM     S131421   6.973   2.650   6.276  0.2341 -0.1543  0.0139
    2TAL     C531422   7.347   2.790   6.273 -0.6015  0.0713  1.3297
    2TAL     C631423   7.424   2.908   6.200 -0.8496 -0.4054 -0.4298
    2TAL     C731424   7.448   2.885   6.051  0.6636 -0.9992 -0.2106
    2TAL     C831425   7.530   2.766   6.023 -0.1134  0.2223 -1.3144
    2TAL     C931426   7.672   2.744   6.084 -0.0042 -0.6331  1.0493
    2TAL    C1031427   7.776   2.737   5.975 -0.7851 -0.7857 -0.6530
    3HTM    C1131428   7.199   2.592   6.425  0.1704  0.8233  0.4989
    3HTM    C1231429   7.127   2.564   6.537  0.0763  0.4014  0.3359
    3HTM    C1331430   7.200   2.490   6.636 -0.1662 -0.4358 -0.0857
    3HTM    C1431431   7.329   2.462   6.600 -0.2571 -0.6523 -0.2443
    3HTM     S231432   7.367   2.527   6.436 -0.0418  0.1911  0.1295
    4TAL    C1531433   7.130   2.453   6.762  0.2659 -0.6046 -0.6511
    4TAL    C1631434   7.073   2.579   6.828  0.4366  0.2508 -1.7091
    4TAL    C1731435   6.959   2.558   6.926 -0.7283 -0.6024  0.1395
    4TAL    C1831436   6.818   2.576   6.879  0.7801 -0.9683  1.0324
    4TAL    C1931437   6.781   2.706   6.797  0.7205 -0.6730  0.3505
    4TAL    C2031438   6.704   2.666   6.675 -0.0412 -0.8065  0.3936
    5HTM    C2131439   7.438   2.409   6.682  0.1891 -0.2435 -0.3868
    5HTM    C2231440   7.570   2.441   6.670  0.2313 -0.3769 -0.2799
    5HTM    C2331441   7.653   2.384   6.773  0.0125 -0.0137  0.1030
    5HTM    C2431442   7.584   2.309   6.864 -0.1967  0.3966  0.2880
    5HTM     S331443   7.407   2.305   6.826 -0.1329  0.3559 -0.0095
    6TAL    C2531444   7.811   2.391   6.764 -0.1720  0.4260 -0.7537
    6TAL    C2631445   7.899   2.520   6.759  1.5065  0.4792  0.7952
    6TAL    C2731446   7.873   2.592   6.877 -0.3922 -0.6616 -0.0885
    6TAL    C2831447   7.959   2.708   6.864  0.2233 -1.2819 -0.4130
    6TAL    C2931448   7.928   2.795   6.984 -0.0032  0.6962 -0.1600
    6TAL    C3031449   7.898   2.940   6.954  0.5378  0.0158 -0.0750
    7HTM    C3131450   7.632   2.208   6.960  0.6491 -0.0122 -0.3644
    7HTM    C3231451   7.717   2.242   7.061  0.4580  0.0829 -0.2350
    7HTM    C3331452   7.744   2.134   7.152  0.2357  0.1867 -0.0457
    7HTM    C3431453   7.680   2.018   7.121  0.2571  0.1710 -0.0309
    7HTM     S431454   7.579   2.036   6.972  0.5623  0.0224 -0.2566
    8TAL    C3531455   7.841   2.167   7.273  0.0593  1.0764  0.3316
    8TAL    C3631456   7.981   2.119   7.256  0.1684  0.8039  0.5354
    8TAL    C3731457   8.081   2.193   7.162 -0.8074  0.0198 -0.7527
    8TAL    C3831458   8.122   2.328   7.228  0.4569  0.2274 -0.6015
    8TAL    C3931459   8.208   2.430   7.159  0.4922 -0.3266  0.8014
    8TAL    C4031460   8.271   2.536   7.238  0.1583 -0.5448 -0.6860
    9HTM    C4131461   7.692   1.877   7.171 -0.3787 -0.4148 -0.3639
    9HTM    C4231462   7.604   1.777   7.142 -0.5186 -0.4653  0.2023
    9HTM    C4331463   7.634   1.652   7.207 -0.6372 -0.1717  0.8373
    9HTM    C4431464   7.745   1.656   7.286 -0.5877  0.1027  0.7553
    9HTM     S531465   7.821   1.820   7.284 -0.3860  0.0109 -0.1372
   10TAL    C4531466   7.552   1.526   7.185  0.4174  0.9716  0.8370
   10TAL    C4631467   7.404   1.524   7.209  0.2889 -0.7962  0.4327
   10TAL    C4731468   7.365   1.596   7.338  0.5746 -0.9976 -0.5068
   10TAL    C4831469   7.222   1.646   7.355  0.3490  0.3254  0.2269
   10TAL    C4931470   7.154   1.720   7.234 -0.2836 -0.4491 -0.0394
   10TAL    C5031471   7.008   1.736   7.237 -0.0483  0.2293  0.6191
   11HTM    C5131472   7.822   1.549   7.351  0.0605 -0.1444  0.1367
   11HTM    C5231473   7.955   1.546   7.380 -0.0587  0.2516  0.7732
   11HTM    C5331474   7.992   1.439   7.469 -0.1830  0.4516  1.0695
   11HTM    C5431475   7.888   1.361   7.508 -0.1588  0.2082  0.6586
   11HTM     S631476   7.733   1.416   7.435  0.0245 -0.2965 -0.1404
   12TAL    C5531477   8.142   1.400   7.489  0.0384  0.0161  0.1597
   12TAL    C5631478   8.227   1.514   7.536 -1.4095 -0.0372  0.9018
   12TAL    C5731479   8.364   1.537   7.463  0.8892  0.2822 -0.4932
   12TAL    C5831480   8.383   1.564   7.309  1.5053  1.5555  1.1188
   12TAL    C5931481   8.458   1.693   7.256 -0.4006  0.4277  0.2057
   12TAL    C6031482   8.607   1.716   7.310  0.5393 -0.2050  1.0691
   13HTM    C6131483   7.876   1.245   7.600  0.5758  0.1337  0.0406
   13HTM    C6231484   7.792   1.139   7.588  0.4214  0.2341  0.2290
   13HTM    C6331485   7.813   1.036   7.687  0.1783  0.4410  0.4987
   13HTM    C6431486   7.913   1.064   7.774  0.1474  0.4983  0.5161
   13HTM     S731487   7.990   1.223   7.738  0.4251  0.2938  0.1903
   14TAL    C6531488   7.717   0.913   7.692 -0.1042  0.4517  0.3679
   14TAL    C6631489   7.585   0.950   7.755 -0.3371 -0.0516  0.7947
   14TAL    C6731490   7.475   0.842   7.721  0.3507 -0.1506 -0.0672
   14TAL    C6831491   7.376   0.891   7.620 -0.2245  0.0665 -1.1790
   14TAL    C6931492   7.272   0.797   7.582 -0.1559  0.4300  1.1285
   14TAL    C7031493   7.189   0.802   7.450 -0.5871 -0.2321 -0.3778
   15HTM    C7131494   7.966   0.981   7.881  0.3517 -0.3584 -0.5372
   15HTM    C7231495   7.959   0.847   7.910  0.5273 -0.4064 -0.7184
   15HTM    C7331496   8.019   0.812   8.036 -0.1478 -0.3759 -0.3815
   15HTM    C7431497   8.071   0.918   8.104 -0.8380 -0.3047  0.0563
   15HTM     S831498   8.049   1.072   8.013 -0.6881 -0.2703  0.0777
   16TAL    C7531499   8.018   0.672   8.082 -0.2583  0.1534 -0.6390
   16TAL    C7631500   8.123   0.583   8.008  0.4739  0.4669  0.6796
   16TAL    C7731501   8.095   0.436   8.044 -0.3040  0.7848  0.4789
   16TAL    C7831502   8.141   0.391   8.177 -0.0127 -1.1463 -0.4357
   16TAL    C7931503   8.081   0.265   8.236 -0.1700 -0.7022 -0.1527
   16TAL    C8031504   7.952   0.315   8.308  0.0584  0.0313 -0.6469
   17HTM    C8131505   8.153   0.934   8.224 -0.1261 -0.4875 -0.1882
   17HTM    C8231506   8.196   1.043   8.295 -0.0231 -0.4152 -0.3595
   17HTM    C8331507   8.277   1.009   8.409  0.0544 -0.3042 -0.3822
   17HTM    C8431508   8.296   0.875   8.425  0.0114 -0.2919 -0.2280
   17HTM     S931509   8.212   0.780   8.297 -0.1322 -0.4205 -0.0412
   18TAL    C8531510   8.349   1.119   8.501  0.9569 -0.1211  0.4819
   18TAL    C8631511   8.320   1.276   8.473 -0.2172  0.6483 -0.0854
   18TAL    C8731512   8.171   1.312   8.505 -0.8439 -0.7915  0.3248
   18TAL    C8831513   8.158   1.469   8.483  0.3531 -0.7385  0.4016
   18TAL    C8931514   8.026   1.527   8.543 -0.4229 -0.0896  0.0261
   18TAL    C9031515   7.995   1.660   8.491  0.0842  0.1705 -0.0773
   19HTM    C9131516   8.368   0.807   8.520 -0.0958 -0.1245  0.0876
   19HTM    C9231517   8.413   0.678   8.517  0.0355 -0.0868  0.3633
   19HTM    C9331518   8.507   0.647   8.622  0.2425  0.2962  0.2964
   19HTM    C9431519   8.534   0.751   8.704  0.2687  0.5505 -0.0305
   19HTM    S1031520   8.442   0.899   8.656  0.0327  0.3243 -0.2813
   20TAL    C9531521   8.569   0.497   8.603 -0.2159 -0.3285 -0.3964
   20TAL    C9631522   8.643   0.452   8.725 -0.2005  0.3357 -0.5513
   20TAL    C9731523   8.672   0.304   8.692  0.7873 -0.3531  0.3721
   20TAL    C9831524   8.571   0.210   8.763  0.2730  0.0119  0.5742
   20TAL    C9931525   8.622   0.084   8.830  0.5180  1.0235  0.3758
   20TAL   C10031526   8.532  -0.038   8.793  0.6554 -0.2429 -0.3330
   21HTM   C10131527   8.621   0.756   8.812 -0.0639 -0.2226  0.1683
   21HTM   C10231528   8.756   0.743   8.826 -0.0026  0.2472  0.0570
   21HTM   C10331529   8.803   0.754   8.962  0.0916  0.5749 -0.0010
   21HTM   C10431530   8.703   0.776   9.052  0.1017  0.3549  0.0657
   21HTM    S1131531   8.541   0.785   8.971 -0.0072 -0.2881  0.2085
   22TAL   C10531532   8.943   0.744   8.997  0.9484 -0.1404  0.4764
   22TAL   C10631533   9.024   0.607   8.996  0.9448  0.2073 -0.3708
   22TAL   C10731534   9.062   0.536   8.858 -0.3880 -0.0389  0.5201
   22TAL   C10831535   9.187   0.600   8.795 -0.7368  0.7361 -1.1161
   22TAL   C10931536   9.227   0.546   8.655 -0.2441  0.0047 -0.6344
   22TAL   C11031537   9.360   0.599   8.599  0.6367  0.5343 -0.5007
   23HTM   C11131538   8.696   0.818   9.188  0.8259  0.3612 -0.1180
   23HTM   C11231539   8.639   0.931   9.239  1.0645  0.4813 -0.1099
   23HTM   C11331540   8.678   0.960   9.375  0.7911  0.1414  0.0470
   23HTM   C11431541   8.766   0.870   9.427  0.3441 -0.2379  0.1586
   23HTM    S1231542   8.806   0.740   9.308  0.2330 -0.1949  0.0736
   24TAL   C11531543   8.634   1.089   9.448 -0.6621  0.4651  0.6185
   24TAL   C11631544   8.488   1.120   9.466  0.5369  0.8905 -0.8289
   24TAL   C11731545   8.366   1.119   9.369 -0.7940  1.0549  0.0019
   24TAL   C11831546   8.368   1.184   9.231  0.4230 -0.0728  0.1602
   24TAL   C11931547   8.394   1.336   9.213 -0.1982  0.2734  0.4208
   24TAL   C12031548   8.324   1.445   9.293  0.3338 -0.0535 -0.6618
   25HTM   C12131549   8.833   0.866   9.561  0.1260 -0.2363  0.3601
   25HTM   C12231550   8.932   0.775   9.578  0.1400 -0.2140  0.3994
   25HTM   C12331551   8.991   0.776   9.709  0.1495 -0.1394  0.3946
   25HTM   C12431552   8.935   0.869   9.793  0.1430 -0.1048  0.3518
   25HTM    S1331553   8.804   0.962   9.711  0.1240 -0.1643  0.3138
   26TAL   C12531554   9.100   0.672   9.740 -0.2296  0.0577  0.0306
   26TAL   C12631555   9.234   0.678   9.661  0.5120 -0.7475  0.1781
   26TAL   C12731556   9.290   0.822   9.652 -0.1692 -0.8093  0.4362
   26TAL   C12831557   9.403   0.834   9.554  0.8643  0.0948  0.4215
   26TAL   C12931558   9.537   0.768   9.603  0.9529  0.1806  0.2099
   26TAL   C13031559   9.589   0.824   9.733  0.0658  0.5894  0.1675
   27HTM   C13131560   8.963   0.892   9.930 -0.5767  0.2611 -0.3449
   27HTM   C13231561   8.872   0.888  10.031 -0.5605  0.1149 -0.3362
   27HTM   C13331562   8.923   0.933  10.158 -0.4830 -0.2570 -0.2333
   27HTM   C13431563   9.054   0.971  10.153 -0.4406 -0.3944 -0.1634
   27HTM    S1431564   9.123   0.954   9.987 -0.4946 -0.0621 -0.2228
   28TAL   C13531565   8.855   0.922  10.288  0.1744 -1.2266  0.4246
   28TAL   C13631566   8.701   0.937  10.296  0.2002  0.8052 -0.0207
   28TAL   C13731567   8.634   0.991  10.423 -0.0493  0.0457 -0.4299
   28TAL   C13831568   8.685   1.123  10.488 -0.4131  0.6572 -0.6931
   28TAL   C13931569   8.807   1.135  10.578 -1.2474  1.3010  0.1402
   28TAL   C14031570   8.813   1.049  10.702 -0.1140  0.4772  0.4218
   29HTM   C14131571   9.127   1.042  10.258 -0.2736 -0.0247  0.3542
   29HTM   C14231572   9.151   1.176  10.273  0.3655 -0.0814 -0.0725
   29HTM   C14331573   9.242   1.206  10.380  0.9077 -0.1979 -0.4946
   29HTM   C14431574   9.288   1.096  10.446  0.6817 -0.2299 -0.3897
   29HTM    S1531575   9.219   0.944  10.378 -0.2399 -0.1146  0.2553
   30TAL   C14531576   9.288   1.347  10.405 -0.0169 -1.2447  1.1007
   30TAL   C14631577   9.204   1.422  10.505  0.3889 -0.4449  1.1991
   30TAL   C14731578   9.213   1.576  10.518  0.9878 -0.8466  0.4257
   30TAL   C14831579   9.230   1.653  10.383  0.3346 -0.2382  0.0034
   30TAL   C14931580   9.138   1.636  10.264  0.2565  0.0777 -0.3050
   30TAL   C15031581   8.991   1.636  10.302  0.2003  0.1504 -0.6557
   31HTM   C15131582   9.387   1.080  10.549 -0.0316  0.0892  0.4281
   31HTM   C15231583   9.377   0.978  10.639  0.2160  0.2796  0.6755
   31HTM   C15331584   9.494   0.962  10.722  0.4981  0.3770  0.3008
   31HTM   C15431585   9.593   1.052  10.695  0.4653  0.2609 -0.2323
   31HTM    S1631586   9.546   1.165  10.562  0.0728  0.0177 -0.3030
   32TAL   C15531587   9.497   0.855  10.832  0.8525 -0.4992 -0.5088
   32TAL   C15631588   9.386   0.872  10.948 -0.2406  0.6326  0.3844
   32TAL   C15731589   9.415   0.983  11.043  0.3196  0.3345 -0.2229
   32TAL   C15831590   9.549   1.003  11.117 -0.1922 -0.2611  1.1582
   32TAL   C15931591   9.592   1.152  11.139  0.2078 -0.8388  0.2580
   32TAL   C16031592   9.551   1.204  11.273  0.1895 -0.1879 -0.1146
   33HTM   C16131593   9.708   1.081  10.769 -0.1579  0.4557  0.1099
   33HTM   C16231594   9.757   1.206  10.791  0.5496  0.2442 -0.1940
   33HTM   C16331595   9.876   1.209  10.873  0.8223 -0.2520 -0.5647
   33HTM   C16431596   9.917   1.085  10.913  0.3229 -0.4188 -0.5437
   33HTM    S1731597   9.809   0.955  10.850 -0.5374  0.0414 -0.0500
   34TAL   C16531598   9.945   1.344  10.917  0.0471  0.3130  1.2973
   34TAL   C16631599   9.915   1.467  10.823 -0.3457 -0.0385  0.5154
   34TAL   C16731600   9.989   1.477  10.691 -0.8341 -0.0687  0.5853
   34TAL   C16831601   9.992   1.609  10.615 -0.4518 -0.1292  0.1728
   34TAL   C16931602   9.858   1.657  10.578 -0.0048 -0.8936 -0.1687
   34TAL   C17031603   9.858   1.789  10.500 -0.6738 -1.1766 -0.1980
   35HTM   C17131604  10.023   1.041  11.012 -0.5864  0.3567  0.1019
   35HTM   C17231605  10.038   0.913  11.057 -0.5000  0.3097 -0.0586
   35HTM   C17331606  10.135   0.900  11.163 -0.2776  0.1953 -0.2756
   35HTM   C17431607  10.194   1.017  11.198 -0.1943  0.1552 -0.2806
   35HTM    S1831608  10.131   1.155  11.100 -0.3919  0.2595 -0.0095
   36TAL   C17531609  10.185   0.755  11.197 -0.1832 -0.3052  0.3122
   36TAL   C17631610  10.082   0.652  11.196  0.5473  1.3680  0.7015
   36TAL   C17731611  10.067   0.590  11.331  0.1549 -0.6118  0.3188
   36TAL   C17831612   9.954   0.639  11.423  0.4060 -0.3891  0.1419
   36TAL   C17931613   9.950   0.564  11.555  0.4887  0.0851 -0.0113
   36TAL   C18031614   9.867   0.438  11.527 -0.5215 -0.1574 -0.3027
   37HTM   C18131615  10.281   1.032  11.312  0.4010  0.1361 -0.8447
   37HTM   C18231616  10.242   1.029  11.443  0.0376  0.3197 -0.9446
   37HTM   C18331617  10.352   1.035  11.536 -0.1918  0.0409 -0.6508
   37HTM   C18431618  10.474   1.043  11.476 -0.0032 -0.3552 -0.3270
   37HTM    S1931619  10.460   1.043  11.296  0.4824 -0.4073 -0.3683
   38TAL   C18531620  10.329   1.040  11.689  0.0669 -0.6823  0.1746
   38TAL   C18631621  10.268   0.921  11.762 -0.1290 -1.2976 -0.8447
   38TAL   C18731622  10.130   0.884  11.708 -0.1208  0.3457  0.0477
   38TAL   C18831623  10.030   0.835  11.807 -0.3243 -0.1672 -1.1753
   38TAL   C18931624   9.887   0.839  11.765  0.1063  0.3700  0.1717
   38TAL   C19031625   9.781   0.751  11.819 -0.5959  0.1660  0.1284
   39HTM   C19131626  10.609   1.034  11.530  0.0987 -0.6341  0.0515
   39HTM   C19231627  10.711   0.985  11.454  0.1358 -0.8146  0.2158
   39HTM   C19331628  10.837   0.977  11.523  0.1042 -0.6431  0.2936
   39HTM   C19431629  10.831   1.020  11.652  0.0431 -0.3318  0.1884
   39HTM    S2031630  10.665   1.074  11.696  0.0205 -0.2304 -0.0184
   40TAL   C19531631  10.963   0.923  11.462 -0.4478 -0.1630 -0.0198
   40TAL   C19631632  10.995   0.780  11.504 -1.0249 -0.7663  0.6159
   40TAL   C19731633  11.141   0.716  11.482 -0.6175 -0.0440  0.1150
   40TAL   C19831634  11.144   0.584  11.562  0.5049  0.0575 -0.0741
   40TAL   C19931635  11.277   0.495  11.553  0.4814 -0.1357  0.3987
   40TAL   C20031636  11.309   0.425  11.423 -0.4228 -0.4531 -0.0365
   41HTM   C20131637  10.930   1.040  11.755 -0.0885  0.1029 -0.3471
   41HTM   C20231638  11.048   0.974  11.772 -0.2903 -0.2209 -0.1804
   41HTM   C20331639  11.116   1.010  11.894 -0.3723 -0.4208 -0.0755
   41HTM   C20431640  11.050   1.102  11.969 -0.2331 -0.2493 -0.1623
   41HTM    S2131641  10.895   1.152  11.891  0.0145  0.1812 -0.3851
   42TAL   C20531642  11.261   0.953  11.905  0.1698 -0.0346  0.4156
   42TAL   C20631643  11.290   0.791  11.901  0.3384 -0.7443 -0.2353
   42TAL   C20731644  11.199   0.697  11.988  0.3203 -0.8029  0.8691
   42TAL   C20831645  11.178   0.747  12.138  0.0648 -0.4854  0.9967
   42TAL   C20931646  11.061   0.680  12.208 -0.1862 -1.0159  0.3031
   42TAL   C21031647  10.936   0.765  12.192  0.8321 -0.0514  0.0912
   43HTM   C21131648  11.092   1.157  12.094  0.6536 -0.0332 -0.5046
   43HTM   C21231649  11.070   1.110  12.220  0.4681 -0.6053 -0.7429
   43HTM   C21331650  11.131   1.190  12.323  0.0412 -0.8796 -0.2681
   43HTM   C21431651  11.199   1.298  12.276 -0.0988 -0.5167  0.3322
   43HTM    S2231652  11.192   1.307  12.096  0.3008  0.2052  0.3445
   44TAL   C21531653  11.133   1.162  12.477 -0.5870  0.8215 -0.4377
   44TAL   C21631654  11.008   1.199  12.570 -0.9292  0.3482  0.5542
   44TAL   C21731655  11.028   1.213  12.716 -0.3912  0.0196  0.8389
   44TAL   C21831656  11.120   1.327  12.761 -0.2271  0.1939 -0.1237
   44TAL   C21931657  11.113   1.336  12.916  0.4627  1.4983 -0.5400
   44TAL   C22031658  11.230   1.404  12.987  0.2261  0.2411  0.6019
   45HTM   C22131659  11.286   1.402  12.334  0.3732 -0.6427 -0.1252
   45HTM   C22231660  11.305   1.449  12.461 -0.1807 -0.5819 -0.0614
   45HTM   C22331661  11.405   1.552  12.471 -0.8338  0.0429  0.2006
   45HTM   C22431662  11.462   1.584  12.351 -0.7780  0.4586  0.3365
   45HTM    S2331663  11.394   1.486  12.216  0.1107  0.0903  0.1426
   46TAL   C22531664  11.438   1.619  12.603 -0.8504 -0.8028 -0.1743
   46TAL   C22631665  11.328   1.657  12.699  0.3473 -0.9503 -0.8510
   46TAL   C22731666  11.371   1.778  12.793 -0.1564 -0.0569 -0.4457
   46TAL   C22831667  11.257   1.878  12.797 -0.2214 -0.2915 -0.1953
   46TAL   C22931668  11.265   1.974  12.679  1.0907 -0.1856  0.4314
   46TAL   C23031669  11.167   2.088  12.692  0.4957 -0.8250  0.2931
   47HTM   C23131670  11.586   1.670  12.334  0.3703 -0.0153  0.0762
   47HTM   C23231671  11.653   1.661  12.216 -0.3195  0.3737 -0.3601
   47HTM   C23331672  11.751   1.764  12.197 -0.6399  0.6161 -0.7432
   47HTM   C23431673  11.759   1.852  12.301 -0.1942  0.4119 -0.5989
   47HTM    S2431674  11.642   1.810  12.432  0.6713 -0.1064  0.0367
   48TAL   C23531675  11.843   1.763  12.074 -0.1113 -0.2554  0.0102
   48TAL   C23631676  11.862   1.627  12.003  0.0814  0.8411  0.0211
   48TAL   C23731677  11.942   1.653  11.872  0.8982 -0.3455 -0.1421
   48TAL   C23831678  11.909   1.550  11.764 -0.5353 -0.9309  0.0904
   48TAL   C23931679  11.979   1.613  11.637  0.6105  0.9402 -0.2912
   48TAL   C24031680  11.992   1.504  11.517  0.3007 -0.9987 -1.0136
    1HTM     C131681   4.809   3.627   4.283  0.7522 -0.0738 -0.1644
    1HTM     C231682   4.726   3.520   4.264  0.7691 -0.1406  0.1283
    1HTM     C331683   4.737   3.461   4.133  0.2822 -0.0699  0.0516
    1HTM     C431684   4.828   3.523   4.052 -0.1062  0.0507 -0.2996
    1HTM     S131685   4.907   3.662   4.136  0.1147  0.0847 -0.5627
    2TAL     C531686   4.653   3.337   4.099 -0.2987 -0.5868 -0.3555
    2TAL     C631687   4.698   3.221   4.188 -0.2666  0.4633  0.2155
    2TAL     C731688   4.595   3.110   4.199  0.7809 -0.0357  1.2621
    2TAL     C831689   4.637   2.958   4.203 -0.5430 -0.7239 -0.0562
    2TAL     C931690   4.758   2.910   4.279 -0.3424 -0.3346  0.1230
    2TAL    C1031691   4.794   2.778   4.223  0.5030  0.8546 -1.7002
    3HTM    C1131692   4.862   3.504   3.907  0.2130 -0.2043 -0.2424
    3HTM    C1231693   4.813   3.419   3.811  0.4516 -0.2546 -0.3215
    3HTM    C1331694   4.894   3.413   3.692  0.4978  0.0458 -0.3070
    3HTM    C1431695   5.004   3.493   3.697  0.2944  0.3252 -0.2169
    3HTM     S231696   5.015   3.583   3.853  0.0267  0.2299 -0.1428
    4TAL    C1531697   4.843   3.326   3.578 -1.2053  0.4274  0.1481
    4TAL    C1631698   4.743   3.388   3.469  0.1560  0.5045 -0.1336
    4TAL    C1731699   4.808   3.482   3.375  0.2505 -0.2423  0.7781
    4TAL    C1831700   4.741   3.534   3.244  0.6078  0.4054 -0.8523
    4TAL    C1931701   4.733   3.427   3.132 -0.2785 -0.9291 -0.6227
    4TAL    C2031702   4.711   3.510   3.005 -0.0434  0.2115 -0.1552
    5HTM    C2131703   5.124   3.501   3.615 -0.3375  0.7023 -0.0431
    5HTM    C2231704   5.132   3.512   3.479 -0.3464  1.3978  0.0054
    5HTM    C2331705   5.265   3.542   3.432 -0.2624  1.2236  0.1276
    5HTM    C2431706   5.358   3.553   3.531 -0.1896  0.3950  0.1725
    5HTM     S331707   5.284   3.527   3.694 -0.2215 -0.2342  0.0629
    6TAL    C2531708   5.294   3.559   3.279  0.2928 -1.5813  0.3509
    6TAL    C2631709   5.224   3.476   3.173 -1.0796  0.2203  0.4500
    6TAL    C2731710   5.281   3.467   3.038 -0.8600  0.0199  0.3993
    6TAL    C2831711   5.261   3.314   3.003 -0.5429  0.0736  0.6347
    6TAL    C2931712   5.294   3.286   2.859  0.3723  0.3122 -0.8283
    6TAL    C3031713   5.266   3.133   2.831 -0.2162 -0.5435  1.1057
    7HTM    C3131714   5.502   3.552   3.524 -0.2292 -0.2700  0.1236
    7HTM    C3231715   5.578   3.611   3.427 -0.6866 -0.2609 -0.2381
    7HTM    C3331716   5.720   3.603   3.452 -0.5823  0.1699 -0.6634
    7HTM    C3431717   5.751   3.539   3.568 -0.0451  0.4894 -0.6261
    7HTM     S431718   5.604   3.482   3.655  0.3736  0.2692 -0.0462
    8TAL    C3531719   5.818   3.638   3.345 -0.9710  0.1329  0.8594
    8TAL    C3631720   5.854   3.786   3.331  0.6591 -0.1347  0.0240
    8TAL    C3731721   5.786   3.845   3.218  1.0468 -0.8877  0.5358
    8TAL    C3831722   5.876   3.862   3.091 -1.2219  0.2593 -1.1857
    8TAL    C3931723   5.817   3.958   2.987 -0.1143 -0.3548  0.0737
    8TAL    C4031724   5.919   3.958   2.872  0.6844  0.1067 -0.6689
    9HTM    C4131725   5.882   3.524   3.629 -0.2857  0.2076  0.3961
    9HTM    C4231726   5.924   3.414   3.698 -0.4227  0.0756  0.2693
    9HTM    C4331727   6.056   3.427   3.754 -0.1760 -0.3661 -0.1901
    9HTM    C4431728   6.115   3.547   3.728  0.1488 -0.5709 -0.4134
    9HTM     S531729   6.008   3.653   3.630  0.1686 -0.2190 -0.0583
   10TAL    C4531730   6.117   3.324   3.848 -0.3910 -1.0000  1.0140
   10TAL    C4631731   6.077   3.312   3.989 -0.0373  1.0704  0.2369
   10TAL    C4731732   5.932   3.311   4.032  0.2597  0.2047  0.5206
   10TAL    C4831733   5.854   3.181   4.002 -0.8243  0.0072  0.3690
   10TAL    C4931734   5.722   3.172   4.058 -0.0791  0.3273  0.3538
   10TAL    C5031735   5.640   3.054   4.014 -0.5509  1.0002 -0.4496
   11HTM    C5131736   6.246   3.606   3.753  0.2084 -0.0019 -0.3009
   11HTM    C5231737   6.363   3.580   3.688  0.4113  0.0632  0.0356
   11HTM    C5331738   6.475   3.654   3.740  0.2600 -0.0069  0.4762
   11HTM    C5431739   6.444   3.736   3.843 -0.0581 -0.1256  0.4756
   11HTM     S631740   6.268   3.727   3.885 -0.1925 -0.1581 -0.0857
   12TAL    C5531741   6.609   3.619   3.677  0.0616  0.5163 -0.6966
   12TAL    C5631742   6.735   3.600   3.765  0.4080 -0.0727  0.8678
   12TAL    C5731743   6.838   3.702   3.754  0.3462 -1.3893 -0.7351
   12TAL    C5831744   6.981   3.683   3.781 -0.3453  0.3315 -0.0650
   12TAL    C5931745   7.076   3.775   3.710  0.0112  0.0995  0.6932
   12TAL    C6031746   7.098   3.916   3.777  1.4119  0.4865 -0.0607
   13HTM    C6131747   6.529   3.832   3.911  0.4739 -0.0005  0.1520
   13HTM    C6231748   6.581   3.941   3.847  0.6956 -0.1022  0.1560
   13HTM    C6331749   6.671   4.019   3.927  0.6126 -0.1154  0.2621
   13HTM    C6431750   6.689   3.969   4.053  0.3277 -0.0241  0.3390
   13HTM     S731751   6.591   3.820   4.080  0.1406  0.0868  0.2828
   14TAL    C6531752   6.743   4.150   3.881 -1.6787  0.4026 -0.7726
   14TAL    C6631753   6.738   4.164   3.735 -0.6716  0.0580  0.0469
   14TAL    C6731754   6.844   4.264   3.682  0.9886  0.4839 -0.1858
   14TAL    C6831755   6.841   4.271   3.533 -0.2255 -0.1048  0.3186
   14TAL    C6931756   6.953   4.342   3.453 -0.1781 -1.2169  0.1914
   14TAL    C7031757   7.067   4.251   3.433  0.1391 -0.2940  0.3204
   15HTM    C7131758   6.760   4.032   4.155 -0.5617 -0.0235 -0.3338
   15HTM    C7231759   6.894   4.043   4.179 -0.4975  0.3883 -0.8346
   15HTM    C7331760   6.925   4.094   4.310 -0.1583  0.8638 -1.0934
   15HTM    C7431761   6.815   4.122   4.386  0.0359  0.8147 -0.7898
   15HTM     S831762   6.662   4.086   4.297 -0.1960  0.1588 -0.1486
   16TAL    C7531763   7.076   4.109   4.328 -0.9600  1.0671 -0.2390
   16TAL    C7631764   7.144   3.983   4.375  0.0134 -0.7026  0.6635
   16TAL    C7731765   7.155   3.880   4.258 -0.4076 -0.1500 -0.5561
   16TAL    C7831766   7.214   3.755   4.313  0.2207  1.3780 -0.2245
   16TAL    C7931767   7.174   3.648   4.203 -0.2898  0.1376  0.0287
   16TAL    C8031768   7.153   3.497   4.263 -0.4909 -0.2837 -0.8112
   17HTM    C8131769   6.805   4.177   4.524  0.3518 -0.4287  0.1804
   17HTM    C8231770   6.699   4.159   4.607  0.1669  0.0163  0.0478
   17HTM    C8331771   6.722   4.206   4.741 -0.0975  0.6468 -0.1187
   17HTM    C8431772   6.846   4.260   4.761 -0.1138  0.6824 -0.1130
   17HTM     S931773   6.944   4.256   4.609  0.2055 -0.0833  0.1045
   18TAL    C8531774   6.629   4.179   4.868 -0.6925 -1.1985  0.3422
   18TAL    C8631775   6.497   4.110   4.866  0.0305  0.4024  0.5999
   18TAL    C8731776   6.414   4.112   4.997 -0.9241  0.8280 -0.3313
   18TAL    C8831777   6.497   4.042   5.104 -0.0213 -1.0441 -0.8567
   18TAL    C8931778   6.533   3.898   5.114 -0.2095  0.7466  1.0314
   18TAL    C9031779   6.423   3.782   5.103  0.1981 -0.3062  0.4017
   19HTM    C9131780   6.892   4.326   4.879  0.1028 -0.0691 -0.1451
   19HTM    C9231781   6.934   4.287   5.002  0.5469 -0.1760 -0.3260
   19HTM    C9331782   6.986   4.395   5.082  0.9801 -0.2719 -0.4729
   19HTM    C9431783   6.983   4.516   5.020  0.8663 -0.2385 -0.4041
   19HTM    S1031784   6.915   4.503   4.853  0.1981 -0.0817 -0.1464
   20TAL    C9531785   7.010   4.366   5.228  0.0063  0.5595 -0.8044
   20TAL    C9631786   7.134   4.426   5.291  0.1138  0.1025  0.7591
   20TAL    C9731787   7.265   4.344   5.278 -0.3219 -0.8778 -0.0701
   20TAL    C9831788   7.270   4.231   5.380 -0.2769  0.8029 -0.5979
   20TAL    C9931789   7.410   4.208   5.431 -1.3497 -0.6329  0.3241
   20TAL   C10031790   7.425   4.094   5.528 -0.5293  0.1061  0.2759
   21HTM   C10131791   7.031   4.645   5.052 -0.2674 -0.0916 -0.1607
   21HTM   C10231792   7.150   4.703   5.019 -0.4957  0.1891 -0.5095
   21HTM   C10331793   7.160   4.841   5.060 -0.7069  0.2189 -0.5540
   21HTM   C10431794   7.049   4.888   5.123 -0.6395 -0.0392 -0.2393
   21HTM    S1131795   6.922   4.761   5.137 -0.3015 -0.3421  0.1409
   22TAL   C10531796   7.304   4.902   5.056 -0.0916 -1.1532 -0.2083
   22TAL   C10631797   7.333   5.037   4.984 -0.0639  0.2453  0.7018
   22TAL   C10731798   7.268   5.044   4.850 -0.1699 -1.1800  0.6020
   22TAL   C10831799   7.258   5.190   4.790  0.1604 -0.2492  0.4481
   22TAL   C10931800   7.391   5.247   4.762  0.4180 -0.8465  0.3272
   22TAL   C11031801   7.361   5.372   4.689 -0.1771 -0.1065  1.2376
   23HTM   C11131802   7.022   5.011   5.192  0.0861  0.1437 -0.3845
   23HTM   C11231803   6.998   5.022   5.326 -0.4014 -0.0246 -0.4547
   23HTM   C11331804   6.991   5.158   5.372 -0.6784 -0.0820 -0.3265
   23HTM   C11431805   7.009   5.251   5.274 -0.4020  0.0425 -0.1582
   23HTM    S1231806   7.038   5.173   5.114  0.2344  0.2434 -0.1491
   24TAL   C11531807   6.954   5.201   5.516 -0.7990 -0.6252  1.3049
   24TAL   C11631808   7.045   5.164   5.631  0.3622  0.1611 -0.1667
   24TAL   C11731809   7.001   5.251   5.755 -1.5833 -0.3476  0.5357
   24TAL   C11831810   7.078   5.197   5.877 -0.7209  1.2824 -0.0312
   24TAL   C11931811   6.984   5.196   5.998  0.6322  0.1714 -0.0627
   24TAL   C12031812   7.042   5.188   6.137 -0.3048 -0.0125  0.0012
   25HTM   C12131813   7.035   5.394   5.290 -0.0817  0.0575  0.5454
   25HTM   C12231814   7.050   5.481   5.186  1.1466 -0.2644  0.4233
   25HTM   C12331815   7.069   5.618   5.227  1.7831 -0.2898  0.2247
   25HTM   C12431816   7.069   5.635   5.362  1.0404  0.0128  0.1953
   25HTM    S1331817   7.044   5.479   5.449 -0.5328  0.3559  0.4182
   26TAL   C12531818   7.074   5.719   5.109 -0.8746 -0.9438  0.4839
   26TAL   C12631819   7.191   5.811   5.132 -1.0965 -0.9180  0.7644
   26TAL   C12731820   7.218   5.934   5.034 -0.5249  0.1200 -0.5089
   26TAL   C12831821   7.198   5.913   4.877 -0.9074  0.1662 -0.4736
   26TAL   C12931822   7.227   6.046   4.818 -1.3195  0.0688 -0.2275
   26TAL   C13031823   7.309   6.049   4.689  0.0691  0.1869  0.0922
   27HTM   C13131824   7.080   5.759   5.448 -0.1036  0.6531  0.3354
   27HTM   C13231825   6.987   5.850   5.488  0.0083  0.7606  0.3549
   27HTM   C13331826   7.037   5.947   5.583  0.1489  0.7288  0.3138
   27HTM   C13431827   7.168   5.929   5.615  0.1441  0.5973  0.2630
   27HTM    S1431828   7.240   5.789   5.527 -0.0396  0.5023  0.2633
   28TAL   C13531829   6.944   6.058   5.621  0.1697 -0.1446  0.2488
   28TAL   C13631830   6.963   6.176   5.721  1.2424 -0.2706  0.6761
   28TAL   C13731831   6.968   6.158   5.878 -0.4369 -1.0557  1.6074
   28TAL   C13831832   6.990   6.287   5.962 -0.1865 -0.8299  0.5756
   28TAL   C13931833   7.022   6.252   6.107  0.2912 -0.1535 -0.4171
   28TAL   C14031834   7.167   6.217   6.148  0.9309 -0.2523  0.2934
   29HTM   C14131835   7.253   5.994   5.707 -0.7901  0.5663  0.4176
   29HTM   C14231836   7.327   5.914   5.789 -1.0469  0.4115  0.5010
   29HTM   C14331837   7.436   5.983   5.853 -0.5927  0.0440  0.1377
   29HTM   C14431838   7.445   6.115   5.820  0.0104 -0.0815 -0.2230
   29HTM    S1531839   7.316   6.163   5.704  0.0517  0.2575 -0.1308
   30TAL   C14531840   7.527   5.880   5.918  0.3896  0.5667  0.6309
   30TAL   C14631841   7.675   5.929   5.953  0.0368 -0.0970  0.2251
   30TAL   C14731842   7.776   5.965   5.843 -1.2733 -0.0860  0.3603
   30TAL   C14831843   7.897   6.037   5.909 -0.5778 -0.4732  0.5888
   30TAL   C14931844   8.027   6.084   5.821  0.0750  0.3687  0.0458
   30TAL   C15031845   8.003   6.211   5.744  0.0053 -1.1448 -0.7744
   31HTM   C15131846   7.515   6.227   5.869 -0.3335 -0.0392 -0.3570
   31HTM   C15231847   7.596   6.314   5.802 -0.3058 -0.1732 -0.5000
   31HTM   C15331848   7.658   6.413   5.887 -0.0337 -0.2422 -0.6156
   31HTM   C15431849   7.624   6.401   6.019  0.1458 -0.1607 -0.5608
   31HTM    S1631850   7.510   6.263   6.045 -0.0156  0.0107 -0.3574
   32TAL   C15531851   7.761   6.517   5.834  0.8552  0.1649  0.1624
   32TAL   C15631852   7.740   6.670   5.875 -0.6334  0.4245 -0.4633
   32TAL   C15731853   7.753   6.773   5.756 -0.4635  0.5408 -0.5383
   32TAL   C15831854   7.711   6.911   5.804 -0.8375  0.2628 -0.3239
   32TAL   C15931855   7.826   6.982   5.887  0.4374  0.0503  0.5876
   32TAL   C16031856   7.776   7.116   5.920 -0.2081 -0.4543 -0.1108
   33HTM   C16131857   7.667   6.462   6.144 -0.6557 -0.2695  0.2316
   33HTM   C16231858   7.668   6.594   6.178 -1.0980 -0.1721 -0.1078
   33HTM   C16331859   7.692   6.618   6.318 -0.9495  0.2761 -0.2046
   33HTM   C16431860   7.709   6.503   6.390 -0.3939  0.5204  0.0609
   33HTM    S1731861   7.696   6.356   6.287 -0.0123  0.2011  0.4568
   34TAL   C16531862   7.724   6.766   6.373  0.1082  1.1419  0.0850
   34TAL   C16631863   7.862   6.812   6.336  0.3223  0.2429 -0.6232
   34TAL   C16731864   7.889   6.945   6.375 -1.9160 -0.3906  1.3700
   34TAL   C16831865   8.016   7.002   6.300 -0.4814 -0.7146  0.4018
   34TAL   C16931866   8.013   7.155   6.269  0.5796  0.1442 -0.9168
   34TAL   C17031867   8.127   7.241   6.316 -0.4474 -0.5883  1.6143
   35HTM   C17131868   7.741   6.488   6.537  0.4786 -0.1668  0.1795
   35HTM   C17231869   7.661   6.421   6.625  0.3350 -0.0991  0.1009
   35HTM   C17331870   7.716   6.412   6.758  0.1070  0.0255  0.2043
   35HTM   C17431871   7.838   6.472   6.771  0.0768  0.0526  0.3616
   35HTM    S1831872   7.893   6.545   6.615  0.3359 -0.0779  0.3917
   36TAL   C17531873   7.636   6.339   6.866 -0.2233  0.6268  0.4041
   36TAL   C17631874   7.626   6.186   6.829  0.9246  0.0130  0.2949
   36TAL   C17731875   7.764   6.118   6.824 -0.9438  1.0043 -0.3099
   36TAL   C17831876   7.768   5.977   6.782 -0.8032 -0.1991 -0.1595
   36TAL   C17931877   7.912   5.909   6.777 -0.1261 -0.2445  0.4527
   36TAL   C18031878   8.009   5.908   6.897 -0.5978 -0.1875  0.7703
   37HTM   C18131879   7.932   6.478   6.883 -0.6420  0.0950 -0.0054
   37HTM   C18231880   8.050   6.547   6.877 -0.7937  0.3228 -0.3843
   37HTM   C18331881   8.134   6.528   6.991 -0.4182  0.5460 -0.6208
   37HTM   C18431882   8.082   6.445   7.085  0.0197  0.4882 -0.4224
   37HTM    S1931883   7.920   6.383   7.036 -0.0080  0.1450  0.0827
   38TAL   C18531884   8.278   6.581   6.997  0.5656  0.0227 -0.6012
   38TAL   C18631885   8.304   6.720   6.939 -0.4088 -0.3206 -1.1153
   38TAL   C18731886   8.403   6.822   7.003  0.3610  0.5345  0.7843
   38TAL   C18831887   8.397   6.889   7.129  0.0256 -0.6717 -0.5114
   38TAL   C18931888   8.366   7.039   7.115 -0.7771  0.1446  0.8132
   38TAL   C19031889   8.486   7.117   7.160 -0.6453  0.2984 -0.3088
   39HTM   C19131890   8.152   6.375   7.198  0.6643 -0.1203 -0.1871
   39HTM   C19231891   8.163   6.245   7.239  1.1883 -0.2857 -0.8171
   39HTM   C19331892   8.249   6.228   7.353  1.2853 -0.5044 -0.9212
   39HTM   C19431893   8.303   6.344   7.400  0.8352 -0.5060 -0.3708
   39HTM    S2031894   8.249   6.486   7.301  0.2495 -0.2289  0.3274
   40TAL   C19531895   8.252   6.093   7.428 -0.2039 -0.3079 -0.1155
   40TAL   C19631896   8.155   6.082   7.544  0.5935 -0.0423 -0.4142
   40TAL   C19731897   7.999   6.083   7.532  0.4474 -0.2929 -0.9246
   40TAL   C19831898   7.903   6.110   7.654  0.0697  0.6041  0.8203
   40TAL   C19931899   7.758   6.104   7.595 -0.6072 -0.3792 -1.4183
   40TAL   C20031900   7.658   6.117   7.716 -0.6258 -0.4831 -0.5586
   41HTM   C20131901   8.397   6.373   7.503  0.4412 -0.2724 -0.1815
   41HTM   C20231902   8.363   6.463   7.600  0.4027 -0.6243  0.1409
   41HTM   C20331903   8.450   6.460   7.715  0.7017 -0.6645 -0.0829
   41HTM   C20431904   8.549   6.367   7.706  0.9682 -0.3431 -0.5759
   41HTM    S2131905   8.541   6.276   7.551  0.8615  0.0380 -0.7973
   42TAL   C20531906   8.417   6.553   7.835  0.3384  0.2292  0.7355
   42TAL   C20631907   8.332   6.685   7.814 -1.0329 -0.0793  1.9781
   42TAL   C20731908   8.182   6.698   7.818 -0.4686  1.0428  0.7612
   42TAL   C20831909   8.134   6.832   7.774 -0.0144  0.2883  1.5029
   42TAL   C20931910   8.004   6.846   7.701 -0.1143 -0.6577  0.9398
   42TAL   C21031911   8.041   6.849   7.550 -0.1637  0.7536  1.1131
   43HTM   C21131912   8.647   6.324   7.806  0.1775 -0.0890 -0.2401
   43HTM   C21231913   8.742   6.399   7.869 -0.2348  0.1699  0.0889
   43HTM   C21331914   8.828   6.323   7.955 -0.3793  0.4184  0.4578
   43HTM   C21431915   8.799   6.190   7.958 -0.0770  0.3492  0.4101
   43HTM    S2231916   8.659   6.150   7.852  0.4175 -0.0384 -0.1082
   44TAL   C21531917   8.959   6.399   7.986 -0.1093  0.4917 -0.2310
   44TAL   C21631918   8.970   6.495   8.107  0.5098  0.8479 -0.4432
   44TAL   C21731919   9.067   6.616   8.086 -0.1486  0.5201 -0.2045
   44TAL   C21831920   9.050   6.694   7.952 -0.3678  0.7305 -0.2313
   44TAL   C21931921   8.958   6.801   8.012  0.5234 -0.7477  0.4186
   44TAL   C22031922   8.932   6.909   7.912 -0.5666  0.6232 -0.0570
   45HTM   C22131923   8.874   6.085   8.028 -0.2213 -0.0871  0.1097
   45HTM   C22231924   8.929   5.974   7.970 -0.2840 -0.0665  0.0111
   45HTM   C22331925   9.006   5.893   8.061 -0.0002  0.0191 -0.1507
   45HTM   C22431926   9.010   5.942   8.188  0.2788  0.0640 -0.1754
   45HTM    S2331927   8.916   6.095   8.203  0.2044  0.0009  0.0052
   46TAL   C22531928   9.057   5.754   8.009  0.1571 -0.8128 -1.0018
   46TAL   C22631929   8.962   5.639   8.018 -0.3132  0.5947  0.3159
   46TAL   C22731930   8.947   5.562   8.156 -0.8028 -0.0886 -0.0127
   46TAL   C22831931   8.846   5.441   8.159 -0.7243 -0.0329  0.3954
   46TAL   C22931932   8.868   5.339   8.040  1.0688 -0.1020 -0.8726
   46TAL   C23031933   8.754   5.235   8.038  0.1380  0.1673  0.7966
   47HTM   C23131934   9.081   5.896   8.306  0.4368  0.8077  0.0269
   47HTM   C23231935   9.199   5.830   8.321  0.8936  1.6544  0.3333
   47HTM   C23331936   9.226   5.790   8.457  0.6411  1.5231  0.3457
   47HTM   C23431937   9.129   5.826   8.545 -0.0082  0.5764  0.0497
   47HTM    S2431938   8.994   5.914   8.463 -0.3537 -0.2293 -0.2711
   48TAL   C23531939   9.342   5.718   8.508 -0.2560 -1.5451 -0.4121
   48TAL   C23631940   9.480   5.773   8.483  0.2314 -0.9281  0.0378
   48TAL   C23731941   9.584   5.686   8.538  0.6011  0.7074  0.8208
   48TAL   C23831942   9.724   5.717   8.490  0.9363 -0.9836 -0.1402
   48TAL   C23931943   9.823   5.604   8.490 -0.4320 -1.1383  0.7564
   48TAL   C24031944   9.813   5.517   8.362 -0.4795  0.0588 -0.0237
    1HTM     C131945   5.748   4.975   2.354  0.0525 -0.8052 -0.0354
    1HTM     C231946   5.645   4.964   2.265  0.1485 -1.1188 -0.1099
    1HTM     C331947   5.682   4.897   2.143  0.5486 -0.6644 -0.2456
    1HTM     C431948   5.812   4.857   2.138  0.7575 -0.0043 -0.2745
    1HTM     S131949   5.900   4.901   2.290  0.4628  0.0951 -0.1316
    2TAL     C531950   5.584   4.907   2.027  0.7680  0.0567  0.0154
    2TAL     C631951   5.437   4.869   2.054  0.3692  1.2047 -0.6450
    2TAL     C731952   5.352   4.907   1.931  0.4560  0.1401  0.1028
    2TAL     C831953   5.209   4.850   1.947 -1.4505 -0.7558  0.5627
    2TAL     C931954   5.121   4.877   1.814 -0.6687  0.3197  0.5383
    2TAL    C1031955   5.090   5.007   1.745 -0.6161 -0.2745  1.0421
    3HTM    C1131956   5.871   4.786   2.032 -0.8117 -0.3411  0.0039
    3HTM    C1231957   6.001   4.809   1.998 -0.3353 -0.8575  1.3734
    3HTM    C1331958   6.047   4.731   1.886  0.4529 -0.8130  1.6508
    3HTM    C1431959   5.951   4.649   1.834  0.5774 -0.2628  0.4929
    3HTM     S231960   5.795   4.663   1.923 -0.2978  0.2461 -1.0498
    4TAL    C1531961   6.190   4.741   1.818  0.2308  0.3433  0.2894
    4TAL    C1631962   6.309   4.672   1.885 -0.1767  0.3513  0.2898
    4TAL    C1731963   6.446   4.719   1.821 -0.4243 -0.5291  0.1891
    4TAL    C1831964   6.468   4.866   1.795 -0.0416 -0.7683 -0.1879
    4TAL    C1931965   6.479   4.978   1.894 -0.3463 -0.7048  0.0807
    4TAL    C2031966   6.366   5.018   1.986 -0.4220 -0.6135 -0.7075
    5HTM    C2131967   5.955   4.547   1.724 -0.8409  0.3759 -0.2886
    5HTM    C2231968   5.870   4.441   1.717 -1.5131  0.9160 -0.4827
    5HTM    C2331969   5.875   4.371   1.591 -1.4791  0.7287 -0.3776
    5HTM    C2431970   5.964   4.423   1.502 -0.7808  0.0459 -0.1033
    5HTM     S331971   6.049   4.566   1.571 -0.1069 -0.4173  0.0446
    6TAL    C2531972   5.794   4.254   1.565 -0.4094  0.0400 -0.8462
    6TAL    C2631973   5.644   4.251   1.559  0.4267  0.9392  0.3508
    6TAL    C2731974   5.596   4.117   1.520  0.1546  0.1515 -0.1190
    6TAL    C2831975   5.641   4.072   1.379  0.0641  0.6059 -0.4392
    6TAL    C2931976   5.543   3.964   1.318  0.3987 -1.1237 -0.2788
    6TAL    C3031977   5.526   3.957   1.164 -0.0839  0.4327  0.6470
    7HTM    C3131978   6.011   4.363   1.383 -0.1325 -0.7895  0.1889
    7HTM    C3231979   6.107   4.270   1.355  0.0201 -0.5246 -0.1867
    7HTM    C3331980   6.124   4.245   1.214  0.0502  0.0546 -0.2921
    7HTM    C3431981   6.042   4.318   1.135 -0.0794  0.2313  0.0032
    7HTM     S431982   5.935   4.426   1.232 -0.2511 -0.3243  0.4407
    8TAL    C3531983   6.229   4.148   1.170 -0.2222  0.0562 -0.3462
    8TAL    C3631984   6.175   4.003   1.146  1.2000 -0.3060 -0.0061
    8TAL    C3731985   6.196   3.910   1.274  0.0403  0.1340  0.7955
    8TAL    C3831986   6.099   3.799   1.323  0.5844 -0.4299  0.8819
    8TAL    C3931987   5.971   3.862   1.347  0.6225 -0.1583 -0.8420
    8TAL    C4031988   5.899   3.800   1.468 -0.6094 -1.4305  0.0823
    9HTM    C4131989   6.021   4.315   0.992 -0.0644  0.5616 -0.6734
    9HTM    C4231990   6.090   4.377   0.893 -0.3055  0.4441 -0.9165
    9HTM    C4331991   6.030   4.363   0.763 -0.4089 -0.0502 -0.8190
    9HTM    C4431992   5.915   4.290   0.763 -0.2466 -0.3094 -0.5015
    9HTM     S531993   5.873   4.233   0.929  0.0517  0.0534 -0.2996
   10TAL    C4531994   6.100   4.403   0.636  0.1710 -0.5531 -0.5343
   10TAL    C4631995   6.045   4.505   0.546  0.5930 -0.3159 -0.0557
   10TAL    C4731996   6.054   4.638   0.601 -0.0949 -1.2764 -0.0117
   10TAL    C4831997   5.952   4.735   0.538 -0.3556 -0.1283  0.7095
   10TAL    C4931998   5.917   4.859   0.608  0.2286 -0.6744 -0.1600
   10TAL    C5031999   6.023   4.964   0.638  0.2758 -0.2094 -0.5982
   11HTM    C5132000   5.810   4.269   0.669 -0.0009 -0.8255 -0.2704
   11HTM    C5232001   5.812   4.227   0.539 -0.0665 -1.0686 -0.1947
   11HTM    C5332002   5.686   4.244   0.471  0.0625 -0.6382 -0.3338
   11HTM    C5432003   5.588   4.298   0.549  0.2265 -0.0670 -0.5157
   11HTM     S632004   5.648   4.333   0.716  0.2310 -0.0278 -0.5253
   12TAL    C5532005   5.669   4.221   0.323  0.3716 -0.0524 -0.1751
   12TAL    C5632006   5.745   4.308   0.230  0.8214  0.8647  0.2238
   12TAL    C5732007   5.884   4.259   0.189  0.3379  0.1065  0.5314
   12TAL    C5832008   5.876   4.126   0.106  0.2294  0.1731  0.3162
   12TAL    C5932009   6.004   4.095   0.028 -0.5715  0.3851 -0.6925
   12TAL    C6032010   6.145   4.108   0.099  0.3136  0.3500 -0.8015
   13HTM    C6132011   5.454   4.323   0.541  0.3339  0.6889 -0.3534
   13HTM    C6232012   5.371   4.413   0.602  0.2995  0.9779 -0.8180
   13HTM    C6332013   5.231   4.386   0.581  0.3009  0.5672 -0.3432
   13HTM    C6432014   5.207   4.276   0.504  0.3364 -0.0347  0.4835
   13HTM     S732015   5.361   4.197   0.452  0.3707 -0.1305  0.7283
   14TAL    C6532016   5.120   4.468   0.625  0.0525 -0.1462 -0.5814
   14TAL    C6632017   5.121   4.489   0.774 -0.4938 -0.0371 -0.4340
   14TAL    C6732018   4.999   4.563   0.836 -0.2240  0.9835 -0.1185
   14TAL    C6832019   4.851   4.517   0.818  0.2837 -0.2476 -0.0913
   14TAL    C6932020   4.737   4.614   0.853  0.4831  0.0438 -0.0424
   14TAL    C7032021   4.606   4.546   0.892  0.1383  0.6496  0.0704
   15HTM    C7132022   5.083   4.210   0.464  0.1892 -0.2508  0.2834
   15HTM    C7232023   4.968   4.275   0.428  0.4289 -0.0228 -0.0834
   15HTM    C7332024   4.871   4.191   0.364  0.4489  0.1611 -0.3557
   15HTM    C7432025   4.911   4.062   0.350  0.2243  0.0733 -0.1964
   15HTM     S832026   5.076   4.035   0.418 -0.0321 -0.2508  0.3136
   16TAL    C7532027   4.748   4.249   0.302  0.3606 -0.8159 -0.1178
   16TAL    C7632028   4.767   4.374   0.210 -0.4365 -0.5646 -1.0269
   16TAL    C7732029   4.683   4.383   0.084 -0.3303  1.2434  0.5170
   16TAL    C7832030   4.625   4.255   0.009 -0.6336  0.2650  0.1016
   16TAL    C7932031   4.701   4.215  -0.120  0.7266  0.2618 -0.1772
   16TAL    C8032032   4.617   4.107  -0.183  0.6884  0.4922 -0.0234
   17HTM    C8132033   4.842   3.946   0.291 -0.0122 -0.1031  0.0463
   17HTM    C8232034   4.901   3.828   0.255  0.0670  0.0721 -0.4182
   17HTM    C8332035   4.807   3.723   0.228  0.1355  0.1308 -0.9046
   17HTM    C8432036   4.676   3.760   0.243  0.1085  0.0005 -0.8110
   17HTM     S932037   4.662   3.933   0.293 -0.0063 -0.2083 -0.0957
   18TAL    C8532038   4.861   3.584   0.195  0.2916  0.3533  0.4990
   18TAL    C8632039   4.842   3.463   0.289  0.4205  0.1971  0.1012
   18TAL    C8732040   4.835   3.493   0.440 -1.0627 -0.3489  0.2020
   18TAL    C8832041   4.790   3.396   0.559 -1.2308 -0.1392 -0.2441
   18TAL    C8932042   4.840   3.253   0.568 -0.5122  0.2099  0.3215
   18TAL    C9032043   4.784   3.177   0.686 -0.5187  0.1878  0.1251
   19HTM    C9132044   4.553   3.697   0.210  0.1350 -0.1716  1.0418
   19HTM    C9232045   4.519   3.565   0.221  0.0433 -0.2071  0.4262
   19HTM    C9332046   4.386   3.535   0.177  0.3214 -0.0683 -0.5476
   19HTM    C9432047   4.317   3.644   0.131  0.6253  0.0729 -0.6745
   19HTM    S1032048   4.417   3.794   0.142  0.5836  0.0414  0.4346
   20TAL    C9532049   4.322   3.390   0.170  0.4654 -0.9482  0.7049
   20TAL    C9632050   4.319   3.288   0.272 -0.1562  1.0310  0.0335
   20TAL    C9732051   4.282   3.331   0.419  1.1951  0.0068  0.4060
   20TAL    C9832052   4.127   3.357   0.425  0.7724  0.3657  1.0660
   20TAL    C9932053   4.102   3.470   0.530  1.6573 -0.0191  1.6962
   20TAL   C10032054   4.032   3.445   0.659  1.0896  1.0008  0.0707
   21HTM   C10132055   4.186   3.648   0.070  0.4787 -0.6132 -0.3319
   21HTM   C10232056   4.071   3.586   0.110  0.5529 -0.7795 -0.3751
   21HTM   C10332057   3.957   3.616   0.026  0.3948 -0.4243 -0.0414
   21HTM   C10432058   3.986   3.700  -0.077  0.2005  0.0129  0.2563
   21HTM    S1132059   4.159   3.749  -0.077  0.2017  0.0098  0.1374
   22TAL   C10532060   3.825   3.547   0.060 -0.4404  0.5950 -0.2510
   22TAL   C10632061   3.822   3.396   0.088 -0.8450  0.7244  0.3940
   22TAL   C10732062   3.682   3.339   0.112  0.0787  0.0412  0.2802
   22TAL   C10832063   3.643   3.190   0.068 -0.9462 -1.1209 -0.2710
   22TAL   C10932064   3.630   3.180  -0.079  0.1633  0.3074  0.1407
   22TAL   C11032065   3.505   3.243  -0.144  0.9457 -0.4739  0.8536
   23HTM   C11132066   3.900   3.747  -0.180  0.4241  0.2863 -0.1595
   23HTM   C11232067   3.769   3.711  -0.198  0.3355  0.5201  0.0103
   23HTM   C11332068   3.706   3.776  -0.309  0.2612  0.7496  0.1853
   23HTM   C11432069   3.787   3.862  -0.377  0.2934  0.6908  0.1494
   23HTM    S1232070   3.952   3.867  -0.304  0.4209  0.3382 -0.1103
   24TAL   C11532071   3.560   3.756  -0.348  1.1166 -0.7275 -0.5064
   24TAL   C11632072   3.516   3.610  -0.384  0.6278 -0.4231  0.7636
   24TAL   C11732073   3.366   3.612  -0.415  0.4471 -0.2121  0.1082
   24TAL   C11832074   3.318   3.593  -0.558  0.2442  0.1304  0.0140
   24TAL   C11932075   3.360   3.461  -0.627  0.0598  0.7628  0.3957
   24TAL   C12032076   3.259   3.348  -0.603  0.5375  0.7096  0.2439
   25HTM   C12132077   3.762   3.930  -0.505 -0.3601 -0.7679  0.0793
   25HTM   C12232078   3.834   3.913  -0.619 -0.5252 -1.1731  0.0327
   25HTM   C12332079   3.782   3.985  -0.732 -0.1659 -0.8368  0.0784
   25HTM   C12432080   3.670   4.058  -0.703  0.2731 -0.1751  0.1599
   25HTM    S1332081   3.622   4.040  -0.530  0.2667  0.0763  0.1853
   26TAL   C12532082   3.855   3.987  -0.868 -0.2500 -0.8500  0.1790
   26TAL   C12632083   4.008   3.994  -0.858 -0.0184 -0.1155  0.1510
   26TAL   C12732084   4.065   4.129  -0.885  0.5473 -0.3918 -0.1278
   26TAL   C12832085   4.132   4.133  -1.023 -0.5017 -1.2526  0.1940
   26TAL   C12932086   4.200   4.270  -1.038 -0.2383  0.0470 -0.4877
   26TAL   C13032087   4.335   4.251  -1.094  0.1118 -0.3934 -0.0503
   27HTM   C13132088   3.591   4.151  -0.784  0.8296  0.0235 -0.3522
   27HTM   C13232089   3.549   4.129  -0.912  0.6251 -0.2838 -0.2360
   27HTM   C13332090   3.460   4.231  -0.962  0.3058 -0.5599 -0.2372
   27HTM   C13432091   3.434   4.330  -0.872  0.2668 -0.4631 -0.3543
   27HTM    S1432092   3.521   4.302  -0.716  0.6333 -0.0122 -0.4729
   28TAL   C13532093   3.406   4.216  -1.102 -0.0677  0.8719  0.4557
   28TAL   C13632094   3.492   4.252  -1.217  0.1522  0.8544  0.4275
   28TAL   C13732095   3.533   4.402  -1.233 -0.7658  0.0197 -0.5253
   28TAL   C13832096   3.490   4.447  -1.365 -0.0830  0.3088  0.7428
   28TAL   C13932097   3.522   4.588  -1.410  0.2605  0.5258 -0.9553
   28TAL   C14032098   3.548   4.597  -1.552 -0.4749 -0.4913 -0.1709
   29HTM   C14132099   3.330   4.435  -0.880  0.2994 -0.2278 -0.5822
   29HTM   C14232100   3.336   4.553  -0.812  0.4381 -0.4648 -0.1721
   29HTM   C14332101   3.239   4.650  -0.857  0.1067 -0.4263  0.6101
   29HTM   C14432102   3.159   4.606  -0.958 -0.2845 -0.1597  0.7967
   29HTM    S1532103   3.201   4.437  -1.006 -0.2647  0.0651 -0.0076
   30TAL   C14532104   3.240   4.798  -0.819 -0.5668 -0.5395 -0.2822
   30TAL   C14632105   3.330   4.832  -0.704 -0.0729 -0.3072  0.3892
   30TAL   C14732106   3.390   4.974  -0.686 -0.4993  0.5318 -0.2704
   30TAL   C14832107   3.481   5.045  -0.805 -0.0974 -0.2403 -0.6071
   30TAL   C14932108   3.560   5.164  -0.757 -0.6216 -0.2725 -0.2018
   30TAL   C15032109   3.684   5.154  -0.831 -0.2978 -0.4405 -0.0349
   31HTM   C15132110   3.038   4.663  -1.014  0.2489  0.3971  0.0048
   31HTM   C15232111   2.995   4.679  -1.142  0.3273  0.7629  0.0238
   31HTM   C15332112   2.870   4.750  -1.153  0.1920  0.5474  0.1678
   31HTM   C15432113   2.818   4.787  -1.032  0.0104  0.0169  0.2587
   31HTM    S1632114   2.923   4.735  -0.896 -0.0038 -0.2532  0.1688
   32TAL   C15532115   2.792   4.780  -1.277 -0.5249 -1.1279  0.0413
   32TAL   C15632116   2.838   4.757  -1.421  0.1646  0.4153 -0.2127
   32TAL   C15732117   2.710   4.747  -1.502  1.2296 -0.3772 -0.3476
   32TAL   C15832118   2.710   4.655  -1.626  0.0347 -0.4421  0.6485
   32TAL   C15932119   2.591   4.661  -1.714  0.1532  0.1740 -0.3807
   32TAL   C16032120   2.498   4.554  -1.671  0.1651  0.3635 -0.4463
   33HTM   C16132121   2.679   4.830  -1.007 -0.4152 -0.4088  0.1294
   33HTM   C16232122   2.560   4.764  -0.999 -0.5540 -0.2651 -0.6232
   33HTM   C16332123   2.446   4.852  -0.989 -0.5098 -0.1311 -1.1847
   33HTM   C16432124   2.479   4.985  -0.988 -0.3373 -0.1728 -0.8604
   33HTM    S1732125   2.657   5.009  -1.002 -0.2164 -0.3860  0.1877
   34TAL   C16532126   2.302   4.799  -0.991  0.1210  0.5765  0.6330
   34TAL   C16632127   2.204   4.791  -0.875 -0.2822 -0.0908  0.3814
   34TAL   C16732128   2.226   4.845  -0.732 -0.5896 -0.3855  0.0394
   34TAL   C16832129   2.106   4.887  -0.647 -0.5139  0.4543 -0.5359
   34TAL   C16932130   2.053   4.790  -0.552  0.5176 -0.4311 -0.2928
   34TAL   C17032131   2.082   4.821  -0.403  0.1953  0.5677  1.0917
   35HTM   C17132132   2.394   5.102  -1.003  0.0030 -0.5808  0.0205
   35HTM   C17232133   2.442   5.230  -0.993  0.3479 -0.6238 -0.8264
   35HTM   C17332134   2.340   5.331  -1.007  0.5506 -0.4532 -1.0812
   35HTM   C17432135   2.215   5.280  -1.028  0.3602 -0.2800 -0.4289
   35HTM    S1832136   2.216   5.100  -1.033 -0.0935 -0.3196  0.5660
   36TAL   C17532137   2.382   5.480  -0.982  0.2808  0.0997  0.4007
   36TAL   C17632138   2.340   5.541  -0.852 -1.0210 -0.1750 -0.5456
   36TAL   C17732139   2.409   5.460  -0.738 -0.8505 -0.6279 -0.2609
   36TAL   C17832140   2.352   5.470  -0.592  0.3543 -0.3548  0.1042
   36TAL   C17932141   2.396   5.379  -0.492 -0.1741  0.6156  0.3467
   36TAL   C18032142   2.400   5.226  -0.542 -0.4459  0.0098  0.4954
   37HTM   C18132143   2.094   5.344  -1.062  0.0554 -0.7382  0.2929
   37HTM   C18232144   2.006   5.410  -0.981 -0.0440 -1.7570  1.0540
   37HTM   C18332145   1.876   5.429  -1.039 -0.1085 -1.3953  1.3046
   37HTM   C18432146   1.865   5.377  -1.165 -0.0581 -0.1008  0.7350
   37HTM    S1932147   2.019   5.300  -1.219  0.0757  0.7685 -0.1696
   38TAL   C18532148   1.766   5.521  -0.983 -0.3052  0.3860 -0.4197
   38TAL   C18632149   1.812   5.664  -0.966  0.3732  0.1238 -0.1507
   38TAL   C18732150   1.775   5.745  -0.838  0.4348 -0.3164 -1.1430
   38TAL   C18832151   1.775   5.683  -0.698 -0.1583  0.3591  0.0140
   38TAL   C18932152   1.891   5.614  -0.630 -0.8554 -0.4752  0.4058
   38TAL   C19032153   1.875   5.514  -0.518  0.3647 -0.1949 -0.5011
   39HTM   C19132154   1.740   5.350  -1.246 -0.0738 -0.6895 -0.5642
   39HTM   C19232155   1.733   5.264  -1.352 -0.4407 -0.1588 -0.9816
   39HTM   C19332156   1.605   5.265  -1.418 -0.5512  0.4594 -0.7794
   39HTM   C19432157   1.515   5.351  -1.363 -0.2687  0.3998 -0.2087
   39HTM    S2032158   1.585   5.438  -1.222  0.1623 -0.4481  0.1214
   40TAL   C19532159   1.584   5.196  -1.551  1.2516 -0.2463  0.5020
   40TAL   C19632160   1.606   5.050  -1.575 -1.0745  0.2509 -0.2403
   40TAL   C19732161   1.511   5.013  -1.684 -0.4456 -0.6491  0.4055
   40TAL   C19832162   1.481   4.870  -1.709 -0.7708  0.4279  0.7435
   40TAL   C19932163   1.428   4.817  -1.838 -0.5878 -0.3885  0.1730
   40TAL   C20032164   1.348   4.691  -1.826  0.0745  0.7240 -0.0069
   41HTM   C20132165   1.373   5.362  -1.369  0.2054 -0.1619 -0.2761
   41HTM   C20232166   1.283   5.319  -1.275  0.3963 -0.3011 -0.1557
   41HTM   C20332167   1.147   5.319  -1.321  0.3307 -0.4841  0.0365
   41HTM   C20432168   1.132   5.361  -1.450  0.0898 -0.4844  0.0629
   41HTM    S2132169   1.291   5.405  -1.524 -0.0742 -0.2519 -0.1548
   42TAL   C20532170   1.031   5.281  -1.221 -0.6680 -0.8112  0.5104
   42TAL   C20632171   0.962   5.148  -1.214  0.3903  0.6528 -0.2798
   42TAL   C20732172   1.056   5.028  -1.183 -0.8115  0.2730  0.4677
   42TAL   C20832173   1.090   5.016  -1.045 -0.4395  0.3878  0.4373
   42TAL   C20932174   1.238   5.029  -1.032 -0.3217 -0.2665 -0.3644
   42TAL   C21032175   1.309   4.911  -0.971  0.1121  0.8446 -0.0107
   43HTM   C21132176   1.013   5.364  -1.536 -0.1832 -0.3172  0.3427
   43HTM   C21232177   0.903   5.444  -1.522 -0.3981 -0.6438  0.5469
   43HTM   C21332178   0.811   5.434  -1.632 -0.2985 -0.5001  0.4504
   43HTM   C21432179   0.850   5.348  -1.730 -0.0075 -0.0638  0.1721
   43HTM    S2232180   1.008   5.270  -1.690  0.1644  0.2013  0.0097
   44TAL   C21532181   0.682   5.510  -1.630 -0.0732 -0.3261 -1.1553
   44TAL   C21632182   0.660   5.615  -1.515 -0.3693 -0.2966 -0.3416
   44TAL   C21732183   0.517   5.655  -1.503  0.5101  0.2400 -0.9281
   44TAL   C21832184   0.493   5.782  -1.427 -0.1352 -0.4981 -0.1544
   44TAL   C21932185   0.348   5.805  -1.401 -0.3863  0.5252  0.0990
   44TAL   C22032186   0.330   5.954  -1.426  0.3589  0.0622  0.2636
   45HTM   C22132187   0.785   5.323  -1.858  0.5482 -0.6111  0.2418
   45HTM   C22232188   0.661   5.272  -1.880  0.3913 -0.3085  0.4083
   45HTM   C22332189   0.630   5.252  -2.019  0.0041  0.1293  0.4256
   45HTM   C22432190   0.731   5.288  -2.103 -0.1343  0.1605  0.2724
   45HTM    S2332191   0.874   5.350  -2.013  0.2165 -0.3647  0.0928
   46TAL   C22532192   0.505   5.171  -2.041  0.4294  0.3754  0.3962
   46TAL   C22632193   0.386   5.255  -2.056  0.9999 -0.3560 -0.6126
   46TAL   C22732194   0.284   5.173  -2.140 -0.3840  0.1968  0.6295
   46TAL   C22832195   0.149   5.245  -2.141 -0.7829 -0.6857 -1.2007
   46TAL   C22932196   0.026   5.169  -2.205  0.5588 -0.5926  0.1288
   46TAL   C23032197   0.018   5.122  -2.353 -0.2156 -0.3488 -0.1497
   47HTM   C23132198   0.747   5.265  -2.247  0.1389  0.5063 -0.3225
   47HTM   C23232199   0.855   5.306  -2.319  0.3129 -0.0445 -0.3889
   47HTM   C23332200   0.855   5.262  -2.456  0.2779 -0.4901 -0.2482
   47HTM   C23432201   0.746   5.187  -2.489  0.0773 -0.2791 -0.0747
   47HTM    S2432202   0.635   5.166  -2.348 -0.0842  0.5050 -0.0752
   48TAL   C23532203   0.951   5.287  -2.566 -0.0878 -0.2524  0.3572
   48TAL   C23632204   1.096   5.307  -2.525  0.1835 -0.5018  0.4775
   48TAL   C23732205   1.184   5.387  -2.624  0.0722  0.0498  0.5443
   48TAL   C23832206   1.329   5.396  -2.591 -0.2727  0.2661 -0.0083
   48TAL   C23932207   1.398   5.492  -2.683 -1.2207  0.2930  1.3172
   48TAL   C24032208   1.553   5.498  -2.666  0.4154 -0.3835 -0.1239
    1HTM     C132209   4.805   4.434   5.417  0.4196  0.2429  0.6928
    1HTM     C232210   4.855   4.325   5.482  1.0225  0.9413  1.4452
    1HTM     C332211   4.809   4.313   5.618  0.3222  1.1215  1.2358
    1HTM     C432212   4.725   4.412   5.657 -0.8143  0.5607  0.3238
    1HTM     S132213   4.696   4.530   5.524 -1.0908 -0.2449 -0.3464
    2TAL     C532214   4.853   4.194   5.709  0.2071  0.7416 -0.4214
    2TAL     C632215   5.001   4.186   5.729 -0.4177  0.0435 -0.6660
    2TAL     C732216   5.060   4.301   5.809  0.2136 -0.4076 -0.4768
    2TAL     C832217   5.201   4.267   5.852  0.7218 -0.0208 -0.0342
    2TAL     C932218   5.249   4.364   5.944 -0.7269 -0.0966  0.1154
    2TAL    C1032219   5.395   4.373   5.929 -0.9884  0.5634  0.3996
    3HTM    C1132220   4.647   4.433   5.772  0.2708 -0.4271  0.0657
    3HTM    C1232221   4.661   4.380   5.897 -0.1374 -0.5581  0.0618
    3HTM    C1332222   4.567   4.432   5.993 -0.1105 -0.2619 -0.0691
    3HTM    C1432223   4.481   4.524   5.941  0.3183  0.0953 -0.1650
    3HTM     S232224   4.512   4.552   5.766  0.7247  0.0850 -0.0968
    4TAL    C1532225   4.580   4.409   6.142 -0.0246  0.7547  1.0009
    4TAL    C1632226   4.634   4.260   6.167 -0.1428 -0.1464  0.1549
    4TAL    C1732227   4.661   4.221   6.311 -0.5646 -0.4016 -0.6828
    4TAL    C1832228   4.750   4.099   6.353  0.3466  0.2207  0.1256
    4TAL    C1932229   4.737   3.972   6.273  0.5278 -0.0497  0.4320
    4TAL    C2032230   4.824   3.865   6.342 -0.0539  0.4323  0.9089
    5HTM    C2132231   4.372   4.593   6.009 -0.2720  0.0172 -0.0431
    5HTM    C2232232   4.271   4.649   5.936 -0.5232 -0.5102 -0.1057
    5HTM    C2332233   4.165   4.705   6.016 -0.6735 -0.7099 -0.1643
    5HTM    C2432234   4.185   4.692   6.150 -0.5372 -0.3349 -0.1460
    5HTM     S332235   4.341   4.607   6.186 -0.2054  0.3045 -0.0531
    6TAL    C2532236   4.039   4.764   5.959 -1.2054 -0.3626 -0.7836
    6TAL    C2632237   4.019   4.754   5.819  0.6046 -0.0512  0.2402
    6TAL    C2732238   3.928   4.867   5.758 -0.2483  0.1392  0.1832
    6TAL    C2832239   3.917   5.007   5.821  0.0726 -0.2026  0.1902
    6TAL    C2932240   3.812   5.090   5.767  0.5612  0.1473 -0.0404
    6TAL    C3032241   3.811   5.241   5.814  0.0075 -0.8557 -0.1543
    7HTM    C3132242   4.121   4.752   6.267  0.0134 -0.2608  0.2307
    7HTM    C3232243   4.006   4.824   6.280 -0.2908 -0.7187  0.1345
    7HTM    C3332244   3.982   4.872   6.414 -0.5512 -0.7401  0.0972
    7HTM    C3432245   4.079   4.836   6.503 -0.4455 -0.2984  0.1648
    7HTM     S432246   4.209   4.738   6.424 -0.0054  0.1826  0.2818
    8TAL    C3532247   3.850   4.915   6.438  0.6270  0.1578 -1.2947
    8TAL    C3632248   3.829   5.041   6.524 -0.8537  0.3390 -0.3189
    8TAL    C3732249   3.693   5.094   6.524  0.9491 -0.3122  0.4575
    8TAL    C3832250   3.660   5.210   6.605  0.1036 -0.2832  0.5337
    8TAL    C3932251   3.517   5.270   6.601 -0.5884 -0.2346  0.3713
    8TAL    C4032252   3.519   5.374   6.721 -0.1264 -0.4819 -0.5376
    9HTM    C4132253   4.112   4.878   6.636 -0.0703  0.1994  0.4033
    9HTM    C4232254   4.032   4.907   6.743  0.2575 -0.1436  0.7477
    9HTM    C4332255   4.103   4.960   6.856  0.5972 -0.4352  0.6721
    9HTM    C4432256   4.238   4.971   6.836  0.5287 -0.3145  0.2699
    9HTM     S532257   4.285   4.915   6.671  0.0258  0.1808 -0.0470
   10TAL    C4532258   4.022   5.009   6.979 -0.5470 -0.5077 -0.4970
   10TAL    C4632259   3.981   4.912   7.092  0.1886  0.3795  0.2264
   10TAL    C4732260   3.874   4.808   7.047 -0.0677  0.0251  0.4585
   10TAL    C4832261   3.743   4.862   6.989 -0.5353  0.2783 -0.0495
   10TAL    C4932262   3.658   4.746   6.942  0.7895 -0.3557  0.7347
   10TAL    C5032263   3.550   4.787   6.848 -0.8484 -1.0881 -0.2092
   11HTM    C5132264   4.349   5.011   6.923  0.0359  0.0521  0.1605
   11HTM    C5232265   4.484   4.993   6.911 -0.0118 -0.6624  0.6133
   11HTM    C5332266   4.561   5.054   7.016 -0.0290 -0.9509  0.7960
   11HTM    C5432267   4.484   5.119   7.109  0.0057 -0.4566  0.4824
   11HTM     S632268   4.309   5.108   7.069  0.0632  0.4187 -0.0722
   12TAL    C5532269   4.713   5.056   6.998  1.2739 -0.5611  0.2324
   12TAL    C5632270   4.749   5.091   6.842  0.3378  0.0168 -0.7626
   12TAL    C5732271   4.893   5.144   6.805 -0.4897  0.6839 -0.2104
   12TAL    C5832272   4.899   5.287   6.805 -0.2036  0.4026 -1.3627
   12TAL    C5932273   5.025   5.358   6.755 -0.1095  0.2466 -0.6600
   12TAL    C6032274   5.021   5.509   6.749 -0.3775 -0.3838 -0.3665
   13HTM    C6132275   4.525   5.211   7.212 -0.9379  0.5020 -0.6572
   13HTM    C6232276   4.654   5.230   7.252 -0.7367 -0.2091 -0.9352
   13HTM    C6332277   4.668   5.326   7.359 -0.0318 -0.7360 -0.5404
   13HTM    C6432278   4.550   5.379   7.400  0.3044 -0.4265  0.0384
   13HTM     S732279   4.410   5.313   7.308 -0.2476  0.5620  0.1307
   14TAL    C6532280   4.811   5.355   7.398 -0.4572 -0.4816 -0.1637
   14TAL    C6632281   4.934   5.306   7.321 -0.1871 -0.1354  0.7025
   14TAL    C6732282   5.058   5.324   7.403  0.6051 -0.0633 -0.6100
   14TAL    C6832283   5.098   5.179   7.454  0.4004 -0.6084 -0.5743
   14TAL    C6932284   5.213   5.171   7.547 -0.4453 -1.1374  0.6299
   14TAL    C7032285   5.204   5.276   7.659 -0.4489 -0.3793 -0.0414
   15HTM    C7132286   4.521   5.454   7.520 -0.3360 -0.1771  0.4781
   15HTM    C7232287   4.401   5.459   7.584 -0.4852  0.2313  0.1763
   15HTM    C7332288   4.399   5.548   7.697 -0.4505  0.2105  0.1936
   15HTM    C7432289   4.517   5.612   7.718 -0.2749 -0.2135  0.5086
   15HTM     S832290   4.642   5.563   7.597 -0.1386 -0.6227  0.8104
   16TAL    C7532291   4.290   5.528   7.803 -0.1225 -0.4671  1.1858
   16TAL    C7632292   4.176   5.631   7.808 -0.8406  0.9358 -0.2408
   16TAL    C7732293   4.061   5.611   7.699 -0.7392  0.6937  0.1053
   16TAL    C7832294   3.983   5.478   7.703 -0.3768  1.0730 -0.1883
   16TAL    C7932295   3.838   5.485   7.738 -0.8875 -0.3405 -0.0299
   16TAL    C8032296   3.778   5.353   7.743  0.8129 -0.5450  0.2064
   17HTM    C8132297   4.561   5.690   7.833  0.2083 -0.2746 -0.0421
   17HTM    C8232298   4.575   5.826   7.830 -0.3905 -0.2128 -0.1543
   17HTM    C8332299   4.577   5.886   7.961 -0.6801 -0.0885 -0.2050
   17HTM    C8432300   4.566   5.797   8.063 -0.3019 -0.0555 -0.1313
   17HTM     S932301   4.551   5.628   8.002  0.4551 -0.1798  0.0086
   18TAL    C8532302   4.586   6.034   7.971 -0.6488 -0.9623 -0.4655
   18TAL    C8632303   4.726   6.106   8.000  0.8241  0.3955  0.4279
   18TAL    C8732304   4.851   6.064   7.925 -0.7401  0.5130  0.8887
   18TAL    C8832305   4.839   6.114   7.774  0.0199 -0.3282 -0.1415
   18TAL    C8932306   4.972   6.093   7.691  0.4054 -0.1341 -0.7575
   18TAL    C9032307   4.957   6.138   7.550 -0.6605  0.0366 -1.2871
   19HTM    C9132308   4.545   5.816   8.213  0.0698  0.7683  0.3515
   19HTM    C9232309   4.480   5.915   8.279  0.7010  0.7776  0.9847
   19HTM    C9332310   4.452   5.884   8.417  0.7948  0.2091  0.8817
   19HTM    C9432311   4.496   5.761   8.456  0.2350 -0.2339  0.1703
   19HTM    S1032312   4.577   5.674   8.320 -0.4594  0.0348 -0.4298
   20TAL    C9532313   4.352   5.982   8.489 -0.2413 -0.6761 -0.7259
   20TAL    C9632314   4.416   6.108   8.558  0.4481 -0.9460 -0.9064
   20TAL    C9732315   4.327   6.230   8.542  0.4321 -0.1698 -0.4354
   20TAL    C9832316   4.235   6.252   8.661  0.5582  1.8862  1.1762
   20TAL    C9932317   4.272   6.386   8.735 -0.3012 -0.2687 -0.5487
   20TAL   C10032318   4.196   6.405   8.866  0.1556  0.8703  0.4976
   21HTM   C10132319   4.481   5.689   8.579 -0.8962 -0.1871  0.1273
   21HTM   C10232320   4.453   5.558   8.600 -1.3944 -0.0612  0.2759
   21HTM   C10332321   4.450   5.521   8.739 -1.0642  0.0074  0.3014
   21HTM   C10432322   4.477   5.624   8.824 -0.3145 -0.0662  0.1723
   21HTM    S1132323   4.507   5.777   8.734  0.0355 -0.2292  0.0073
   22TAL   C10532324   4.392   5.390   8.783 -0.9164 -0.1049 -1.1778
   22TAL   C10632325   4.451   5.253   8.736 -0.3879  0.8738 -0.1418
   22TAL   C10732326   4.349   5.139   8.764 -0.2494  0.3408  0.5663
   22TAL   C10832327   4.364   5.038   8.637  0.4666  1.1112 -0.1701
   22TAL   C10932328   4.277   4.906   8.620  0.0931 -0.9685 -0.4585
   22TAL   C11032329   4.130   4.914   8.627  0.1071  0.0905  0.2309
   23HTM   C11132330   4.474   5.633   8.967  0.2669  0.8475 -0.3312
   23HTM   C11232331   4.389   5.709   9.041  0.2539  0.7687 -0.2658
   23HTM   C11332332   4.403   5.689   9.183 -0.1636  0.1948 -0.2992
   23HTM   C11432333   4.498   5.598   9.217 -0.4685 -0.1641 -0.3897
   23HTM    S1232334   4.579   5.530   9.071 -0.2506  0.1978 -0.4402
   24TAL   C11532335   4.320   5.760   9.290 -0.9729  0.4154  0.2545
   24TAL   C11632336   4.312   5.910   9.278  0.6263 -0.5130  0.3912
   24TAL   C11732337   4.303   5.984   9.408  0.3115  0.0292 -0.6920
   24TAL   C11832338   4.421   6.033   9.491  0.3640 -0.4707  0.6002
   24TAL   C11932339   4.372   6.084   9.631  0.0014  0.3724 -0.2711
   24TAL   C12032340   4.477   6.169   9.698  0.1920 -0.5502 -0.2060
   25HTM   C12132341   4.543   5.558   9.345 -0.4770  0.1243  0.1412
   25HTM   C12232342   4.484   5.575   9.467 -0.2482 -0.3428  0.3202
   25HTM   C12332343   4.547   5.500   9.573  0.1550 -0.4932 -0.0224
   25HTM   C12432344   4.654   5.426   9.531  0.2333 -0.1404 -0.4631
   25HTM    S1332345   4.684   5.446   9.354 -0.1991  0.4133 -0.4791
   26TAL   C12532346   4.481   5.509   9.715  0.9770  0.6660  0.0226
   26TAL   C12632347   4.322   5.524   9.715 -1.0228  0.8549 -0.6361
   26TAL   C12732348   4.258   5.659   9.715  0.1206  0.1286 -0.1132
   26TAL   C12832349   4.120   5.675   9.762 -0.5781 -0.2706  0.1061
   26TAL   C12932350   4.114   5.719   9.912  0.8482  0.3676 -0.8730
   26TAL   C13032351   4.101   5.600  10.014  0.5411  0.2935 -0.4177
   27HTM   C13132352   4.726   5.311   9.589  0.4142 -0.7831 -0.2821
   27HTM   C13232353   4.742   5.195   9.519  1.5284 -0.8534  0.0429
   27HTM   C13332354   4.782   5.083   9.600  2.0403 -0.3827  0.4601
   27HTM   C13432355   4.796   5.113   9.732  1.3164  0.0464  0.4536
   27HTM    S1432356   4.761   5.287   9.764 -0.0786 -0.1118 -0.0844
   28TAL   C13532357   4.782   4.945   9.539  0.1877 -0.2037 -0.6758
   28TAL   C13632358   4.851   4.932   9.398 -0.0953 -0.5974 -0.2743
   28TAL   C13732359   4.844   4.793   9.342  0.3100  0.3151 -0.0334
   28TAL   C13832360   4.911   4.688   9.439  0.6337 -0.5610  0.0791
   28TAL   C13932361   4.872   4.551   9.396  0.0572  0.9454 -0.8460
   28TAL   C14032362   4.942   4.448   9.483 -0.3784 -0.1101 -0.4261
   29HTM   C14132363   4.824   5.027   9.845  0.0036  0.2808 -0.2756
   29HTM   C14232364   4.905   4.919   9.864  0.1639  0.3308 -0.6585
   29HTM   C14332365   4.922   4.882  10.002  0.1601 -0.1764 -0.7864
   29HTM   C14432366   4.854   4.963  10.089 -0.0031 -0.6130 -0.5010
   29HTM    S1532367   4.763   5.092  10.001 -0.1658 -0.4158 -0.0450
   30TAL   C14532368   5.022   4.772  10.037 -0.1180  1.3571 -0.3337
   30TAL   C14632369   5.057   4.659   9.932  0.0115  0.6646 -0.5469
   30TAL   C14732370   5.205   4.662   9.895 -0.1733  0.3688  0.2369
   30TAL   C14832371   5.232   4.572   9.770 -0.0591  0.9400  1.1158
   30TAL   C14932372   5.376   4.589   9.706  0.4129 -0.0502  0.9198
   30TAL   C15032373   5.391   4.729   9.657 -0.6042  0.7677  0.5328
   31HTM   C15132374   4.831   4.959  10.236  0.3137  0.4724 -0.7602
   31HTM   C15232375   4.744   5.043  10.298 -0.2328 -0.2571 -0.5062
   31HTM   C15332376   4.764   5.052  10.441 -0.7144 -1.0307 -0.3797
   31HTM   C15432377   4.866   4.974  10.487 -0.5353 -0.8907 -0.5372
   31HTM    S1632378   4.946   4.883  10.353  0.2619  0.2372 -0.8600
   32TAL   C15532379   4.672   5.138  10.522 -0.9683  0.6394  0.6639
   32TAL   C15632380   4.537   5.098  10.566  0.2504 -0.1797  0.1584
   32TAL   C15732381   4.529   4.992  10.684  0.2083 -0.8588  0.9505
   32TAL   C15832382   4.525   5.048  10.831 -1.6219 -0.0247  1.5804
   32TAL   C15932383   4.400   5.132  10.840 -0.4772  0.8903  0.9776
   32TAL   C16032384   4.380   5.162  10.986  0.3637 -0.3555  0.2323
   33HTM   C16132385   4.931   4.981  10.619 -0.2954 -0.3680 -0.4903
   33HTM   C16232386   4.877   4.967  10.743 -0.5269 -0.5313 -0.6084
   33HTM   C16332387   4.973   4.975  10.850 -0.7622 -0.3808 -0.4050
   33HTM   C16432388   5.101   4.994  10.807 -0.7102 -0.1026 -0.1320
   33HTM    S1732389   5.110   5.004  10.627 -0.3572 -0.0087 -0.1102
   34TAL   C16532390   4.938   4.967  10.992  0.6600  0.1484  0.5006
   34TAL   C16632391   4.902   4.826  11.038 -0.0387 -0.0853 -0.6571
   34TAL   C16732392   4.893   4.827  11.192  0.5368 -1.0753 -0.9399
   34TAL   C16832393   4.863   4.686  11.217  0.8269 -0.6951  0.3954
   34TAL   C16932394   4.905   4.629  11.352  0.0896  0.5860 -0.9132
   34TAL   C17032395   4.801   4.640  11.459  0.7531  0.3075 -0.1936
   35HTM   C17132396   5.229   4.995  10.875 -0.0514 -0.5843  0.0216
   35HTM   C17232397   5.351   4.946  10.838 -0.0639 -0.6781  0.1039
   35HTM   C17332398   5.456   4.977  10.931  0.0412 -0.1181 -0.1887
   35HTM   C17432399   5.415   5.049  11.039  0.1340  0.4026 -0.4942
   35HTM    S1832400   5.238   5.084  11.031  0.0952  0.2246 -0.4355
   36TAL   C17532401   5.599   4.913  10.909 -0.9644  0.1424 -0.0361
   36TAL   C17632402   5.668   4.908  10.772 -0.0394  0.6299 -0.9197
   36TAL   C17732403   5.812   4.848  10.797 -0.1260 -0.3092  0.2707
   36TAL   C17832404   5.921   4.937  10.862 -0.0717 -0.3721  0.0235
   36TAL   C17932405   5.947   4.935  11.011  0.0806  0.0417 -0.3571
   36TAL   C18032406   5.964   4.808  11.095  1.2314  0.7804  0.2219
   37HTM   C18132407   5.479   5.098  11.160  0.6727 -0.1605 -0.3096
   37HTM   C18232408   5.426   5.178  11.257  0.7036  0.5643 -0.8799
   37HTM   C18332409   5.521   5.218  11.358  0.5674  0.7069 -0.8081
   37HTM   C18432410   5.646   5.168  11.338  0.4330  0.0909 -0.1831
   37HTM    S1932411   5.654   5.066  11.190  0.4679 -0.7237  0.3675
   38TAL   C18532412   5.481   5.341  11.442  0.2837  1.2720  0.0473
   38TAL   C18632413   5.405   5.298  11.574  0.8853  0.2904  0.3766
   38TAL   C18732414   5.346   5.428  11.656 -0.2568  0.9910  0.3282
   38TAL   C18832415   5.261   5.522  11.572 -0.3646 -0.5446  0.2068
   38TAL   C18932416   5.113   5.480  11.549 -0.3240  0.6660 -0.0922
   38TAL   C19032417   5.026   5.576  11.466 -0.8037  0.1182  0.2347
   39HTM   C19132418   5.764   5.181  11.426  0.3172 -0.2374 -0.1102
   39HTM   C19232419   5.886   5.134  11.387  0.5578  0.0130  0.3294
   39HTM   C19332420   5.990   5.158  11.483  0.1428  0.1293  0.7583
   39HTM   C19432421   5.948   5.222  11.596 -0.4142 -0.0323  0.6457
   39HTM    S2032422   5.771   5.258  11.589 -0.4580 -0.3464 -0.0159
   40TAL   C19532423   6.138   5.130  11.455  0.2370  0.6100  0.2339
   40TAL   C19632424   6.173   5.063  11.320  0.1200  0.6229  0.4502
   40TAL   C19732425   6.309   5.077  11.258  0.2169 -0.8659  0.1114
   40TAL   C19832426   6.354   5.223  11.220  0.1049  0.5164 -0.6979
   40TAL   C19932427   6.276   5.267  11.101  0.0224  0.8008  0.0632
   40TAL   C20032428   6.297   5.419  11.053 -0.7174  0.4927 -0.9022
   41HTM   C20132429   6.030   5.231  11.712 -0.1395 -0.4393  0.0881
   41HTM   C20232430   6.010   5.176  11.835 -0.0104 -0.1636  0.2360
   41HTM   C20332431   6.099   5.225  11.936  0.0814  0.0827  0.0362
   41HTM   C20432432   6.187   5.319  11.891  0.0223 -0.0051 -0.2640
   41HTM    S2132433   6.164   5.352  11.715 -0.1554 -0.4090 -0.3182
   42TAL   C20532434   6.095   5.173  12.077  0.1611  0.0186  0.6492
   42TAL   C20632435   6.173   5.042  12.106  0.1782 -0.2313  0.2893
   42TAL   C20732436   6.330   5.042  12.108  0.4287  0.1448 -0.4698
   42TAL   C20832437   6.380   5.137  12.216  0.2213  0.2541 -0.2389
   42TAL   C20932438   6.534   5.158  12.207 -0.0520 -0.8163 -0.5935
   42TAL   C21032439   6.606   5.036  12.265  0.4259  0.3061 -0.0098
   43HTM   C21132440   6.288   5.397  11.956 -0.2083  0.0132  0.1677
   43HTM   C21232441   6.275   5.457  12.078  0.1388  0.1981  0.1169
   43HTM   C21332442   6.382   5.548  12.110  0.2089  0.2837 -0.3455
   43HTM   C21432443   6.477   5.557  12.012 -0.0850  0.1640 -0.6474
   43HTM    S2232444   6.438   5.451  11.871 -0.4758 -0.0680 -0.3687
   44TAL   C21532445   6.387   5.620  12.238 -0.1878 -0.5065  0.3252
   44TAL   C21632446   6.324   5.764  12.239 -0.4550  0.8475  0.4493
   44TAL   C21732447   6.283   5.808  12.383  0.1457 -0.6657 -0.7922
   44TAL   C21832448   6.213   5.947  12.385  0.3577  0.1469  0.0749
   44TAL   C21932449   6.080   5.952  12.316 -0.5816  0.4378 -0.4074
   44TAL   C22032450   6.031   6.088  12.272 -0.1047  0.0745  0.2219
   45HTM   C22132451   6.605   5.632  12.003 -0.0839  0.0975 -0.4112
   45HTM   C22232452   6.680   5.642  11.889  0.2565  0.1427 -0.1836
   45HTM   C22332453   6.798   5.723  11.906  0.3121 -0.0193  0.2535
   45HTM   C22432454   6.813   5.775  12.031  0.0141 -0.1882  0.3593
   45HTM    S2332455   6.678   5.724  12.139 -0.3630 -0.1555 -0.0884
   46TAL   C22532456   6.907   5.750  11.797  0.6682  0.6923 -0.5585
   46TAL   C22632457   7.015   5.654  11.775 -0.1241  0.1916 -0.3394
   46TAL   C22732458   7.146   5.707  11.711 -0.8582  0.6623  0.0737
   46TAL   C22832459   7.165   5.775  11.580  0.0949 -0.6896 -0.2559
   46TAL   C22932460   7.136   5.928  11.576 -0.3025  0.3261  0.4192
   46TAL   C23032461   7.071   5.960  11.449  0.0332 -0.9242 -0.1121
   47HTM   C23132462   6.916   5.842  12.099  0.4674  0.1481  0.4841
   47HTM   C23232463   6.936   5.819  12.232  0.9896  0.2767  0.4342
   47HTM   C23332464   7.047   5.891  12.288  0.9376  0.6794  0.0253
   47HTM   C23432465   7.113   5.969  12.197  0.3758  0.8578 -0.2364
   47HTM    S2432466   7.038   5.957  12.033 -0.1352  0.5287  0.0151
   48TAL   C23532467   7.048   5.876  12.440 -0.8428 -0.5011 -0.0883
   48TAL   C23632468   7.185   5.905  12.499 -0.0675  0.5594 -0.1427
   48TAL   C23732469   7.216   5.898  12.651  0.3993 -1.0745  0.3376
   48TAL   C23832470   7.174   5.763  12.699 -0.1744  0.0028  0.6942
   48TAL   C23932471   7.215   5.701  12.842  0.5273  0.1314  0.3955
   48TAL   C24032472   7.091   5.718  12.923 -0.3279 -0.1558  0.1334
    1HTM     C132473   0.435   0.219   0.817  0.0170 -0.0656  0.5897
    1HTM     C232474   0.423   0.320   0.726 -0.3724  0.2843  1.0208
    1HTM     C332475   0.536   0.409   0.722 -0.5048  0.4577  1.0572
    1HTM     C432476   0.635   0.375   0.809 -0.2164  0.2399  0.6539
    1HTM     S132477   0.593   0.228   0.905  0.2484 -0.2044  0.1933
    2TAL     C532478   0.536   0.516   0.607  0.0576  0.2957 -1.5453
    2TAL     C632479   0.460   0.500   0.484  0.4951  0.4739  0.7780
    2TAL     C732480   0.538   0.576   0.367 -0.3141  0.9782 -0.7637
    2TAL     C832481   0.666   0.526   0.323  0.6143  0.2615  0.2136
    2TAL     C932482   0.765   0.614   0.392  0.2689  0.3427  0.5902
    2TAL    C1032483   0.911   0.601   0.356 -0.0959 -0.2938 -0.2799
    3HTM    C1132484   0.773   0.434   0.828  0.3010 -0.2631  0.1924
    3HTM    C1232485   0.877   0.382   0.899  0.7658  0.0288 -0.2584
    3HTM    C1332486   0.997   0.462   0.894  0.4779  0.4465 -0.6611
    3HTM    C1432487   0.984   0.575   0.820 -0.2064  0.4731 -0.5174
    3HTM     S232488   0.819   0.590   0.749 -0.5429 -0.0312  0.1429
    4TAL    C1532489   1.122   0.411   0.959  0.2677 -0.1442 -0.4534
    4TAL    C1632490   1.194   0.287   0.904  0.2569  0.2030 -0.9768
    4TAL    C1732491   1.302   0.225   0.987  0.0627  0.5267  0.3135
    4TAL    C1832492   1.250   0.214   1.121 -0.2964  0.5947 -1.0533
    4TAL    C1932493   1.341   0.134   1.211 -0.5439  0.3921 -0.1536
    4TAL    C2032494   1.318   0.140   1.366 -0.1017 -0.5719  0.2903
    5HTM    C2132495   1.075   0.676   0.802 -0.0185 -0.1802  0.4325
    5HTM    C2232496   1.047   0.807   0.778 -0.1769 -0.0445  1.3180
    5HTM    C2332497   1.162   0.893   0.782 -0.2179  0.0052  1.4691
    5HTM    C2432498   1.279   0.827   0.808 -0.0908 -0.0925  0.6988
    5HTM     S332499   1.251   0.651   0.830  0.0919 -0.2563 -0.2847
    6TAL    C2532500   1.141   1.041   0.782  0.0746 -0.6536  0.9977
    6TAL    C2632501   1.039   1.104   0.890  0.1615 -0.6405  0.0469
    6TAL    C2732502   1.112   1.123   1.030  0.5743  0.3544 -0.6610
    6TAL    C2832503   1.276   1.153   1.019 -0.2745 -0.3832 -0.3121
    6TAL    C2932504   1.319   1.288   0.969 -0.9887  0.0792  0.4924
    6TAL    C3032505   1.466   1.318   1.021  0.3138 -1.0618 -0.3289
    7HTM    C3132506   1.415   0.868   0.806  0.3135 -0.2234 -0.8073
    7HTM    C3232507   1.462   0.961   0.718  0.3941 -1.2092 -1.8528
    7HTM    C3332508   1.604   0.955   0.696  0.3679 -1.6645 -1.9130
    7HTM    C3432509   1.666   0.857   0.768  0.2673 -1.0259 -0.9134
    7HTM     S432510   1.549   0.764   0.869  0.1973  0.2096  0.1900
    8TAL    C3532511   1.674   1.052   0.601 -0.3649 -0.0916  0.0988
    8TAL    C3632512   1.776   1.154   0.652  0.4387  0.4965 -1.4102
    8TAL    C3732513   1.715   1.268   0.734 -0.3857 -0.0591  0.1387
    8TAL    C3832514   1.715   1.397   0.649 -0.5131 -0.2071 -0.4708
    8TAL    C3932515   1.591   1.482   0.668  0.7246  1.1213 -0.5698
    8TAL    C4032516   1.595   1.622   0.637 -0.2783  0.7134  0.4721
    9HTM    C4132517   1.797   0.803   0.780 -0.3328  0.0851 -0.1088
    9HTM    C4232518   1.866   0.751   0.885 -0.7361 -0.6641 -0.1966
    9HTM    C4332519   2.001   0.711   0.851 -0.8162 -1.0240 -0.1028
    9HTM    C4432520   2.033   0.733   0.721 -0.4739 -0.5493  0.0565
    9HTM     S532521   1.896   0.806   0.629 -0.0205  0.3966  0.1008
   10TAL    C4532522   2.089   0.647   0.956  0.3305 -0.6211 -1.1186
   10TAL    C4632523   2.127   0.744   1.074 -0.3440  0.4711 -1.3673
   10TAL    C4732524   2.120   0.894   1.066 -0.3747  0.2808 -0.6558
   10TAL    C4832525   2.135   0.974   1.195  0.0705  0.3552 -0.6949
   10TAL    C4932526   2.071   0.925   1.330 -0.3517  1.0956 -0.6821
   10TAL    C5032527   1.919   0.942   1.335  0.5109  1.0473 -0.2333
   11HTM    C5132528   2.149   0.714   0.645 -0.0353 -0.1585 -0.0978
   11HTM    C5232529   2.237   0.796   0.581 -0.0937 -0.2678 -0.3179
   11HTM    C5332530   2.338   0.725   0.506 -0.0945 -0.3972 -0.1977
   11HTM    C5432531   2.327   0.589   0.513 -0.0368 -0.3865  0.1140
   11HTM     S632532   2.187   0.540   0.616  0.0236 -0.2108  0.2812
   12TAL    C5532533   2.433   0.796   0.418  0.4868  0.9200  1.3191
   12TAL    C5632534   2.412   0.931   0.337  0.6958  0.8913  0.4783
   12TAL    C5732535   2.274   0.979   0.296 -0.1483 -0.4949  0.2596
   12TAL    C5832536   2.216   0.880   0.201  0.6489 -0.1084  0.4738
   12TAL    C5932537   2.103   0.923   0.111  0.3924 -0.1783 -0.1582
   12TAL    C6032538   2.140   1.047   0.031 -0.0089 -0.4240  0.6337
   13HTM    C6132539   2.416   0.479   0.482  0.5782 -0.2017  0.6446
   13HTM    C6232540   2.427   0.359   0.546  0.1895 -0.6534 -0.1107
   13HTM    C6332541   2.524   0.270   0.486 -0.3893 -0.7665 -0.9126
   13HTM    C6432542   2.586   0.323   0.377 -0.4422 -0.4010 -0.7687
   13HTM     S732543   2.527   0.490   0.341  0.2403  0.1183  0.3999
   14TAL    C6532544   2.539   0.133   0.534  0.4766  0.0477 -0.3266
   14TAL    C6632545   2.478   0.034   0.449 -0.7276  0.4652  0.2634
   14TAL    C6732546   2.456  -0.118   0.483 -0.7110 -1.3726  2.0005
   14TAL    C6832547   2.585  -0.192   0.517  0.8176 -0.2807  0.5881
   14TAL    C6932548   2.683  -0.214   0.402 -0.8298  0.4942  0.6178
   14TAL    C7032549   2.795  -0.322   0.423  0.3572  0.0364  0.1611
   15HTM    C7132550   2.694   0.284   0.289 -0.0572  0.0633  0.2141
   15HTM    C7232551   2.821   0.247   0.323 -0.0222 -0.0304 -0.0115
   15HTM    C7332552   2.905   0.217   0.210 -0.2530 -0.1189 -0.1617
   15HTM    C7432553   2.843   0.231   0.090 -0.4640 -0.0927 -0.0507
   15HTM     S832554   2.671   0.284   0.110 -0.3868  0.0468  0.2547
   16TAL    C7532555   3.050   0.177   0.223 -0.3657  0.1793  0.5302
   16TAL    C7632556   3.131   0.211   0.354 -0.4069 -0.6516  0.2175
   16TAL    C7732557   3.280   0.163   0.351  0.9055  0.6874  0.1573
   16TAL    C7832558   3.278   0.009   0.365  0.0556  0.4898 -0.0504
   16TAL    C7932559   3.285  -0.036   0.506 -1.0187 -0.4378  0.5929
   16TAL    C8032560   3.266  -0.178   0.547 -0.3354  0.4095  0.5714
   17HTM    C8132561   2.876   0.220  -0.047 -0.6348 -0.6467 -0.2377
   17HTM    C8232562   2.930   0.123  -0.126 -0.4930 -0.3260 -0.5381
   17HTM    C8332563   2.924   0.153  -0.267 -0.0803  0.3298 -0.4227
   17HTM    C8432564   2.866   0.273  -0.295  0.0924  0.5090 -0.0341
   17HTM     S932565   2.813   0.357  -0.145 -0.2554 -0.1415  0.2180
   18TAL    C8532566   2.999   0.062  -0.362  0.4302  0.7209  0.2708
   18TAL    C8632567   2.899   0.003  -0.457 -0.2920 -0.4156 -0.5909
   18TAL    C8732568   2.942  -0.046  -0.588 -0.2290 -0.1965  0.3687
   18TAL    C8832569   2.829  -0.068  -0.700 -0.5192  0.0513 -0.1436
   18TAL    C8932570   2.742   0.055  -0.739  0.1887 -0.2214 -0.0594
   18TAL    C9032571   2.645   0.053  -0.857 -0.3047 -0.1398 -0.6170
   19HTM    C9132572   2.858   0.336  -0.427 -0.0146  0.1632 -0.0354
   19HTM    C9232573   2.958   0.389  -0.504  0.1974 -0.4653 -0.1998
   19HTM    C9332574   2.920   0.413  -0.641  0.2624 -0.6384 -0.2491
   19HTM    C9432575   2.791   0.379  -0.668  0.1003 -0.1418 -0.1220
   19HTM    S1032576   2.707   0.313  -0.523 -0.1494  0.5886  0.0706
   20TAL    C9532577   3.019   0.474  -0.735  0.1660 -0.2008  0.1324
   20TAL    C9632578   3.051   0.622  -0.718 -1.0229 -0.1483 -1.4193
   20TAL    C9732579   3.182   0.674  -0.794  0.6710 -0.3909  0.0605
   20TAL    C9832580   3.287   0.587  -0.853  0.1572  0.1759 -0.0863
   20TAL    C9932581   3.370   0.508  -0.760  0.1105 -0.0328  0.4442
   20TAL   C10032582   3.470   0.424  -0.837  0.2647 -0.2339 -0.7484
   21HTM   C10132583   2.706   0.425  -0.786  0.1068 -0.3578  0.3761
   21HTM   C10232584   2.587   0.489  -0.765  0.3016 -0.1492  0.8726
   21HTM   C10332585   2.536   0.556  -0.881  0.1442  0.3093  1.1997
   21HTM   C10432586   2.616   0.543  -0.991 -0.1707  0.4504  0.9524
   21HTM    S1132587   2.763   0.445  -0.956 -0.2937  0.0116  0.2817
   22TAL   C10532588   2.410   0.636  -0.869  0.9057 -0.0308 -0.0507
   22TAL   C10632589   2.282   0.556  -0.849  0.5410 -0.2817 -0.1283
   22TAL   C10732590   2.199   0.580  -0.722 -1.1931  0.1310 -0.1520
   22TAL   C10832591   2.071   0.505  -0.735 -0.1138 -0.2733 -0.1218
   22TAL   C10932592   1.964   0.506  -0.621 -0.3248 -0.2064 -0.2340
   22TAL   C11032593   1.992   0.516  -0.479  0.9536  0.4527 -1.3017
   23HTM   C11132594   2.618   0.582  -1.139  0.3543  0.2634  0.0311
   23HTM   C11232595   2.701   0.532  -1.235  0.6536  0.7235  0.0443
   23HTM   C11332596   2.701   0.609  -1.357  0.5429  0.9430  0.1802
   23HTM   C11432597   2.618   0.717  -1.354  0.1593  0.6504  0.2711
   23HTM    S1232598   2.533   0.731  -1.195 -0.0940  0.0703  0.1910
   24TAL   C11532599   2.786   0.559  -1.480 -0.1899 -0.7562  0.0207
   24TAL   C11632600   2.792   0.417  -1.522  0.5767  0.4639 -0.8963
   24TAL   C11732601   2.658   0.348  -1.537  0.3789 -1.0671 -1.5830
   24TAL   C11832602   2.668   0.203  -1.582 -0.1252  0.0173  0.5193
   24TAL   C11932603   2.525   0.162  -1.596  1.0709 -1.2854 -0.2238
   24TAL   C12032604   2.489   0.041  -1.501 -0.4591 -0.8074  0.9123
   25HTM   C12132605   2.584   0.811  -1.464 -0.1766 -0.0207 -0.1458
   25HTM   C12232606   2.474   0.813  -1.545 -0.3784  0.4763  0.1295
   25HTM   C12332607   2.478   0.915  -1.646 -0.3036  0.6434  0.2995
   25HTM   C12432608   2.591   0.991  -1.642 -0.0449  0.2737  0.1542
   25HTM    S1332609   2.702   0.940  -1.510  0.1257 -0.3187 -0.2116
   26TAL   C12532610   2.380   0.922  -1.756 -0.5287 -0.3237 -0.7183
   26TAL   C12632611   2.234   0.968  -1.715  0.1605  0.5810  0.7644
   26TAL   C12732612   2.205   1.111  -1.670  0.9723 -0.0036 -0.0520
   26TAL   C12832613   2.247   1.165  -1.543  0.1243 -0.3103 -0.4369
   26TAL   C12932614   2.176   1.294  -1.514  0.7293 -0.8266  0.3202
   26TAL   C13032615   2.263   1.410  -1.474  0.0389  0.1173  0.0050
   27HTM   C13132616   2.644   1.103  -1.723 -0.4658  0.2775 -0.0650
   27HTM   C13232617   2.568   1.203  -1.775 -0.5260  0.0736 -0.3754
   27HTM   C13332618   2.645   1.317  -1.819 -0.6133  0.0809 -0.5116
   27HTM   C13432619   2.779   1.303  -1.800 -0.6197  0.2903 -0.3048
   27HTM    S1432620   2.819   1.144  -1.725 -0.5152  0.4962  0.0805
   28TAL   C13532621   2.572   1.440  -1.881  0.1628 -0.1039 -0.1493
   28TAL   C13632622   2.449   1.419  -1.978  0.4086  0.4689 -0.0514
   28TAL   C13732623   2.493   1.400  -2.126 -0.4197 -0.2742  0.5838
   28TAL   C13832624   2.422   1.293  -2.205  0.1468 -1.1991  0.8708
   28TAL   C13932625   2.466   1.299  -2.349  0.0769  0.2753  0.3682
   28TAL   C14032626   2.438   1.180  -2.439  0.7130  0.0568  0.3926
   29HTM   C14132627   2.905   1.377  -1.828 -0.3026  0.4025 -0.0911
   29HTM   C14232628   3.032   1.359  -1.781 -0.3916  0.3473  0.1314
   29HTM   C14332629   3.125   1.460  -1.825 -0.2273  0.1976  0.1312
   29HTM   C14432630   3.069   1.555  -1.905 -0.0131  0.1387 -0.0910
   29HTM    S1532631   2.893   1.524  -1.932 -0.0020  0.2687 -0.3194
   30TAL   C14532632   3.263   1.470  -1.769 -0.5466  0.0790  0.1017
   30TAL   C14632633   3.309   1.382  -1.655 -0.1695 -0.5810  0.1432
   30TAL   C14732634   3.415   1.469  -1.585 -0.4875  0.5394  0.7376
   30TAL   C14832635   3.550   1.404  -1.559  0.6514 -0.2000 -0.3017
   30TAL   C14932636   3.624   1.491  -1.475 -0.0286 -0.9841 -0.2577
   30TAL   C15032637   3.751   1.445  -1.431 -0.1861 -0.1123  0.2520
   31HTM   C15132638   3.124   1.675  -1.978 -0.5732  0.3063 -0.2876
   31HTM   C15232639   3.092   1.725  -2.101 -1.0455  0.7001 -0.0155
   31HTM   C15332640   3.173   1.838  -2.140 -1.1299  0.7643 -0.0052
   31HTM   C15432641   3.266   1.874  -2.047 -0.7219  0.4194 -0.2693
   31HTM    S1632642   3.258   1.767  -1.901 -0.1953 -0.0166 -0.5540
   32TAL   C15532643   3.149   1.893  -2.277  0.0647 -0.4865  0.1294
   32TAL   C15632644   3.056   2.018  -2.259  0.3535  0.4540 -0.1605
   32TAL   C15732645   3.021   2.117  -2.375  0.8726 -0.0593  0.1691
   32TAL   C15832646   2.955   2.245  -2.319 -0.3897 -0.5871 -0.5577
   32TAL   C15932647   3.043   2.331  -2.226 -1.1139  0.4258  0.0420
   32TAL   C16032648   2.989   2.468  -2.192  0.0140 -0.3574 -0.0606
   33HTM   C16132649   3.368   1.977  -2.046 -0.1429  0.0721  0.5003
   33HTM   C16232650   3.375   2.089  -2.124 -0.3385 -0.1244  0.1931
   33HTM   C16332651   3.492   2.169  -2.099 -0.1302 -0.2031 -0.5088
   33HTM   C16432652   3.575   2.118  -2.004  0.2241 -0.0667 -0.7369
   33HTM    S1732653   3.510   1.964  -1.936  0.3229  0.1737 -0.0777
   34TAL   C16532654   3.508   2.301  -2.179  0.7314 -0.2725  0.0965
   34TAL   C16632655   3.646   2.286  -2.258 -0.2603  0.2261  1.1386
   34TAL   C16732656   3.734   2.416  -2.297  0.9908 -0.2085 -0.3231
   34TAL   C16832657   3.638   2.533  -2.346 -0.2204 -0.3799 -1.2189
   34TAL   C16932658   3.710   2.663  -2.389  1.0356 -0.5927  0.1495
   34TAL   C17032659   3.615   2.775  -2.434 -0.3506  0.7454 -0.1436
   35HTM   C17132660   3.706   2.150  -1.950  0.0819 -0.2280 -0.0890
   35HTM   C17232661   3.795   2.060  -1.901 -0.2466 -0.0309  0.9058
   35HTM   C17332662   3.916   2.119  -1.850 -0.5237  0.1630  1.3530
   35HTM   C17432663   3.919   2.255  -1.861 -0.4064  0.1136  0.6991
   35HTM    S1832664   3.768   2.319  -1.937  0.0668 -0.1838 -0.5418
   36TAL   C17532665   4.026   2.020  -1.812  0.0401 -0.4821 -0.0106
   36TAL   C17632666   4.104   1.925  -1.904  0.8685 -0.1839  0.8540
   36TAL   C17732667   4.181   2.004  -2.014  0.0347  0.5179 -1.1680
   36TAL   C17832668   4.283   2.114  -1.966  0.0806 -0.8358  0.5042
   36TAL   C17932669   4.403   2.040  -1.912  0.1496  0.4952 -1.0038
   36TAL   C18032670   4.465   2.111  -1.781  0.8012 -0.5171  0.5595
   37HTM   C18132671   4.021   2.346  -1.826 -0.3264 -0.0835  0.2306
   37HTM   C18232672   4.116   2.351  -1.728 -0.0917 -0.2023  0.0093
   37HTM   C18332673   4.189   2.475  -1.725  0.2217 -0.3760 -0.2997
   37HTM   C18432674   4.150   2.564  -1.820  0.2259 -0.3897 -0.3147
   37HTM    S1932675   4.016   2.499  -1.922 -0.1685 -0.1827  0.0641
   38TAL   C18532676   4.292   2.490  -1.614 -1.0906 -0.5755  0.2002
   38TAL   C18632677   4.244   2.536  -1.478 -0.0316  0.0159 -0.7416
   38TAL   C18732678   4.332   2.517  -1.354  0.3543  0.0565  0.0083
   38TAL   C18832679   4.260   2.534  -1.227 -0.9600 -1.1150 -0.1823
   38TAL   C18932680   4.346   2.522  -1.095  0.7154 -1.0370  0.4577
   38TAL   C19032681   4.281   2.584  -0.968  0.1913 -0.2425  0.2362
   39HTM   C19132682   4.203   2.691  -1.853 -0.1694 -0.0873 -0.8707
   39HTM   C19232683   4.141   2.812  -1.850  0.0104  0.0085 -0.9407
   39HTM   C19332684   4.223   2.921  -1.895  0.4059 -0.0365 -0.3480
   39HTM   C19432685   4.349   2.883  -1.933  0.5279 -0.1665  0.1741
   39HTM    S2032686   4.373   2.705  -1.914  0.1494 -0.2428 -0.0441
   40TAL   C19532687   4.166   3.071  -1.905 -0.2859  1.2212  0.2393
   40TAL   C19632688   4.016   3.094  -1.925  0.7574  0.5298 -0.7114
   40TAL   C19732689   3.946   3.021  -2.038 -1.0882 -0.3269  0.1475
   40TAL   C19832690   3.799   3.035  -2.066  0.2570 -0.9435 -0.6399
   40TAL   C19932691   3.686   3.006  -1.957 -0.5034  0.4823  0.3849
   40TAL   C20032692   3.582   2.909  -2.016 -0.6111 -0.3756 -0.9085
   41HTM   C20132693   4.468   2.960  -1.963  0.7401 -0.6150  0.0268
   41HTM   C20232694   4.537   2.974  -2.080  1.4212 -1.0154  0.3687
   41HTM   C20332695   4.652   3.060  -2.069  1.1181 -0.6338  0.6571
   41HTM   C20432696   4.671   3.111  -1.944  0.2056  0.0577  0.5351
   41HTM    S2132697   4.544   3.054  -1.830 -0.3457  0.2821  0.0426
   42TAL   C20532698   4.731   3.106  -2.192  0.7012 -0.5396 -0.3665
   42TAL   C20632699   4.640   3.104  -2.333 -0.6067 -0.6353  0.2344
   42TAL   C20732700   4.708   3.179  -2.448 -0.1643  0.0183 -0.2691
   42TAL   C20832701   4.743   3.323  -2.417  1.1787  0.3515  1.2532
   42TAL   C20932702   4.783   3.412  -2.532 -1.2819  0.6829  0.1805
   42TAL   C21032703   4.887   3.524  -2.491  0.0926  1.2004  0.1200
   43HTM   C21132704   4.785   3.186  -1.901 -0.3613 -0.1047  0.5387
   43HTM   C21232705   4.786   3.306  -1.838 -0.5985 -0.3853  1.0937
   43HTM   C21332706   4.917   3.348  -1.794 -0.6434 -0.2310  1.0837
   43HTM   C21432707   5.015   3.258  -1.824 -0.4403  0.1671  0.5211
   43HTM    S2232708   4.950   3.114  -1.910 -0.1748  0.3798 -0.0442
   44TAL   C21532709   4.932   3.470  -1.712  0.1909 -0.6449 -0.6415
   44TAL   C21632710   4.815   3.559  -1.672  0.5192  0.4350 -0.6200
   44TAL   C21732711   4.700   3.507  -1.572 -1.0722 -0.9999  1.3665
   44TAL   C21832712   4.742   3.415  -1.459 -0.3690 -0.1041 -0.6185
   44TAL   C21932713   4.821   3.481  -1.342  0.7858  0.9550 -0.9589
   44TAL   C22032714   4.739   3.562  -1.236 -0.1774  0.5482 -0.0507
   45HTM   C22132715   5.156   3.257  -1.788 -0.2714 -0.4068  0.3471
   45HTM   C22232716   5.259   3.200  -1.856 -0.2314 -0.9745  0.8675
   45HTM   C22332717   5.389   3.226  -1.798 -0.3098 -0.9774  1.0456
   45HTM   C22432718   5.384   3.303  -1.686 -0.4097 -0.4120  0.6609
   45HTM    S2332719   5.215   3.349  -1.644 -0.4123  0.1726  0.0390
   46TAL   C22532720   5.505   3.177  -1.886 -0.0155 -0.1047 -0.4702
   46TAL   C22632721   5.560   3.289  -1.962 -0.3676 -0.1354 -1.1640
   46TAL   C22732722   5.662   3.239  -2.053 -0.0735 -0.4603  0.3182
   46TAL   C22832723   5.741   3.343  -2.140  0.2127 -0.5030 -0.5707
   46TAL   C22932724   5.683   3.397  -2.273 -0.2566  0.3774 -0.0009
   46TAL   C23032725   5.689   3.302  -2.393  1.0027  0.2165  0.6267
   47HTM   C23132726   5.494   3.370  -1.622 -0.0838 -0.2454 -0.7835
   47HTM   C23232727   5.561   3.326  -1.511 -0.3264 -0.4029 -0.6998
   47HTM   C23332728   5.659   3.418  -1.461 -0.4429 -0.4686 -0.3438
   47HTM   C23432729   5.668   3.534  -1.533 -0.2888 -0.3612 -0.1565
   47HTM    S2432730   5.551   3.534  -1.671  0.0174 -0.1672 -0.4166
   48TAL   C23532731   5.739   3.392  -1.335 -0.3021  0.2458 -0.0693
   48TAL   C23632732   5.833   3.496  -1.273 -0.2838  0.1733  0.0747
   48TAL   C23732733   5.915   3.443  -1.159  0.4948  0.3137 -0.1792
   48TAL   C23832734   6.030   3.510  -1.107 -0.9253 -0.5309 -1.4908
   48TAL   C23932735   6.001   3.659  -1.068  0.1316 -0.5852  0.2238
   48TAL   C24032736   6.137   3.732  -1.054  0.0491 -0.0819 -0.1979
    1HTM     C132737   8.458   9.040   3.543 -0.2577 -0.2735 -0.6408
    1HTM     C232738   8.490   9.166   3.504 -0.5481 -0.2747 -0.8895
    1HTM     C332739   8.620   9.209   3.548 -0.7658  0.2215 -0.7136
    1HTM     C432740   8.687   9.115   3.620 -0.6415  0.6004 -0.3308
    1HTM     S132741   8.590   8.964   3.639 -0.2366  0.3589 -0.1616
    2TAL     C532742   8.668   9.353   3.513  0.3076 -0.0745 -0.0823
    2TAL     C632743   8.812   9.380   3.469  1.3299 -1.8360 -0.7379
    2TAL     C732744   8.862   9.297   3.354 -0.3739  0.3110 -0.4653
    2TAL     C832745   9.011   9.317   3.310 -0.4692 -1.0145  0.5920
    2TAL     C932746   9.020   9.437   3.222 -0.1648  0.6591  0.4411
    2TAL    C1032747   9.155   9.451   3.157 -0.6491 -0.7188  0.3894
    3HTM    C1132748   8.817   9.114   3.688  0.1114  0.7326  0.2413
    3HTM    C1232749   8.857   9.150   3.813  0.6478  0.6742  0.0928
    3HTM    C1332750   8.995   9.122   3.840  0.5956  0.0200 -0.2759
    3HTM    C1432751   9.061   9.065   3.736  0.0194 -0.4203 -0.4083
    3HTM     S232752   8.952   9.042   3.594 -0.5059 -0.0400 -0.0752
    4TAL    C1532753   9.034   9.147   3.991  0.1320  1.5279  1.1010
    4TAL    C1632754   9.100   9.282   4.007 -0.4907 -0.6770 -1.0974
    4TAL    C1732755   9.102   9.333   4.160 -0.4229  0.4669 -0.9490
    4TAL    C1832756   9.185   9.239   4.252 -0.0392  1.3169 -1.4204
    4TAL    C1932757   9.154   9.256   4.399  1.1263  0.1488 -0.2045
    4TAL    C2032758   9.045   9.164   4.445 -0.0921 -0.0897 -0.3553
    5HTM    C2132759   9.202   9.039   3.717  0.4342  0.7077  0.3228
    5HTM    C2232760   9.300   9.047   3.811  0.7105  0.5472  0.0514
    5HTM    C2332761   9.430   9.010   3.762  0.4654  0.0358 -0.2320
    5HTM    C2432762   9.431   8.974   3.630  0.0021 -0.1938 -0.1766
    5HTM     S332763   9.266   8.984   3.558 -0.1615  0.2215  0.2410
    6TAL    C2532764   9.556   9.026   3.843 -0.1943  0.8040 -0.6818
    6TAL    C2632765   9.576   9.152   3.909 -0.3584 -0.7595 -0.5418
    6TAL    C2732766   9.713   9.171   3.991  0.2271  0.3948  0.5200
    6TAL    C2832767   9.775   9.316   3.997  0.8615 -0.0663  0.5938
    6TAL    C2932768   9.685   9.436   4.047  0.3617  1.1478  0.4144
    6TAL    C3032769   9.752   9.570   4.039  0.5011 -0.2258 -0.0304
    7HTM    C3132770   9.530   8.921   3.542  0.0403  0.3911 -0.6233
    7HTM    C3232771   9.660   8.959   3.528  0.0718  0.3397 -0.4741
    7HTM    C3332772   9.732   8.883   3.429  0.3431 -0.1419  0.0781
    7HTM    C3432773   9.657   8.788   3.367  0.5183 -0.4584  0.3499
    7HTM     S432774   9.488   8.785   3.431  0.3531 -0.1700 -0.0739
    8TAL    C3532775   9.878   8.905   3.401 -0.3930 -0.8519 -0.8555
    8TAL    C3632776   9.896   9.025   3.307 -0.2312  0.2718  0.0675
    8TAL    C3732777  10.050   9.049   3.311  1.1656 -0.0280  0.3684
    8TAL    C3832778  10.095   9.166   3.228  0.0794  0.5573  1.0695
    8TAL    C3932779  10.038   9.310   3.235 -0.1657  0.9827  0.7036
    8TAL    C4032780  10.093   9.407   3.135  0.0080 -0.8259  0.3170
    9HTM    C4132781   9.686   8.697   3.252  0.0880 -0.2122 -0.2063
    9HTM    C4232782   9.600   8.598   3.215  0.2213 -0.3953 -0.0380
    9HTM    C4332783   9.648   8.518   3.105  0.3123 -0.4914  0.0719
    9HTM    C4432784   9.771   8.555   3.060  0.2479 -0.3813 -0.0125
    9HTM     S532785   9.836   8.695   3.152  0.0667 -0.1463 -0.2391
   10TAL    C4532786   9.573   8.393   3.069  0.0077  0.3128 -0.8356
   10TAL    C4632787   9.445   8.402   2.983 -0.5262 -1.0554 -0.3073
   10TAL    C4732788   9.445   8.496   2.862  0.7425 -0.5477  1.0548
   10TAL    C4832789   9.335   8.560   2.773 -0.3367 -0.3684 -0.3705
   10TAL    C4932790   9.239   8.473   2.707 -0.1713  1.3992  0.2689
   10TAL    C5032791   9.101   8.509   2.728  0.2666 -0.0505  0.7153
   11HTM    C5132792   9.847   8.524   2.945  0.2254  1.1940  0.4527
   11HTM    C5232793   9.901   8.404   2.911  0.5619  1.0653  1.3840
   11HTM    C5332794   9.962   8.403   2.780  0.7649  0.2816  1.4751
   11HTM    C5432795   9.954   8.522   2.714  0.5831 -0.1875  0.6133
   11HTM     S632796   9.868   8.646   2.813  0.1380  0.3286 -0.3880
   12TAL    C5532797  10.031   8.283   2.714 -0.1681 -0.3888  0.0502
   12TAL    C5632798  10.090   8.174   2.801  1.1098  0.0635 -0.0623
   12TAL    C5732799  10.236   8.200   2.840  0.3608  0.4467  0.8581
   12TAL    C5832800  10.342   8.113   2.775  0.5257  0.1690 -0.1012
   12TAL    C5932801  10.483   8.099   2.842 -0.5350 -0.0146 -0.4466
   12TAL    C6032802  10.568   7.975   2.806 -0.2644 -0.8177 -0.3103
   13HTM    C6132803   9.992   8.572   2.582 -0.8621 -0.3200  0.1944
   13HTM    C6232804   9.977   8.700   2.538 -1.4874 -0.4115  0.1212
   13HTM    C6332805  10.007   8.716   2.398 -1.3276 -0.3040  0.1666
   13HTM    C6432806  10.044   8.601   2.336 -0.5804 -0.1311  0.2745
   13HTM     S732807  10.045   8.461   2.450 -0.0163 -0.0898  0.3274
   14TAL    C6532808   9.994   8.856   2.333 -0.6009 -0.1206 -1.0515
   14TAL    C6632809   9.880   8.870   2.235 -0.3859 -0.2048 -0.6345
   14TAL    C6732810   9.869   9.010   2.168 -0.3702  0.2693 -1.3964
   14TAL    C6832811   9.768   9.025   2.051 -0.0530  0.4743 -0.0847
   14TAL    C6932812   9.682   9.142   2.044 -0.5250 -0.9308 -0.0835
   14TAL    C7032813   9.664   9.197   1.906 -0.5258 -0.6699 -0.3158
   15HTM    C7132814  10.114   8.585   2.213  0.0061  0.2074  0.0824
   15HTM    C7232815  10.189   8.675   2.144  0.7965 -0.0424  0.5850
   15HTM    C7332816  10.240   8.623   2.019  0.9587 -0.0238  0.6437
   15HTM    C7432817  10.204   8.494   1.994  0.2919  0.2402  0.1858
   15HTM     S832818  10.102   8.427   2.127 -0.5995  0.4880 -0.3592
   16TAL    C7532819  10.310   8.698   1.912 -0.0563 -0.4825 -0.4174
   16TAL    C7632820  10.237   8.800   1.822  0.6039  0.5938  0.6286
   16TAL    C7732821  10.320   8.840   1.699 -0.4173 -0.9576 -0.5545
   16TAL    C7832822  10.396   8.728   1.628 -0.3845 -0.1267 -0.0223
   16TAL    C7932823  10.508   8.762   1.524 -0.2917 -0.4936 -0.6378
   16TAL    C8032824  10.602   8.652   1.531  0.0416  0.5406  0.0704
   17HTM    C8132825  10.240   8.395   1.891  0.2124 -0.1657  0.2998
   17HTM    C8232826  10.170   8.283   1.859  0.1834 -0.1237  0.2171
   17HTM    C8332827  10.230   8.206   1.754  0.0622  0.0398  0.0266
   17HTM    C8432828  10.346   8.259   1.706 -0.0013  0.1222 -0.0359
   17HTM     S932829  10.389   8.412   1.790  0.0878 -0.0006  0.1423
   18TAL    C8532830  10.161   8.086   1.674 -0.5780  0.1559 -0.2939
   18TAL    C8632831  10.020   8.047   1.719  0.5478 -0.4982 -0.3306
   18TAL    C8732832   9.943   7.932   1.666 -0.4055  0.9004  0.3051
   18TAL    C8832833   9.841   7.993   1.572 -0.1744 -0.2279  0.1587
   18TAL    C8932834   9.766   7.881   1.499 -0.2929  0.1910  0.2881
   18TAL    C9032835   9.670   7.945   1.404  0.2644 -1.3845  0.4995
   19HTM    C9132836  10.431   8.223   1.587 -0.2008  0.0597 -0.1460
   19HTM    C9232837  10.431   8.280   1.463  0.2600  0.6776  0.1282
   19HTM    C9332838  10.542   8.241   1.381  0.5165  1.0164  0.3074
   19HTM    C9432839  10.627   8.153   1.441  0.2514  0.6574  0.1700
   19HTM    S1032840  10.574   8.114   1.609 -0.3476 -0.1432 -0.1994
   20TAL    C9532841  10.574   8.302   1.242 -0.0213  0.0842  1.1436
   20TAL    C9632842  10.459   8.317   1.136  0.8527 -0.3183  0.4232
   20TAL    C9732843  10.516   8.326   0.996  1.0752  0.3851 -0.2351
   20TAL    C9832844  10.400   8.297   0.903  0.4630 -0.1156  0.2670
   20TAL    C9932845  10.469   8.241   0.785 -0.0286  0.3995  0.2520
   20TAL   C10032846  10.384   8.219   0.668  0.5840  0.3335  0.3819
   21HTM   C10132847  10.739   8.075   1.399 -0.3636  0.2488 -0.1926
   21HTM   C10232848  10.868   8.113   1.375 -0.4055  0.5155 -0.0052
   21HTM   C10332849  10.958   8.002   1.356 -0.1523  0.7020  0.1084
   21HTM   C10432850  10.899   7.880   1.366  0.0826  0.5776  0.0075
   21HTM    S1132851  10.722   7.895   1.401  0.0017  0.2125 -0.2406
   22TAL   C10532852  11.093   8.054   1.308  0.0834 -0.3535 -0.7592
   22TAL   C10632853  11.179   7.991   1.194 -0.4268 -0.0748 -0.1427
   22TAL   C10732854  11.170   7.988   1.041 -0.4112  0.5209 -0.7401
   22TAL   C10832855  11.038   7.985   0.987 -0.2481  1.4390  2.4155
   22TAL   C10932856  11.030   8.009   0.831 -1.0811  0.2179 -0.7668
   22TAL   C11032857  10.897   7.958   0.786  0.3193 -0.0707  0.0456
   23HTM   C11132858  10.963   7.753   1.370  0.0201  0.0493  0.4745
   23HTM   C11232859  10.949   7.658   1.273  0.1638  0.4272  0.0767
   23HTM   C11332860  11.031   7.541   1.294  0.5115  0.5541 -0.5310
   23HTM   C11432861  11.108   7.547   1.407  0.6329  0.2727 -0.5964
   23HTM    S1232862  11.082   7.702   1.496  0.3151 -0.1778  0.1098
   24TAL   C11532863  11.028   7.424   1.193  0.8058 -0.5082  0.3773
   24TAL   C11632864  11.024   7.430   1.036  0.2421 -1.0296 -0.0424
   24TAL   C11732865  10.942   7.547   0.981  0.1579 -0.0624 -1.0547
   24TAL   C11832866  10.917   7.545   0.828  0.9363 -0.0534 -0.8050
   24TAL   C11932867  10.796   7.618   0.785 -0.4472 -0.5547  0.9012
   24TAL   C12032868  10.658   7.593   0.825  0.0146  0.1817  1.5619
   25HTM   C12132869  11.197   7.447   1.464  0.0156 -0.0410 -0.9124
   25HTM   C12232870  11.218   7.456   1.598 -0.1364  0.3334 -0.9109
   25HTM   C12332871  11.276   7.337   1.656 -0.2144  0.4855 -0.5118
   25HTM   C12432872  11.300   7.238   1.565 -0.1218  0.2273 -0.2091
   25HTM    S1332873  11.250   7.287   1.399  0.0725 -0.2317 -0.4061
   26TAL   C12532874  11.298   7.314   1.810 -0.5691  0.6652  1.2646
   26TAL   C12632875  11.261   7.443   1.896  0.0129  0.4480  0.5935
   26TAL   C12732876  11.264   7.425   2.045 -0.6507 -0.5105  0.3058
   26TAL   C12832877  11.393   7.373   2.115  0.2068 -0.1956  0.6159
   26TAL   C12932878  11.537   7.417   2.071  1.4330 -0.1390 -0.2208
   26TAL   C13032879  11.636   7.360   2.180  0.3699 -0.3884  0.4207
   27HTM   C13132880  11.383   7.116   1.568  0.2791  0.7233 -0.1220
   27HTM   C13232881  11.478   7.076   1.658 -0.0112  0.1203 -0.0719
   27HTM   C13332882  11.562   6.969   1.611 -0.7249 -0.4957  0.0149
   27HTM   C13432883  11.531   6.927   1.485 -0.9788 -0.3623  0.0311
   27HTM    S1432884  11.393   7.020   1.416 -0.3312  0.5587 -0.0629
   28TAL   C13532885  11.676   6.910   1.695  0.3169  0.0571  0.2298
   28TAL   C13632886  11.729   7.010   1.806  0.4925  0.3183  0.4566
   28TAL   C13732887  11.845   6.957   1.882  0.0166  0.9530 -0.1942
   28TAL   C13832888  11.872   7.043   1.999 -0.4818 -0.6029 -0.4972
   28TAL   C13932889  11.983   6.987   2.081  0.1181  0.1033  0.1719
   28TAL   C14032890  12.020   7.085   2.195  0.8295  0.8875 -0.1023
   29HTM   C14132891  11.608   6.844   1.386 -0.2398 -0.1826  0.1836
   29HTM   C14232892  11.718   6.768   1.412 -0.2668 -0.0637  0.6534
   29HTM   C14332893  11.784   6.719   1.294  0.2944  0.0105  0.9305
   29HTM   C14432894  11.725   6.757   1.178  0.7495 -0.0520  0.6719
   29HTM    S1532895  11.579   6.859   1.208  0.5025 -0.2106  0.0536
   30TAL   C14532896  11.905   6.631   1.321 -0.6338 -0.0185  0.2317
   30TAL   C14632897  12.013   6.589   1.212 -0.3204 -0.7547 -0.3328
   30TAL   C14732898  12.062   6.443   1.209 -0.7851 -1.0372  0.0638
   30TAL   C14832899  12.184   6.406   1.117 -0.1835  0.3273 -0.3385
   30TAL   C14932900  12.176   6.483   0.993  0.1138 -1.0926  0.0698
   30TAL   C15032901  12.281   6.413   0.893 -0.3174 -0.4884  0.5274
   31HTM   C15132902  11.760   6.724   1.040  0.2081 -0.4422 -0.0643
   31HTM   C15232903  11.836   6.789   0.947  1.3084 -1.4166  0.1033
   31HTM   C15332904  11.845   6.719   0.822  1.3583 -1.9218  0.3811
   31HTM   C15432905  11.777   6.601   0.819  0.2959 -1.3327  0.4254
   31HTM    S1632906  11.695   6.569   0.976 -0.8587 -0.0845  0.1173
   32TAL   C15532907  11.922   6.785   0.710 -0.5325  0.1326  0.3236
   32TAL   C15632908  12.024   6.899   0.728  0.0702  1.0635  0.0738
   32TAL   C15732909  12.157   6.861   0.790 -0.4329  0.1262  1.0420
   32TAL   C15832910  12.240   6.759   0.705  0.1775  0.4210 -0.4080
   32TAL   C15932911  12.388   6.753   0.719 -0.8961  0.5860 -0.3227
   32TAL   C16032912  12.465   6.652   0.644 -0.6494  0.1367  1.2208
   33HTM   C16132913  11.795   6.494   0.733 -0.0618  0.0304 -0.0767
   33HTM   C16232914  11.849   6.376   0.776  0.5828  0.2207 -0.3373
   33HTM   C16332915  11.879   6.283   0.671  0.5516  0.3958 -0.5006
   33HTM   C16432916  11.849   6.330   0.546 -0.1169  0.3388 -0.3645
   33HTM    S1732917  11.778   6.496   0.553 -0.7638  0.0577 -0.0169
   34TAL   C16532918  11.922   6.137   0.695 -1.0697 -0.6669 -0.4452
   34TAL   C16632919  12.045   6.122   0.791 -0.1607  0.1201 -0.1886
   34TAL   C16732920  12.065   5.993   0.882 -0.4103  0.9041  1.2441
   34TAL   C16832921  11.942   5.939   0.950 -0.1238  0.8041  0.9695
   34TAL   C16932922  11.862   6.026   1.039  0.1843  0.0809 -0.2306
   34TAL   C17032923  11.927   6.127   1.134 -0.3838 -0.1736 -0.0870
   35HTM   C17132924  11.856   6.251   0.425 -0.6294 -0.0872 -0.5576
   35HTM   C17232925  11.757   6.190   0.354 -0.0978 -0.7529 -0.7481
   35HTM   C17332926  11.801   6.133   0.229  0.6148 -0.9078 -0.4335
   35HTM   C17432927  11.934   6.151   0.205  0.6264 -0.3599 -0.0031
   35HTM    S1832928  12.014   6.241   0.339 -0.2686  0.4000  0.0385
   36TAL   C17532929  11.693   6.083   0.126 -0.1536 -0.5735 -0.5353
   36TAL   C17632930  11.584   6.001   0.192  0.0338  0.1388  0.1218
   36TAL   C17732931  11.643   5.885   0.273 -0.6665  0.6561 -0.4278
   36TAL   C17832932  11.561   5.841   0.406 -0.0956 -0.0312  0.9536
   36TAL   C17932933  11.564   5.920   0.531 -0.2606 -0.7538  0.5394
   36TAL   C18032934  11.496   5.831   0.642  0.3081 -0.8939  0.2532
   37HTM   C18132935  12.011   6.120   0.082 -0.1659  0.0208 -0.5269
   37HTM   C18232936  12.049   6.201  -0.021 -0.6579 -0.0210 -0.7467
   37HTM   C18332937  12.139   6.138  -0.114 -0.2661  0.2625 -0.5703
   37HTM   C18432938  12.169   6.009  -0.083  0.5248  0.5206 -0.2160
   37HTM    S1932939  12.086   5.956   0.069  0.8383  0.4249 -0.0763
   38TAL   C18532940  12.210   6.200  -0.236 -0.8844  0.7771  1.0466
   38TAL   C18632941  12.213   6.349  -0.229 -0.6377  0.5613 -0.6399
   38TAL   C18732942  12.094   6.422  -0.275 -0.0597 -0.4990  0.7852
   38TAL   C18832943  12.116   6.496  -0.421 -0.5362 -0.1632 -0.0377
   38TAL   C18932944  12.224   6.601  -0.442  0.6197  0.2557 -0.1758
   38TAL   C19032945  12.232   6.629  -0.590 -0.7272 -0.2169  0.5646
   39HTM   C19132946  12.262   5.922  -0.151 -0.2820 -0.4061 -0.0293
   39HTM   C19232947  12.373   5.868  -0.093 -0.3578 -0.2927  0.2229
   39HTM   C19332948  12.443   5.774  -0.177  0.0215 -0.1013  0.3190
   39HTM   C19432949  12.385   5.757  -0.299  0.3864 -0.0685  0.1398
   39HTM    S2032950  12.237   5.858  -0.318  0.2786 -0.2786 -0.1664
   40TAL   C19532951  12.565   5.690  -0.130 -0.9259  0.3661 -0.2976
   40TAL   C19632952  12.668   5.753  -0.044 -0.7858  0.0999 -0.0722
   40TAL   C19732953  12.763   5.851  -0.113 -0.3931  0.3476  0.1090
   40TAL   C19832954  12.882   5.904  -0.037  0.2831  0.0467 -0.4728
   40TAL   C19932955  12.974   5.991  -0.113 -0.2618 -0.6942 -1.0981
   40TAL   C20032956  13.052   5.931  -0.234  0.4033  0.2246 -1.2965
   41HTM   C20132957  12.421   5.684  -0.414 -0.1260  0.3849 -0.3180
   41HTM   C20232958  12.422   5.744  -0.536  0.5226  0.1094 -0.4585
   41HTM   C20332959  12.469   5.660  -0.642  0.8478 -0.2168 -0.0625
   41HTM   C20432960  12.504   5.534  -0.601  0.4471 -0.1897  0.3803
   41HTM    S2132961  12.480   5.514  -0.424 -0.3783  0.2527  0.3306
   42TAL   C20532962  12.467   5.713  -0.785 -0.5175 -0.1050 -0.5179
   42TAL   C20632963  12.502   5.857  -0.808 -0.2480  0.2062  0.6726
   42TAL   C20732964  12.648   5.886  -0.798  0.5484  0.3603  0.0653
   42TAL   C20832965  12.673   6.041  -0.792 -0.9377 -0.5428 -0.2508
   42TAL   C20932966  12.664   6.123  -0.917  0.7877 -0.5127 -0.5277
   42TAL   C21032967  12.753   6.073  -1.024 -0.2223  0.7504 -0.7949
   43HTM   C21132968  12.556   5.417  -0.664  0.1493 -0.1665  0.0757
   43HTM   C21232969  12.593   5.298  -0.609  0.5465 -0.0225  0.1254
   43HTM   C21332970  12.660   5.209  -0.701  0.7818  0.1323  0.1447
   43HTM   C21432971  12.673   5.261  -0.827  0.5640  0.1065  0.1098
   43HTM    S2232972  12.602   5.427  -0.838  0.0407 -0.1172  0.0494
   44TAL   C21532973  12.705   5.069  -0.660 -0.0504  0.2403 -0.5454
   44TAL   C21632974  12.623   4.999  -0.550 -0.5943 -0.8325  0.1170
   44TAL   C21732975  12.507   4.911  -0.578  0.2438 -0.1382  0.4435
   44TAL   C21832976  12.464   4.849  -0.452  0.9254 -0.2114 -0.1446
   44TAL   C21932977  12.312   4.815  -0.440  0.4683  0.0101 -0.2088
   44TAL   C22032978  12.309   4.717  -0.330 -1.1231  0.7883  0.5264
   45HTM   C22132979  12.737   5.207  -0.946 -0.0289 -0.6272  0.3732
   45HTM   C22232980  12.674   5.177  -1.064  0.0309 -1.1133  0.4604
   45HTM   C22332981  12.765   5.158  -1.174  0.0484 -0.8186  0.4232
   45HTM   C22432982  12.896   5.174  -1.141  0.0020 -0.1079  0.3073
   45HTM    S2332983  12.916   5.213  -0.966 -0.0681  0.2471  0.2362
   46TAL   C22532984  12.703   5.116  -1.310  0.5561 -0.1740  0.2942
   46TAL   C22632985  12.635   5.240  -1.384 -0.1424  0.1049 -0.5471
   46TAL   C22732986  12.714   5.359  -1.440 -0.2239  0.3190 -0.8848
   46TAL   C22832987  12.819   5.343  -1.550  0.0497  0.7430  0.8452
   46TAL   C22932988  12.777   5.271  -1.677 -0.4787  1.1204  1.0626
   46TAL   C23032989  12.884   5.257  -1.793 -0.1336  0.2426  0.1207
   47HTM   C23132990  13.025   5.160  -1.213 -0.0358 -0.8430 -0.1447
   47HTM   C23232991  13.150   5.166  -1.160 -0.0970 -0.4692 -0.0415
   47HTM   C23332992  13.255   5.140  -1.254  0.0871  0.2563 -0.0532
   47HTM   C23432993  13.210   5.113  -1.380  0.2886  0.4355 -0.1658
   47HTM    S2432994  13.030   5.119  -1.389  0.2614 -0.3036 -0.2661
   48TAL   C23532995  13.399   5.139  -1.217 -0.0421  0.2723 -1.2524
   48TAL   C23632996  13.526   5.214  -1.265 -0.1737 -0.2599  0.1517
   48TAL   C23732997  13.577   5.194  -1.392  0.8973  0.3951  0.0774
   48TAL   C23832998  13.719   5.231  -1.416  0.7300  0.1541 -1.3398
   48TAL   C23932999  13.756   5.215  -1.552 -0.4971  0.3731 -0.1922
   48TAL   C24033000  13.823   5.076  -1.577  0.3764  0.8511  0.0039
    1HTM     C133001   1.715   8.030   2.020 -0.4138  0.9048  0.3464
    1HTM     C233002   1.600   8.061   1.952 -0.2215  1.3583  0.2201
    1HTM     C333003   1.623   8.103   1.816  0.0699  0.8857  0.1186
    1HTM     C433004   1.755   8.104   1.780  0.0998  0.0725  0.1676
    1HTM     S133005   1.861   8.052   1.916 -0.2405 -0.1619  0.3470
    2TAL     C533006   1.507   8.136   1.721 -0.4740 -1.5525  0.0421
    2TAL     C633007   1.374   8.181   1.786  0.3013  0.0753 -0.1753
    2TAL     C733008   1.270   8.199   1.677 -0.3092  0.8338 -0.4449
    2TAL     C833009   1.252   8.324   1.590 -0.2668 -0.2719  0.7454
    2TAL     C933010   1.292   8.454   1.659  0.5620 -0.1199  0.6514
    2TAL    C1033011   1.421   8.521   1.612 -0.5984  0.1146  0.5984
    3HTM    C1133012   1.806   8.120   1.650 -0.7857 -0.1627 -0.8342
    3HTM    C1233013   1.792   8.240   1.586 -1.3457 -0.4313 -1.2304
    3HTM    C1333014   1.862   8.247   1.461 -1.1604 -0.4272 -1.1270
    3HTM    C1433015   1.930   8.133   1.429 -0.4592 -0.1566 -0.6521
    3HTM     S233016   1.910   8.007   1.556  0.0254  0.1171 -0.2957
    4TAL    C1533017   1.866   8.377   1.382 -0.9122 -0.6784  0.5269
    4TAL    C1633018   1.786   8.493   1.414  0.7817  0.3749 -0.2227
    4TAL    C1733019   1.775   8.582   1.293 -0.3312 -0.6995  0.9552
    4TAL    C1833020   1.646   8.662   1.277 -0.7642 -0.2954 -0.4838
    4TAL    C1933021   1.652   8.797   1.367  0.1656  1.1522 -1.1903
    4TAL    C2033022   1.756   8.903   1.369 -0.5988  0.1981  0.3927
    5HTM    C2133023   2.017   8.099   1.318 -0.1833 -0.3476 -0.3656
    5HTM    C2233024   2.033   7.972   1.268 -0.0094 -0.1080 -0.9369
    5HTM    C2333025   2.128   7.965   1.160  0.0708  0.4957 -0.9178
    5HTM    C2433026   2.184   8.084   1.127 -0.0421  0.7157 -0.3319
    5HTM     S333027   2.120   8.218   1.231 -0.2600  0.1740  0.2454
    6TAL    C2533028   2.170   7.827   1.112 -0.0570  0.6310 -0.4686
    6TAL    C2633029   2.070   7.706   1.091 -0.6119  0.0151 -0.6435
    6TAL    C2733030   1.985   7.715   0.969 -0.1861 -0.5801 -0.2185
    6TAL    C2833031   1.877   7.612   0.937  0.2469 -0.0345 -0.4865
    6TAL    C2933032   1.779   7.579   1.055 -0.6528 -0.1659  0.2047
    6TAL    C3033033   1.661   7.486   0.996  0.2294  0.8753 -0.3104
    7HTM    C3133034   2.295   8.117   1.031  0.1217  0.6242 -0.2145
    7HTM    C3233035   2.310   8.078   0.901  0.4576  0.3965 -0.1112
    7HTM    C3333036   2.436   8.116   0.844  0.7012  0.0908  0.2170
    7HTM    C3433037   2.518   8.183   0.930  0.5512  0.0851  0.3641
    7HTM     S433038   2.440   8.204   1.092  0.0870  0.4686  0.0973
    8TAL    C3533039   2.468   8.077   0.699 -0.8624 -0.6929  0.3869
    8TAL    C3633040   2.495   7.936   0.653  0.2146  0.3610  0.0904
    8TAL    C3733041   2.392   7.825   0.669  0.7261 -0.5900 -1.1100
    8TAL    C3833042   2.434   7.699   0.604 -0.2165  0.1715 -0.7174
    8TAL    C3933043   2.344   7.586   0.623 -0.0025  0.9827  0.3781
    8TAL    C4033044   2.383   7.503   0.740  0.0433  1.0400 -0.8674
    9HTM    C4133045   2.655   8.224   0.940 -0.2625 -0.3407  0.0392
    9HTM    C4233046   2.705   8.348   0.913 -0.3399 -0.3946 -0.3710
    9HTM    C4333047   2.839   8.368   0.962 -0.2320 -0.2534 -0.7168
    9HTM    C4433048   2.891   8.260   1.026 -0.0724 -0.0922 -0.5703
    9HTM     S533049   2.774   8.123   1.029 -0.0458 -0.1060  0.0204
   10TAL    C4533050   2.909   8.501   0.943 -0.4800 -0.0773  0.7071
   10TAL    C4633051   2.839   8.618   1.007  0.5443 -0.7077 -0.9831
   10TAL    C4733052   2.818   8.635   1.153 -0.9007  0.8091 -0.4570
   10TAL    C4833053   2.741   8.750   1.199  0.3603 -0.9831  0.1018
   10TAL    C4933054   2.734   8.798   1.342  0.3562 -0.4597  0.2400
   10TAL    C5033055   2.603   8.883   1.366 -0.0887 -0.1953  1.1318
   11HTM    C5133056   3.022   8.244   1.085  0.1104 -0.4478 -0.8144
   11HTM    C5233057   3.043   8.183   1.204  0.1836 -0.3159 -0.7597
   11HTM    C5333058   3.175   8.205   1.258 -0.0090  0.3173 -0.5284
   11HTM    C5433059   3.254   8.283   1.179 -0.2293  0.6686 -0.4067
   11HTM     S633060   3.168   8.335   1.030 -0.2102  0.2230 -0.5762
   12TAL    C5533061   3.207   8.142   1.393  0.2200 -0.3676 -0.2466
   12TAL    C5633062   3.180   8.002   1.432 -0.2510 -0.0510 -0.7398
   12TAL    C5733063   3.267   7.879   1.389  0.5442  0.1164 -1.0845
   12TAL    C5833064   3.314   7.873   1.245  0.0842 -1.3469 -0.1279
   12TAL    C5933065   3.449   7.926   1.208 -0.8531 -0.7190  0.1916
   12TAL    C6033066   3.480   7.973   1.060  0.2394  0.1445  0.6195
   13HTM    C6133067   3.397   8.304   1.198 -0.1540  0.7735  0.1727
   13HTM    C6233068   3.472   8.270   1.307 -0.4675  0.4826  0.3028
   13HTM    C6333069   3.613   8.295   1.290 -0.3555  0.0558  0.5893
   13HTM    C6433070   3.646   8.347   1.168  0.0434  0.0213  0.6778
   13HTM     S733071   3.499   8.370   1.065  0.3106  0.5293  0.4039
   14TAL    C6533072   3.717   8.260   1.395 -0.6534 -0.3841 -1.1964
   14TAL    C6633073   3.728   8.106   1.421 -0.5017 -0.1281  0.9791
   14TAL    C6733074   3.621   8.047   1.524  0.1553  0.2540 -0.0166
   14TAL    C6833075   3.626   8.120   1.664 -0.4818  0.8225 -0.0419
   14TAL    C6933076   3.503   8.058   1.742 -0.5350  0.6788 -0.3160
   14TAL    C7033077   3.398   8.181   1.741 -0.2532  0.6817 -0.9993
   15HTM    C7133078   3.766   8.396   1.101 -0.0710  0.1597 -0.5803
   15HTM    C7233079   3.790   8.356   0.973 -0.0027  0.1183 -0.5542
   15HTM    C7333080   3.898   8.427   0.909 -0.0734  0.2062 -0.5746
   15HTM    C7433081   3.955   8.522   0.988 -0.1957  0.3154 -0.6163
   15HTM     S833082   3.877   8.529   1.151 -0.2312  0.3152 -0.6332
   16TAL    C7533083   3.933   8.376   0.768 -0.5186 -0.4254  0.1986
   16TAL    C7633084   3.904   8.236   0.720  0.8459  0.1053  1.1519
   16TAL    C7733085   3.766   8.236   0.672  0.7386 -0.3953  0.9076
   16TAL    C7833086   3.702   8.108   0.607 -0.1107  0.3651 -0.2119
   16TAL    C7933087   3.670   8.008   0.718  0.0922  0.3270 -0.4557
   16TAL    C8033088   3.558   7.914   0.680  0.5183  0.0793 -0.2491
   17HTM    C8133089   4.083   8.590   0.969 -0.4117  0.3469 -0.5557
   17HTM    C8233090   4.188   8.597   1.056 -0.6450  0.6773 -0.2971
   17HTM    C8333091   4.308   8.653   0.999 -0.5153  0.5362 -0.1667
   17HTM    C8433092   4.294   8.689   0.868 -0.1832  0.0979 -0.3260
   17HTM     S933093   4.128   8.655   0.807 -0.0071 -0.1724 -0.6555
   18TAL    C8533094   4.446   8.652   1.068 -0.4344  0.1725  1.1668
   18TAL    C8633095   4.515   8.516   1.103 -0.2880  0.5768 -0.4605
   18TAL    C8733096   4.654   8.547   1.157  0.3446  0.4291 -1.4413
   18TAL    C8833097   4.724   8.430   1.225 -0.2668  0.0034 -0.6026
   18TAL    C8933098   4.871   8.409   1.231 -0.0622  0.0987 -0.2569
   18TAL    C9033099   4.902   8.259   1.244  1.3705 -0.4054 -0.0054
   19HTM    C9133100   4.379   8.736   0.757 -0.3138  0.2046  0.3049
   19HTM    C9233101   4.443   8.665   0.659 -0.6413  0.3107  0.0096
   19HTM    C9333102   4.539   8.743   0.585 -0.7260  0.3343 -0.0745
   19HTM    C9433103   4.548   8.873   0.625 -0.4629  0.2462  0.1567
   19HTM    S1033104   4.435   8.907   0.762 -0.0850  0.1255  0.5012
   20TAL    C9533105   4.620   8.679   0.467 -0.7885  0.4107 -0.6414
   20TAL    C9633106   4.567   8.571   0.370  0.4201  0.4871  0.3286
   20TAL    C9733107   4.675   8.535   0.268 -0.3568  0.3889 -0.7859
   20TAL    C9833108   4.627   8.450   0.156 -0.4966  0.9555 -0.9256
   20TAL    C9933109   4.642   8.302   0.179  0.5356 -1.0836  0.2259
   20TAL   C10033110   4.773   8.238   0.221 -0.2525 -0.1697 -0.7262
   21HTM   C10133111   4.622   8.970   0.558  0.1995 -0.3474  0.0679
   21HTM   C10233112   4.577   9.050   0.457 -0.0530 -0.3428  0.1853
   21HTM   C10333113   4.680   9.123   0.390 -0.2557 -0.1068  0.1272
   21HTM   C10433114   4.805   9.099   0.438 -0.1576  0.0686 -0.0344
   21HTM    S1133115   4.802   8.981   0.575  0.2011 -0.0513 -0.1265
   22TAL   C10533116   4.655   9.232   0.277  1.6798 -0.0813  0.0849
   22TAL   C10633117   4.520   9.317   0.287 -0.4117 -0.1024  0.4905
   22TAL   C10733118   4.503   9.438   0.194  0.1725 -0.6297 -0.1879
   22TAL   C10833119   4.505   9.405   0.039 -0.1122 -0.2907 -0.2644
   22TAL   C10933120   4.363   9.380  -0.014 -0.8947  0.0092  0.8194
   22TAL   C11033121   4.370   9.288  -0.134 -1.1025 -0.8017 -0.3315
   23HTM   C11133122   4.930   9.161   0.407 -0.4597 -0.0871  1.1607
   23HTM   C11233123   4.960   9.275   0.338 -0.6671 -0.1023  1.0411
   23HTM   C11333124   5.101   9.308   0.339 -0.5673 -0.4506  0.0660
   23HTM   C11433125   5.177   9.218   0.408 -0.2841 -0.7006 -0.5579
   23HTM    S1233126   5.077   9.085   0.478 -0.1198 -0.5141  0.0423
   24TAL   C11533127   5.164   9.427   0.267  0.4590 -0.3932 -0.5669
   24TAL   C11633128   5.066   9.544   0.229 -0.5091 -0.1247 -0.2365
   24TAL   C11733129   4.972   9.592   0.349 -0.9123 -0.3693 -0.7994
   24TAL   C11833130   4.859   9.687   0.307 -0.3117  0.4138 -0.0799
   24TAL   C11933131   4.754   9.717   0.430 -0.6982  1.1221  0.9171
   24TAL   C12033132   4.642   9.814   0.412 -0.0356 -0.5772  0.2588
   25HTM   C12133133   5.323   9.205   0.434  0.6660 -0.2050 -0.5148
   25HTM   C12233134   5.418   9.302   0.418  0.8389 -0.4065 -0.7139
   25HTM   C12333135   5.541   9.274   0.487  0.6953 -0.3591 -0.4344
   25HTM   C12433136   5.541   9.156   0.555  0.4129 -0.1213 -0.0222
   25HTM    S1333137   5.383   9.070   0.538  0.3055  0.0624  0.0456
   26TAL   C12533138   5.657   9.374   0.504  0.1610 -0.0837  0.1520
   26TAL   C12633139   5.680   9.481   0.404  0.7681 -0.3370  0.1907
   26TAL   C12733140   5.587   9.595   0.406  0.9976 -1.2133 -0.0690
   26TAL   C12833141   5.541   9.652   0.271  0.5549 -0.1581 -0.1507
   26TAL   C12933142   5.424   9.745   0.267 -0.0794  0.6254  0.2580
   26TAL   C13033143   5.466   9.840   0.159 -1.0123  0.0564 -0.0157
   27HTM   C13133144   5.645   9.090   0.630 -0.6513  0.4776  0.3507
   27HTM   C13233145   5.777   9.083   0.599 -0.5809  1.1964  0.4652
   27HTM   C13333146   5.852   8.991   0.682 -0.2458  1.2493  0.2263
   27HTM   C13433147   5.776   8.928   0.776 -0.0607  0.5709 -0.0704
   27HTM    S1433148   5.603   8.980   0.767 -0.2970 -0.1931 -0.0710
   28TAL   C13533149   6.006   8.978   0.668  1.3559 -0.0533 -0.2607
   28TAL   C13633150   6.103   9.082   0.728  1.1677  0.3634  1.0861
   28TAL   C13733151   6.248   9.036   0.719  0.8080  0.8762  0.3794
   28TAL   C13833152   6.350   9.156   0.732  0.2499  0.2729 -1.0093
   28TAL   C13933153   6.485   9.088   0.742 -0.6801 -0.8393 -0.1739
   28TAL   C14033154   6.587   9.203   0.766  0.1202  0.5051 -0.1840
   29HTM   C14133155   5.820   8.857   0.892 -1.1381 -0.2132  0.2651
   29HTM   C14233156   5.779   8.730   0.918 -1.7202  0.0508  0.6689
   29HTM   C14333157   5.809   8.686   1.052 -0.9786 -0.0150  0.4898
   29HTM   C14433158   5.873   8.780   1.127  0.1687 -0.3290 -0.0505
   29HTM    S1533159   5.900   8.932   1.035  0.4036 -0.5687 -0.3775
   30TAL   C14533160   5.775   8.546   1.107 -0.2048 -0.5101  0.9884
   30TAL   C14633161   5.643   8.474   1.082  0.7680  0.1176  1.6268
   30TAL   C14733162   5.583   8.349   1.154  0.1581  1.0143 -0.8114
   30TAL   C14833163   5.464   8.292   1.087 -0.1728  0.4415 -0.4080
   30TAL   C14933164   5.422   8.154   1.139 -0.2305  0.1046  1.1533
   30TAL   C15033165   5.286   8.123   1.075 -0.0554 -0.1065 -0.5592
   31HTM   C15133166   5.918   8.778   1.269  0.2417  0.1839  0.1634
   31HTM   C15233167   6.042   8.741   1.314  0.2495  0.1998  0.1549
   31HTM   C15333168   6.052   8.732   1.457  0.2348  0.1106  0.1504
   31HTM   C15433169   5.936   8.762   1.522  0.2159  0.0265  0.1554
   31HTM    S1633170   5.804   8.804   1.406  0.2151  0.0542  0.1663
   32TAL   C15533171   6.178   8.667   1.510 -0.7950  0.2062  0.0717
   32TAL   C15633172   6.210   8.512   1.503 -1.0527 -0.0164 -1.5242
   32TAL   C15733173   6.116   8.409   1.439 -0.9924  0.3396  0.7471
   32TAL   C15833174   5.989   8.394   1.514  0.1150 -0.8357  0.6600
   32TAL   C15933175   5.884   8.304   1.456 -0.1641  0.4472 -0.0500
   32TAL   C16033176   5.801   8.257   1.585 -0.6781 -0.4749  0.0954
   33HTM   C16133177   5.930   8.799   1.662  0.2735 -0.3061 -0.0662
   33HTM   C16233178   5.920   8.714   1.769  0.6578 -0.2248  0.0335
   33HTM   C16333179   5.909   8.782   1.896  0.5411 -0.1268 -0.0293
   33HTM   C16433180   5.909   8.918   1.885  0.0676 -0.1336 -0.1770
   33HTM    S1733181   5.924   8.972   1.713 -0.2700 -0.2646 -0.2487
   34TAL   C16533182   5.910   8.705   2.028  1.3773 -0.0084 -0.1815
   34TAL   C16633183   5.805   8.589   2.047  0.6085 -0.3603  0.2644
   34TAL   C16733184   5.850   8.526   2.181  0.8323 -0.1595  0.5301
   34TAL   C16833185   5.913   8.391   2.172 -0.4606  0.6400 -0.6242
   34TAL   C16933186   5.839   8.258   2.148  0.1568 -0.6069  0.3035
   34TAL   C17033187   5.837   8.228   2.008  0.5864  0.7530  1.1017
   35HTM   C17133188   5.894   9.014   1.992 -1.1793  0.0942  0.3488
   35HTM   C17233189   5.814   9.124   2.000 -1.4085 -0.1211  1.2278
   35HTM   C17333190   5.820   9.191   2.127 -0.5354 -0.3672  1.3292
   35HTM   C17433191   5.904   9.132   2.216  0.3598 -0.3397  0.5271
   35HTM    S1833192   5.984   8.987   2.145  0.1678  0.0019 -0.4254
   36TAL   C17533193   5.757   9.329   2.121 -0.0049 -0.4067  0.0415
   36TAL   C17633194   5.634   9.350   2.216 -0.3763  0.1197  0.5862
   36TAL   C17733195   5.512   9.261   2.182  0.2804  0.6007  0.2935
   36TAL   C17833196   5.409   9.303   2.083  0.9634  0.0444 -0.2819
   36TAL   C17933197   5.429   9.285   1.931  0.5048  0.5445 -0.6391
   36TAL   C18033198   5.421   9.142   1.891  0.5328  1.0614 -0.5083
   37HTM   C18133199   5.938   9.162   2.357  0.2139 -0.2860 -0.5504
   37HTM   C18233200   5.866   9.148   2.472  0.1671 -0.4478 -0.5987
   37HTM   C18333201   5.945   9.163   2.591  0.0587 -0.2913 -0.5456
   37HTM   C18433202   6.077   9.188   2.568  0.0227 -0.0102 -0.4570
   37HTM    S1933203   6.112   9.195   2.391  0.1238  0.0798 -0.4334
   38TAL   C18533204   5.877   9.162   2.731  0.4498 -0.1672  0.9891
   38TAL   C18633205   5.771   9.268   2.778 -0.4422  0.1402  0.0210
   38TAL   C18733206   5.824   9.408   2.828  0.6642 -0.9977 -0.2129
   38TAL   C18833207   5.948   9.417   2.916  0.3143  0.4652 -0.8336
   38TAL   C18933208   5.989   9.564   2.933  0.3022  0.4143 -0.5343
   38TAL   C19033209   6.102   9.560   3.041  0.0403  0.5765  0.2666
   39HTM   C19133210   6.193   9.211   2.654  0.4514 -0.1867  0.2868
   39HTM   C19233211   6.305   9.287   2.644  0.4386 -0.1519  0.3980
   39HTM   C19333212   6.389   9.282   2.761  0.3318 -0.1383  0.4750
   39HTM   C19433213   6.340   9.203   2.861  0.2632 -0.1618  0.4224
   39HTM    S2033214   6.183   9.127   2.814  0.3288 -0.2044  0.2704
   40TAL   C19533215   6.526   9.345   2.755  0.0200  0.3044 -0.9970
   40TAL   C19633216   6.559   9.479   2.810  0.6897 -1.0791 -0.1636
   40TAL   C19733217   6.481   9.602   2.767 -0.4067  0.5672  0.4724
   40TAL   C19833218   6.497   9.721   2.861  0.1346  0.1263  0.0130
   40TAL   C19933219   6.393   9.835   2.833  0.0935  0.0097  0.0781
   40TAL   C20033220   6.460   9.966   2.887 -0.2856 -0.6096  0.5347
   41HTM   C20133221   6.414   9.165   2.976  0.1484 -0.6997  0.0899
   41HTM   C20233222   6.461   9.046   3.022  0.4467 -0.4909  0.3388
   41HTM   C20333223   6.508   9.050   3.158  0.5125 -0.0741  0.3076
   41HTM   C20433224   6.496   9.172   3.217  0.2642  0.0347  0.0349
   41HTM    S2133225   6.424   9.293   3.103 -0.0744 -0.3841 -0.2055
   42TAL   C20533226   6.554   8.917   3.204  0.8982  0.3113  0.3917
   42TAL   C20633227   6.554   8.876   3.353  0.2374  0.0903 -0.5879
   42TAL   C20733228   6.407   8.875   3.402 -1.1644 -0.2551 -1.2769
   42TAL   C20833229   6.421   8.828   3.551  1.3764  0.6051 -0.3228
   42TAL   C20933230   6.443   8.687   3.580  1.1206 -0.0290 -0.0136
   42TAL   C21033231   6.460   8.658   3.734  0.7965 -1.3401 -0.0703
   43HTM   C21133232   6.551   9.227   3.337 -0.5440  0.5025  0.1952
   43HTM   C21233233   6.674   9.283   3.353 -0.8795  1.3022  0.0865
   43HTM   C21333234   6.711   9.303   3.491 -0.7672  1.2617  0.0629
   43HTM   C21433235   6.615   9.262   3.580 -0.3459  0.4312  0.1536
   43HTM    S2233236   6.471   9.195   3.495 -0.0562 -0.3705  0.2767
   44TAL   C21533237   6.855   9.352   3.519 -0.3350  0.2753 -0.5132
   44TAL   C21633238   6.960   9.244   3.526 -0.8120  1.1310 -1.1501
   44TAL   C21733239   7.036   9.204   3.411 -0.2836 -0.0522  0.8082
   44TAL   C21833240   6.950   9.084   3.353  0.2455 -1.2544 -0.3904
   44TAL   C21933241   7.055   8.980   3.312  0.9861  0.5294 -1.0151
   44TAL   C22033242   7.011   8.830   3.330 -0.5892 -0.5093 -0.5655
   45HTM   C22133243   6.616   9.263   3.731 -0.7734  0.1998  0.1355
   45HTM   C22233244   6.547   9.169   3.803 -1.0325  0.4354  0.1982
   45HTM   C22333245   6.546   9.194   3.945 -0.7275  0.3858  0.2102
   45HTM   C22433246   6.614   9.307   3.981 -0.2358  0.1121  0.1565
   45HTM    S2333247   6.685   9.391   3.838 -0.1191 -0.1055  0.0861
   46TAL   C22533248   6.484   9.098   4.050  0.1636  0.5198  0.2202
   46TAL   C22633249   6.345   9.028   4.033 -0.2704 -0.5956 -0.4083
   46TAL   C22733250   6.270   8.969   4.156  0.3730 -0.2548 -0.4946
   46TAL   C22833251   6.234   9.056   4.274 -1.2322  0.3427  0.3561
   46TAL   C22933252   6.162   8.967   4.371  0.2406  0.6918 -0.2498
   46TAL   C23033253   6.110   9.048   4.492  0.1634 -0.2574  0.1953
   47HTM   C23133254   6.644   9.370   4.111 -0.3374  0.4956 -0.0136
   47HTM   C23233255   6.658   9.503   4.137 -0.3333  0.4625  0.1541
   47HTM   C23333256   6.693   9.532   4.274 -0.3560  0.2909  0.1967
   47HTM   C23433257   6.706   9.421   4.352 -0.3776  0.1928  0.0616
   47HTM    S2433258   6.675   9.270   4.258 -0.3709  0.3111 -0.1316
   48TAL   C23533259   6.712   9.678   4.331  0.2903 -0.3086  0.1810
   48TAL   C23633260   6.705   9.704   4.483 -0.0880 -0.0886 -0.7224
   48TAL   C23733261   6.568   9.661   4.552 -0.1390  1.0218  0.2336
   48TAL   C23833262   6.428   9.654   4.489  0.9132 -0.0664  0.3842
   48TAL   C23933263   6.362   9.787   4.423 -0.3340  1.3908 -0.1799
   48TAL   C24033264   6.348   9.900   4.506 -0.3994 -0.0015  0.2131
    1HTM     C133265   5.009   5.503   1.321 -0.7040 -0.0651  0.1922
    1HTM     C233266   5.067   5.627   1.315 -0.6391 -0.0802  0.4740
    1HTM     C333267   5.151   5.646   1.200 -0.2812 -0.0083  0.7434
    1HTM     C433268   5.157   5.538   1.118 -0.0733  0.0617  0.6669
    1HTM     S133269   5.058   5.401   1.181 -0.3151  0.0419  0.2455
    2TAL     C533270   5.222   5.781   1.169  0.0842 -0.5316 -0.3652
    2TAL     C633271   5.240   5.891   1.277  0.4705 -0.0842  0.3713
    2TAL     C733272   5.354   5.873   1.371 -0.6925  0.8012  0.0901
    2TAL     C833273   5.351   5.955   1.497 -0.5120  0.2624  0.2862
    2TAL     C933274   5.245   5.941   1.596  0.9026  0.9056  0.4547
    2TAL    C1033275   5.137   6.046   1.589 -0.0780  0.9752  0.0236
    3HTM    C1133276   5.215   5.510   0.985 -0.1712 -0.1668 -0.3110
    3HTM    C1233277   5.188   5.401   0.909 -0.0538  0.0026 -0.5985
    3HTM    C1333278   5.253   5.402   0.780  0.1664  0.2785 -0.4854
    3HTM    C1433279   5.329   5.514   0.759  0.2167  0.3196 -0.1116
    3HTM     S233280   5.324   5.626   0.900 -0.0117  0.0104  0.1283
    4TAL    C1533281   5.221   5.280   0.703 -0.0442  0.2788  1.8138
    4TAL    C1633282   5.337   5.188   0.654  0.5241 -0.1906  0.6522
    4TAL    C1733283   5.293   5.068   0.559 -0.3887  0.0606 -0.3947
    4TAL    C1833284   5.286   5.106   0.417  0.5761 -0.1825  0.2021
    4TAL    C1933285   5.422   5.145   0.349 -0.3010 -0.3892 -1.2331
    4TAL    C2033286   5.417   5.183   0.204  0.3518 -0.0570  0.1219
    5HTM    C2133287   5.413   5.565   0.658 -0.3115  0.1216 -0.1395
    5HTM    C2233288   5.433   5.697   0.628 -0.7939  0.1669 -0.2745
    5HTM    C2333289   5.499   5.717   0.502 -0.5138  0.2627 -0.1140
    5HTM    C2433290   5.529   5.602   0.436  0.1821  0.2907  0.1434
    5HTM     S333291   5.476   5.457   0.529  0.5405  0.1970  0.2036
    6TAL    C2533292   5.524   5.865   0.444 -1.0550 -0.3676 -0.9866
    6TAL    C2633293   5.513   5.990   0.534 -0.5772  0.1020 -0.9050
    6TAL    C2733294   5.577   6.105   0.461  0.0047 -1.0143  0.5343
    6TAL    C2833295   5.549   6.247   0.494 -0.3680 -0.7547  0.5204
    6TAL    C2933296   5.408   6.291   0.465  0.1136  0.1814 -0.5488
    6TAL    C3033297   5.373   6.437   0.421 -1.0031  0.6512  0.3745
    7HTM    C3133298   5.609   5.587   0.317  0.3263  0.4779  0.3058
    7HTM    C3233299   5.741   5.552   0.308  0.2097  0.1376 -0.1482
    7HTM    C3333300   5.797   5.574   0.177 -0.2053 -0.0889 -0.3670
    7HTM    C3433301   5.708   5.624   0.087 -0.4049  0.0784 -0.0799
    7HTM     S433302   5.545   5.649   0.161 -0.0818  0.5388  0.4936
    8TAL    C3533303   5.937   5.536   0.163  0.4487  0.8645  0.1732
    8TAL    C3633304   6.047   5.637   0.189 -0.1541 -1.1685 -0.2561
    8TAL    C3733305   6.173   5.569   0.166  0.4014 -0.9235 -0.3772
    8TAL    C3833306   6.223   5.578   0.025 -0.4777 -0.3558 -0.8302
    8TAL    C3933307   6.331   5.470   0.005 -0.0142 -0.3736  0.5770
    8TAL    C4033308   6.422   5.515  -0.113 -0.0182 -0.8850  0.0040
    9HTM    C4133309   5.720   5.659  -0.051 -0.1050 -0.1961  0.5001
    9HTM    C4233310   5.616   5.692  -0.133 -0.2820 -0.2365  0.7093
    9HTM    C4333311   5.655   5.720  -0.268 -0.6055 -0.5578  0.5457
    9HTM    C4433312   5.789   5.709  -0.290 -0.6749 -0.7624  0.2127
    9HTM     S533313   5.877   5.661  -0.140 -0.3347 -0.5637  0.0780
   10TAL    C4533314   5.557   5.788  -0.357 -0.1935  0.1151 -0.3523
   10TAL    C4633315   5.499   5.932  -0.328 -0.5507 -0.0734  0.7239
   10TAL    C4733316   5.413   5.982  -0.441 -0.2377 -0.6544 -0.1636
   10TAL    C4833317   5.303   6.107  -0.438 -0.9281  0.4715  0.1005
   10TAL    C4933318   5.355   6.255  -0.410  0.5279  0.3564 -0.3275
   10TAL    C5033319   5.408   6.319  -0.534  0.2333  0.4205  0.0559
   11HTM    C5133320   5.856   5.694  -0.418 -0.6585 -0.0698 -0.3466
   11HTM    C5233321   5.940   5.591  -0.452 -0.4312  0.0371 -0.1180
   11HTM    C5333322   5.992   5.601  -0.586  0.1377  0.2418  0.1109
   11HTM    C5433323   5.948   5.710  -0.654  0.3441  0.2908  0.0568
   11HTM     S633324   5.837   5.811  -0.554 -0.1679  0.0809 -0.2901
   12TAL    C5533325   6.088   5.511  -0.655 -0.2969  0.0137 -0.7435
   12TAL    C5633326   6.127   5.374  -0.588  0.3231 -0.8251 -0.2700
   12TAL    C5733327   6.185   5.382  -0.458 -0.8371  1.0528 -0.6425
   12TAL    C5833328   6.323   5.317  -0.462  0.5316  0.8594 -0.1078
   12TAL    C5933329   6.348   5.175  -0.491  0.4962 -0.1821 -0.2276
   12TAL    C6033330   6.308   5.076  -0.386  0.6394  0.7019  0.1289
   13HTM    C6133331   5.972   5.756  -0.789  0.3254 -0.9444 -0.5407
   13HTM    C6233332   6.077   5.737  -0.874  0.0870 -1.0257 -0.8185
   13HTM    C6333333   6.060   5.801  -1.002  0.0925 -0.4448 -0.5343
   13HTM    C6433334   5.942   5.869  -1.014  0.3347  0.0794 -0.0405
   13HTM     S733335   5.843   5.857  -0.864  0.5770 -0.1215  0.1058
   14TAL    C6533336   6.173   5.806  -1.101  0.3279  0.1081 -0.4159
   14TAL    C6633337   6.281   5.897  -1.050 -0.5247  0.6951  0.3429
   14TAL    C6733338   6.417   5.870  -1.106  0.3955 -0.6884 -0.8409
   14TAL    C6833339   6.521   5.972  -1.057 -1.1622  0.0967  0.1127
   14TAL    C6933340   6.604   5.951  -0.930 -0.6573  0.0259 -0.4445
   14TAL    C7033341   6.550   6.058  -0.831 -0.1931 -0.2504 -0.8648
   15HTM    C7133342   5.883   5.947  -1.114 -0.7422  0.0277  0.0157
   15HTM    C7233343   5.804   5.924  -1.222 -1.3505  0.1293  0.4261
   15HTM    C7333344   5.764   6.043  -1.292 -1.0691  0.1522  0.2990
   15HTM    C7433345   5.812   6.158  -1.236 -0.2458  0.0679 -0.2082
   15HTM     S833346   5.913   6.124  -1.091  0.2414 -0.0475 -0.5675
   16TAL    C7533347   5.657   6.039  -1.395  0.1110  1.0439  0.6777
   16TAL    C7633348   5.508   5.987  -1.354 -1.1950 -0.6042  0.3580
   16TAL    C7733349   5.444   6.031  -1.209  0.7219 -0.3804  0.2616
   16TAL    C7833350   5.449   6.187  -1.180  0.2322  0.1633  0.1354
   16TAL    C7933351   5.348   6.280  -1.252 -0.5871  0.1816 -0.3050
   16TAL    C8033352   5.345   6.414  -1.174  0.5846 -0.2573 -0.4477
   17HTM    C8133353   5.843   6.291  -1.301  0.5707  0.2024 -0.2350
   17HTM    C8233354   5.868   6.414  -1.247  1.0943 -0.0101  0.0198
   17HTM    C8333355   5.916   6.511  -1.342  1.2077  0.0712  0.1581
   17HTM    C8433356   5.927   6.462  -1.469  0.7706  0.3457  0.0090
   17HTM     S933357   5.878   6.289  -1.478  0.1773  0.5242 -0.3202
   18TAL    C8533358   5.985   6.635  -1.287  0.4360  0.2163  0.6114
   18TAL    C8633359   5.994   6.760  -1.368 -0.2250  0.2955  0.3082
   18TAL    C8733360   5.871   6.857  -1.343 -0.0223  0.1540 -1.1057
   18TAL    C8833361   5.859   6.970  -1.448 -0.3830 -0.5481 -1.0281
   18TAL    C8933362   5.980   7.077  -1.479  0.1697  0.0300 -0.1461
   18TAL    C9033363   5.958   7.182  -1.598  1.3933 -0.0233 -0.6521
   19HTM    C9133364   5.983   6.504  -1.594  0.4432  0.2276  0.3891
   19HTM    C9233365   6.082   6.454  -1.674  0.5723  0.0114  0.6835
   19HTM    C9333366   6.110   6.534  -1.790  0.5302 -0.4754  0.3325
   19HTM    C9433367   6.031   6.645  -1.800  0.3688 -0.6306 -0.2298
   19HTM    S1033368   5.916   6.658  -1.661  0.2568 -0.1702 -0.3604
   20TAL    C9533369   6.218   6.497  -1.895  0.5048  0.7703 -0.1141
   20TAL    C9633370   6.313   6.377  -1.861  1.0130  0.0177  0.3342
   20TAL    C9733371   6.416   6.436  -1.761 -0.0795 -0.7726  0.5083
   20TAL    C9833372   6.541   6.349  -1.740  0.0144 -0.8731  0.1784
   20TAL    C9933373   6.505   6.241  -1.656  0.2313  0.1542  0.0000
   20TAL   C10033374   6.614   6.133  -1.624  0.2211 -0.6436 -0.0220
   21HTM   C10133375   6.008   6.736  -1.913  0.0202 -0.1844  0.4403
   21HTM   C10233376   5.994   6.697  -2.043 -0.5728 -0.6309  0.6254
   21HTM   C10333377   5.942   6.800  -2.129 -0.4412 -0.7397  0.4125
   21HTM   C10433378   5.915   6.917  -2.064  0.2520 -0.3763  0.0650
   21HTM    S1133379   5.954   6.906  -1.888  0.7966  0.1356 -0.0210
   22TAL   C10533380   5.906   6.769  -2.275 -0.8144 -1.5218  0.2579
   22TAL   C10633381   6.000   6.705  -2.372 -0.3007  1.1731 -0.5226
   22TAL   C10733382   6.151   6.727  -2.403 -0.1366 -0.3306  0.0188
   22TAL   C10833383   6.231   6.609  -2.438 -0.9284 -0.3964  0.4784
   22TAL   C10933384   6.171   6.512  -2.542  0.3344 -0.0952  0.0416
   22TAL   C11033385   6.270   6.417  -2.615 -1.6869  0.2276 -0.9298
   23HTM   C11133386   5.857   7.043  -2.119 -0.2209 -0.4121  0.4313
   23HTM   C11233387   5.772   7.057  -2.225 -1.0722 -1.0148  1.0066
   23HTM   C11333388   5.721   7.191  -2.241 -1.2850 -1.1292  0.7144
   23HTM   C11433389   5.768   7.279  -2.148 -0.5961 -0.6138 -0.0838
   23HTM    S1233390   5.879   7.199  -2.031  0.3825  0.0614 -0.5317
   24TAL   C11533391   5.625   7.230  -2.350 -0.7811 -0.3060  0.4738
   24TAL   C11633392   5.693   7.259  -2.481 -0.6281 -0.1959 -1.1377
   24TAL   C11733393   5.613   7.208  -2.608 -0.5300  1.1766  0.1424
   24TAL   C11833394   5.619   7.318  -2.718  0.2505  0.1245 -0.4825
   24TAL   C11933395   5.532   7.292  -2.838  0.8293 -0.7719 -0.1424
   24TAL   C12033396   5.581   7.395  -2.939 -0.3079  0.0069 -0.6332
   25HTM   C12133397   5.739   7.422  -2.125  0.0544  0.1575 -0.8035
   25HTM   C12233398   5.738   7.489  -2.006  0.0079 -0.1042 -0.6545
   25HTM   C12333399   5.707   7.629  -2.019 -0.1780 -0.1147 -0.3356
   25HTM   C12433400   5.684   7.668  -2.148 -0.2736  0.1389 -0.2418
   25HTM    S1333401   5.700   7.531  -2.263 -0.1349  0.4128 -0.5510
   26TAL   C12533402   5.687   7.736  -1.899 -0.0815  0.3542 -0.1067
   26TAL   C12633403   5.660   7.659  -1.771  0.5499 -0.5290  0.2192
   26TAL   C12733404   5.724   7.723  -1.658  0.0457 -0.7530 -1.5352
   26TAL   C12833405   5.723   7.643  -1.519  0.3401  0.7384  0.1097
   26TAL   C12933406   5.816   7.721  -1.424 -0.2003 -0.2310  1.1529
   26TAL   C13033407   5.787   7.690  -1.274  0.8169 -0.9325  0.4628
   27HTM   C13133408   5.653   7.800  -2.202 -0.2910  0.2301  0.1610
   27HTM   C13233409   5.742   7.887  -2.259 -0.2822  0.4125  0.4476
   27HTM   C13333410   5.680   8.004  -2.316 -0.3518  0.2422  0.1689
   27HTM   C13433411   5.544   8.006  -2.302 -0.4138 -0.0698 -0.3300
   27HTM    S1433412   5.484   7.860  -2.216 -0.3888 -0.1740 -0.4878
   28TAL   C13533413   5.770   8.103  -2.389 -0.1276 -0.5061  0.0413
   28TAL   C13633414   5.901   8.138  -2.327  0.1664  0.5791  0.1004
   28TAL   C13733415   5.915   8.246  -2.220  0.7321  0.4700  1.1721
   28TAL   C13833416   6.056   8.265  -2.180 -0.8117  0.5866 -0.9881
   28TAL   C13933417   6.093   8.340  -2.040 -1.4632 -0.1017  0.6896
   28TAL   C14033418   6.000   8.454  -1.983 -0.2717 -0.2095 -0.4236
   29HTM   C14133419   5.453   8.109  -2.348  0.0003 -0.1763  0.2244
   29HTM   C14233420   5.343   8.148  -2.278 -0.2503 -0.1450 -0.1794
   29HTM   C14333421   5.279   8.266  -2.331 -0.1178 -0.2210 -0.5097
   29HTM   C14433422   5.341   8.316  -2.442  0.2338 -0.3100 -0.3576
   29HTM    S1533423   5.485   8.218  -2.488  0.4261 -0.3051  0.2190
   30TAL   C14533424   5.148   8.323  -2.288  0.8773  0.1449  0.1128
   30TAL   C14633425   5.033   8.222  -2.253 -0.0904  0.3951  0.0680
   30TAL   C14733426   4.940   8.180  -2.373 -0.4614 -0.2723 -0.4230
   30TAL   C14833427   4.799   8.100  -2.368 -0.5330  0.7142 -0.2689
   30TAL   C14933428   4.732   8.116  -2.219  0.5827  0.1967 -1.8271
   30TAL   C15033429   4.624   8.006  -2.180 -0.2607  0.4512  0.6504
   31HTM   C15133430   5.308   8.427  -2.520 -0.1784  0.3476  0.5648
   31HTM   C15233431   5.190   8.444  -2.586  0.0057 -0.0830  0.1180
   31HTM   C15333432   5.199   8.533  -2.699  0.3216 -0.8230 -0.4601
   31HTM   C15433433   5.324   8.585  -2.719  0.3784 -0.9566 -0.4541
   31HTM    S1633434   5.441   8.524  -2.596  0.0344 -0.1520  0.2880
   32TAL   C15533435   5.076   8.567  -2.788 -0.4641  0.2604  0.0335
   32TAL   C15633436   4.940   8.522  -2.733 -0.5260  0.6624  0.6320
   32TAL   C15733437   4.863   8.421  -2.830 -0.4773 -0.5650 -0.3514
   32TAL   C15833438   4.793   8.308  -2.758  0.7522 -0.3276 -0.4077
   32TAL   C15933439   4.879   8.183  -2.730 -0.3419  0.8205  1.4623
   32TAL   C16033440   4.910   8.083  -2.841  0.0110  1.0061  0.4036
   33HTM   C16133441   5.373   8.685  -2.809 -0.6568  0.3962 -0.4385
   33HTM   C16233442   5.356   8.692  -2.945 -1.0680  0.7319 -0.3729
   33HTM   C16333443   5.409   8.813  -3.003 -0.7360  0.6216 -0.3043
   33HTM   C16433444   5.466   8.897  -2.912 -0.0718  0.2011 -0.3177
   33HTM    S1733445   5.457   8.830  -2.745  0.1880 -0.0895 -0.4186
   34TAL   C16533446   5.415   8.842  -3.155 -0.5670  0.3786  0.7710
   34TAL   C16633447   5.285   8.806  -3.232 -0.0935  0.5639  0.0434
   34TAL   C16733448   5.279   8.815  -3.388 -1.1393  0.7757  0.4468
   34TAL   C16833449   5.275   8.957  -3.431  0.9199 -0.8843 -0.2740
   34TAL   C16933450   5.131   9.023  -3.459  0.6026 -0.0831 -0.0278
   34TAL   C17033451   5.050   9.083  -3.348 -0.3197  0.2732 -0.2751
   35HTM   C17133452   5.525   9.030  -2.930 -0.6966  0.1484 -0.2369
   35HTM   C17233453   5.657   9.063  -2.918 -0.5041 -0.4745 -0.5596
   35HTM   C17333454   5.690   9.191  -2.976 -0.0274 -0.6454 -0.6764
   35HTM   C17433455   5.583   9.256  -3.031  0.1431 -0.1530 -0.4425
   35HTM    S1833456   5.432   9.159  -3.015 -0.2881  0.5706 -0.0539
   36TAL   C17533457   5.835   9.247  -2.981  0.0263  0.7087  2.2768
   36TAL   C17633458   5.914   9.210  -3.107  0.2398 -0.1535  0.2831
   36TAL   C17733459   6.051   9.287  -3.104 -0.2795  0.7410  0.5929
   36TAL   C17833460   6.043   9.442  -3.095  0.8922  1.3388 -0.8227
   36TAL   C17933461   6.114   9.554  -3.172 -1.0131  0.6689 -0.3837
   36TAL   C18033462   6.176   9.503  -3.297 -0.3984 -0.3005 -0.0767
   37HTM   C18133463   5.563   9.385  -3.097  0.4996 -0.1940  0.2161
   37HTM   C18233464   5.494   9.490  -3.046 -0.0963 -0.6011  0.2651
   37HTM   C18333465   5.501   9.609  -3.127 -0.6849 -0.4876  0.3679
   37HTM   C18433466   5.577   9.594  -3.239 -0.5377  0.0055  0.3972
   37HTM    S1933467   5.644   9.428  -3.252  0.3627  0.3680  0.2965
   38TAL   C18533468   5.430   9.729  -3.060 -0.6676  0.5207 -1.1797
   38TAL   C18633469   5.509   9.782  -2.934  0.2210 -0.9672  0.1250
   38TAL   C18733470   5.655   9.810  -2.943 -2.0875 -0.5363 -0.8775
   38TAL   C18833471   5.698   9.927  -2.852 -0.3480 -0.6925 -1.4110
   38TAL   C18933472   5.642  10.064  -2.895 -0.7750  0.1668 -0.8725
   38TAL   C19033473   5.709  10.161  -2.808  0.3912 -1.4488 -0.6843
   39HTM   C19133474   5.601   9.701  -3.341 -0.0392 -0.1949  0.5724
   39HTM   C19233475   5.681   9.687  -3.451  0.6564 -0.5581  1.1063
   39HTM   C19333476   5.733   9.812  -3.500  0.7936 -0.6952  0.9022
   39HTM   C19433477   5.694   9.921  -3.428  0.2028 -0.4365  0.2131
   39HTM    S2033478   5.586   9.874  -3.291 -0.5788  0.0036 -0.2355
   40TAL   C19533479   5.825   9.802  -3.620 -1.5040  0.4318 -1.0274
   40TAL   C19633480   5.778   9.751  -3.761 -0.0763  0.1205  0.1898
   40TAL   C19733481   5.693   9.847  -3.844 -0.1354  0.0792 -0.5031
   40TAL   C19833482   5.604   9.771  -3.950  0.2596  0.3237 -0.6447
   40TAL   C19933483   5.671   9.724  -4.074 -0.8856 -0.2509 -0.0602
   40TAL   C20033484   5.593   9.666  -4.183  0.7385  0.7473 -0.0217
   41HTM   C20133485   5.722  10.066  -3.448 -0.1358  0.6849  0.3683
   41HTM   C20233486   5.800  10.158  -3.385 -0.4325  0.9930  0.2922
   41HTM   C20333487   5.803  10.286  -3.450 -0.4545  0.8015 -0.0902
   41HTM   C20433488   5.728  10.292  -3.564 -0.1744  0.3473 -0.3061
   41HTM    S2133489   5.646  10.135  -3.597  0.1414  0.1245 -0.0406
   42TAL   C20533490   5.889  10.400  -3.405  0.2723 -0.0585  0.1341
   42TAL   C20633491   6.035  10.361  -3.386 -0.1125 -0.0973 -0.2597
   42TAL   C20733492   6.155  10.458  -3.366 -0.1342  0.5974 -0.4085
   42TAL   C20833493   6.139  10.574  -3.272 -0.6261 -0.3810 -0.6268
   42TAL   C20933494   6.247  10.673  -3.273 -0.6852  0.0287 -1.1119
   42TAL   C21033495   6.225  10.750  -3.137  0.6154  1.3342 -0.4956
   43HTM   C21133496   5.706  10.393  -3.661  0.2868 -0.1222  0.1378
   43HTM   C21233497   5.671  10.523  -3.641  1.4309  0.1442  0.5407
   43HTM   C21333498   5.671  10.602  -3.761  1.4764  0.3532  0.6772
   43HTM   C21433499   5.706  10.532  -3.873  0.3669  0.2461  0.3784
   43HTM    S2233500   5.742  10.360  -3.835 -0.8304 -0.1298 -0.1023
   44TAL   C21533501   5.633  10.745  -3.760 -0.7066 -1.2226  0.1876
   44TAL   C21633502   5.497  10.779  -3.697 -0.1151  0.6745 -0.2636
   44TAL   C21733503   5.394  10.843  -3.779  0.1370 -0.4963 -0.3235
   44TAL   C21833504   5.331  10.755  -3.882  0.1722  0.2768  0.0852
   44TAL   C21933505   5.238  10.851  -3.959  0.9815 -0.1019 -0.4053
   44TAL   C22033506   5.222  10.836  -4.115  0.0030 -0.5832 -0.0987
   45HTM   C22133507   5.710  10.568  -4.014  0.6340  0.3037  0.8901
   45HTM   C22233508   5.615  10.630  -4.090  0.6945  0.8708  1.2571
   45HTM   C22333509   5.659  10.660  -4.224  0.3692  0.6192  1.0896
   45HTM   C22433510   5.788  10.622  -4.250  0.0609 -0.1398  0.5949
   45HTM    S2333511   5.863  10.544  -4.105  0.1580 -0.5991  0.2997
   46TAL   C22533512   5.576  10.742  -4.321 -0.1330  0.3611  0.4580
   46TAL   C22633513   5.559  10.888  -4.296  0.9574 -1.1286 -0.3537
   46TAL   C22733514   5.442  10.971  -4.367 -0.3172 -0.1240  0.3789
   46TAL   C22833515   5.406  10.926  -4.514 -0.0275  0.4925  0.3129
   46TAL   C22933516   5.272  10.988  -4.553 -0.4538  0.4025  0.1784
   46TAL   C23033517   5.215  10.927  -4.678  0.2518 -0.0318 -0.0554
   47HTM   C23133518   5.883  10.645  -4.356  0.2135 -1.3635 -0.1078
   47HTM   C23233519   6.016  10.675  -4.352  0.2309 -1.4698  0.2421
   47HTM   C23333520   6.074  10.695  -4.482  0.3605 -0.5273  0.4308
   47HTM   C23433521   5.986  10.680  -4.585  0.4420  0.2978  0.2248
   47HTM    S2433522   5.821  10.639  -4.525  0.3606 -0.0544 -0.2270
   48TAL   C23533523   6.219  10.720  -4.513 -0.0910  0.2478 -1.1154
   48TAL   C23633524   6.287  10.697  -4.646 -0.5677 -1.0112 -0.4400
   48TAL   C23733525   6.278  10.578  -4.739  0.5838 -0.4912 -0.4284
   48TAL   C23833526   6.290  10.438  -4.679 -0.2841 -0.5145 -1.1246
   48TAL   C23933527   6.262  10.320  -4.769  0.3290 -1.0594  1.9124
   48TAL   C24033528   6.113  10.301  -4.810  0.3277  0.0466 -0.1380
    1HTM     C133529   8.630   5.562   8.680  0.1926  0.1914 -0.1007
    1HTM     C233530   8.539   5.479   8.739  0.2060  0.0393 -0.2937
    1HTM     C333531   8.581   5.430   8.868  0.1814 -0.1962 -0.3741
    1HTM     C433532   8.703   5.476   8.907  0.1499 -0.2234 -0.2428
    1HTM     S133533   8.776   5.585   8.783  0.1479  0.0482 -0.0051
    2TAL     C533534   8.487   5.343   8.951 -0.8425  0.3090 -0.3447
    2TAL     C633535   8.344   5.386   8.967  1.2503  1.3511  0.2237
    2TAL     C733536   8.252   5.271   9.014 -0.4862 -1.1879 -0.0044
    2TAL     C833537   8.113   5.336   9.006  0.3891  1.1940 -0.5506
    2TAL     C933538   7.996   5.241   9.014  0.8622  0.1514 -0.2004
    2TAL    C1033539   7.869   5.284   8.939 -0.0588 -0.8304 -0.8486
    3HTM    C1133540   8.783   5.466   9.029 -0.3971 -0.4061  0.6079
    3HTM    C1233541   8.917   5.448   9.044 -0.4873 -1.2364  0.5028
    3HTM    C1333542   8.959   5.441   9.181 -0.4015 -1.3379  0.4714
    3HTM    C1433543   8.858   5.454   9.271 -0.2454 -0.5851  0.5522
    3HTM     S233544   8.699   5.476   9.188 -0.1949  0.3175  0.6761
    4TAL    C1533545   9.112   5.422   9.207 -0.6703 -0.7148 -0.6240
    4TAL    C1633546   9.214   5.491   9.122  0.1453  0.2502  0.6882
    4TAL    C1733547   9.218   5.641   9.093  1.0680  0.6441  0.7948
    4TAL    C1833548   9.347   5.689   9.056 -0.1527 -0.1019  0.0453
    4TAL    C1933549   9.360   5.772   8.930 -0.1208  0.0964 -0.0400
    4TAL    C2033550   9.505   5.757   8.887 -0.2089  0.6186  0.5592
    5HTM    C2133551   8.854   5.446   9.418 -0.2656 -0.2431 -0.2355
    5HTM    C2233552   8.785   5.520   9.510 -0.2530 -0.3301 -0.1552
    5HTM    C2333553   8.805   5.478   9.646  0.0832 -0.2021 -0.1650
    5HTM    C2433554   8.890   5.372   9.658  0.3276 -0.0176 -0.2521
    5HTM     S333555   8.952   5.317   9.498  0.1497  0.0089 -0.3301
    6TAL    C2533556   8.720   5.544   9.754 -0.8673  0.2779 -0.3187
    6TAL    C2633557   8.576   5.588   9.729 -0.2276  0.7453  0.0165
    6TAL    C2733558   8.472   5.645   9.831 -0.9231 -0.8824  0.6440
    6TAL    C2833559   8.324   5.660   9.788 -0.0971 -0.5321  0.6007
    6TAL    C2933560   8.238   5.542   9.826 -0.0157 -0.9374  0.2360
    6TAL    C3033561   8.095   5.539   9.771 -0.4756 -0.5755 -0.2130
    7HTM    C3133562   8.935   5.284   9.764 -0.0216 -0.2825 -0.2851
    7HTM    C3233563   8.990   5.323   9.883  0.2966 -0.1940 -0.4567
    7HTM    C3333564   9.033   5.213   9.965  0.2878 -0.1427 -0.3834
    7HTM    C3433565   9.011   5.090   9.909 -0.0374 -0.1921 -0.1559
    7HTM     S433566   8.934   5.105   9.746 -0.3602 -0.3081 -0.0156
    8TAL    C3533567   9.083   5.235  10.101 -0.3430 -0.1078 -0.5073
    8TAL    C3633568   9.206   5.332  10.099  0.1166  0.2528  0.5237
    8TAL    C3733569   9.230   5.420  10.227 -0.0273  0.3669  0.0036
    8TAL    C3833570   9.379   5.449  10.276  1.1794 -0.1589  0.4458
    8TAL    C3933571   9.488   5.343  10.313 -0.0951  0.2114  0.2621
    8TAL    C4033572   9.484   5.272  10.444  0.1934 -0.9887  0.2523
    9HTM    C4133573   9.041   4.962   9.956  0.6415 -0.2368  0.4178
    9HTM    C4233574   9.094   4.917  10.073  0.6709 -0.8879  0.1597
    9HTM    C4333575   9.127   4.776  10.071  0.1321 -1.0160 -0.4323
    9HTM    C4433576   9.099   4.715   9.952 -0.3083 -0.4625 -0.6257
    9HTM     S533577   9.029   4.831   9.833 -0.0748  0.2692 -0.0708
   10TAL    C4533578   9.195   4.713  10.188  0.3889 -0.0308 -0.8039
   10TAL    C4633579   9.296   4.786  10.279  0.9141 -0.0196 -0.3831
   10TAL    C4733580   9.429   4.830  10.221 -0.8707  1.0285 -0.8780
   10TAL    C4833581   9.450   4.963  10.156 -0.1644 -0.6379 -0.5151
   10TAL    C4933582   9.588   4.999  10.093 -0.0961  0.5367 -0.0040
   10TAL    C5033583   9.654   4.874  10.028 -0.0510  0.1512 -0.3661
   11HTM    C5133584   9.107   4.573   9.912  0.2362 -0.0618  0.3430
   11HTM    C5233585   9.177   4.469   9.965 -0.0801 -0.3067  0.2836
   11HTM    C5333586   9.131   4.340   9.920 -0.3560 -0.1364  0.0665
   11HTM    C5433587   9.026   4.346   9.834 -0.2501  0.2385 -0.0397
   11HTM     S633588   8.977   4.516   9.801  0.2100  0.4067  0.1275
   12TAL    C5533589   9.174   4.214   9.988 -0.2971 -0.0969  0.5522
   12TAL    C5633590   9.120   4.181  10.123 -0.7026 -1.7420 -0.2752
   12TAL    C5733591   9.117   4.028  10.165 -0.1465 -0.6248  0.4761
   12TAL    C5833592   9.064   4.005  10.311  0.4197  0.2935  0.7650
   12TAL    C5933593   9.151   3.911  10.396  0.0538  1.2593  0.2903
   12TAL    C6033594   9.141   3.957  10.541 -0.8668  0.5040  0.7966
   13HTM    C6133595   8.949   4.239   9.753 -0.2855 -0.3475 -0.0924
   13HTM    C6233596   8.818   4.201   9.753 -0.2005 -0.6503 -0.4499
   13HTM    C6333597   8.787   4.101   9.654  0.2134 -0.4292 -0.8118
   13HTM    C6433598   8.894   4.062   9.579  0.4440  0.0417 -0.7305
   13HTM     S733599   9.044   4.151   9.628  0.1542  0.2445 -0.1858
   14TAL    C6533600   8.646   4.039   9.649 -0.3041  0.3176 -0.2666
   14TAL    C6633601   8.605   3.970   9.775  0.0224 -0.9365 -0.0411
   14TAL    C6733602   8.704   3.887   9.844 -0.1002  0.8725  0.0273
   14TAL    C6833603   8.691   3.861   9.995 -0.5043 -0.5755  0.9287
   14TAL    C6933604   8.719   3.987  10.074 -1.1330 -0.6416  0.1005
   14TAL    C7033605   8.656   3.980  10.198 -0.2798 -0.4347 -0.9906
   15HTM    C7133606   8.911   3.982   9.461 -0.1895 -0.6276 -0.1895
   15HTM    C7233607   8.874   3.851   9.455 -0.1345 -0.6296 -0.5031
   15HTM    C7333608   8.907   3.787   9.330  0.0837 -0.3740 -0.5777
   15HTM    C7433609   8.969   3.870   9.241  0.1951 -0.1770 -0.3201
   15HTM     S833610   8.990   4.036   9.308  0.0320 -0.2999  0.0386
   16TAL    C7533611   8.849   3.657   9.296  0.0725 -0.3740  0.0425
   16TAL    C7633612   8.904   3.550   9.205  0.2779  0.4675  0.9357
   16TAL    C7733613   9.039   3.477   9.236  0.3672 -0.4254 -1.0870
   16TAL    C7833614   9.038   3.352   9.162  0.3965  0.4145  0.6076
   16TAL    C7933615   8.943   3.242   9.214 -0.0702  0.1461 -0.6770
   16TAL    C8033616   8.911   3.162   9.094  0.2162  0.4289  0.7228
   17HTM    C8133617   9.019   3.858   9.102  0.1825  0.2078 -0.5138
   17HTM    C8233618   8.944   3.842   8.989  0.2525  0.1500 -0.5529
   17HTM    C8333619   9.021   3.810   8.872  0.3164 -0.0126 -0.4668
   17HTM    C8433620   9.155   3.802   8.896  0.2944 -0.0790 -0.3624
   17HTM     S933621   9.194   3.834   9.069  0.1911  0.0598 -0.3645
   18TAL    C8533622   8.944   3.805   8.744  0.7491 -0.2040 -0.7411
   18TAL    C8633623   8.896   3.932   8.659 -0.7561  0.0991 -0.4598
   18TAL    C8733624   8.875   4.070   8.733  0.0118  0.0962  0.8215
   18TAL    C8833625   8.738   4.126   8.772  0.2674  0.6780  0.2659
   18TAL    C8933626   8.657   4.050   8.866  1.2602 -0.6938 -1.8725
   18TAL    C9033627   8.623   4.144   8.995 -0.3720 -0.1849  0.0447
   19HTM    C9133628   9.271   3.787   8.804  0.5333  0.2197  0.5857
   19HTM    C9233629   9.288   3.831   8.676  0.4253  0.3402  0.6120
   19HTM    C9333630   9.411   3.786   8.615  0.2594  0.1925  0.3824
   19HTM    C9433631   9.488   3.709   8.697  0.2412 -0.0405  0.1809
   19HTM    S1033632   9.410   3.686   8.858  0.4334 -0.0920  0.2664
   20TAL    C9533633   9.443   3.842   8.473 -0.7467 -0.4130 -0.5090
   20TAL    C9633634   9.449   3.988   8.444 -0.4543 -0.9319  0.4386
   20TAL    C9733635   9.543   4.081   8.539  0.7575  0.5200 -0.9975
   20TAL    C9833636   9.686   4.044   8.574 -0.6062  0.6224 -0.0412
   20TAL    C9933637   9.790   4.162   8.607  0.7860  0.6181  0.2771
   20TAL   C10033638   9.797   4.260   8.500 -0.3197 -0.5740  0.3150
   21HTM   C10133639   9.602   3.626   8.665 -0.8916 -0.1150 -0.1694
   21HTM   C10233640   9.693   3.570   8.751 -1.2453 -0.0052  0.2847
   21HTM   C10333641   9.794   3.491   8.685 -0.8659  0.0478  0.7920
   21HTM   C10433642   9.780   3.487   8.549 -0.2226 -0.0214  0.7251
   21HTM    S1133643   9.638   3.583   8.494 -0.0451 -0.1601  0.0103
   22TAL   C10533644   9.905   3.412   8.758  0.7288 -1.1508 -0.2551
   22TAL   C10633645   9.891   3.381   8.913  0.0791 -0.1360  0.5111
   22TAL   C10733646  10.021   3.335   8.979  0.4031 -0.0254 -0.3515
   22TAL   C10833647  10.092   3.200   8.940  1.2920 -1.4398 -0.7344
   22TAL   C10933648  10.165   3.118   9.043  0.1588 -0.4290 -0.7710
   22TAL   C11033649  10.260   3.018   8.974 -0.0112 -0.0168  0.0220
   23HTM   C11133650   9.862   3.434   8.436  0.7645  0.2347  0.2784
   23HTM   C11233651   9.861   3.478   8.307 -0.1655 -0.3914  0.0510
   23HTM   C11333652   9.941   3.398   8.218 -1.0262 -0.9855 -0.2172
   23HTM   C11433653  10.003   3.293   8.279 -0.7524 -0.8126 -0.1943
   23HTM    S1233654   9.964   3.287   8.455  0.6243  0.1216  0.1705
   24TAL   C11533655   9.945   3.442   8.065 -0.6285 -0.0494 -0.7192
   24TAL   C11633656  10.011   3.348   7.961 -0.5611 -0.0462 -0.1895
   24TAL   C11733657   9.922   3.290   7.869  0.2757 -0.3412  0.8511
   24TAL   C11833658   9.983   3.181   7.782 -0.3728  1.0648 -0.0356
   24TAL   C11933659   9.906   3.125   7.669  0.4060 -0.3412 -0.4237
   24TAL   C12033660   9.998   3.036   7.581  0.2706  0.2109 -0.2601
   25HTM   C12133661  10.105   3.203   8.235 -0.5775 -0.5571  0.5983
   25HTM   C12233662  10.238   3.227   8.217 -0.5964 -0.4361  0.6170
   25HTM   C12333663  10.311   3.114   8.167 -0.5423 -0.2778  0.3335
   25HTM   C12433664  10.233   3.003   8.147 -0.4821 -0.2779  0.0986
   25HTM    S1333665  10.061   3.034   8.190 -0.4892 -0.4797  0.2182
   26TAL   C12533666  10.459   3.112   8.146  0.3008 -0.1319  0.4768
   26TAL   C12633667  10.550   3.196   8.239  0.0396  0.4943  0.7529
   26TAL   C12733668  10.677   3.172   8.168  0.8781  0.6184  1.2437
   26TAL   C12833669  10.791   3.236   8.222 -0.2014 -0.1997  0.6378
   26TAL   C12933670  10.919   3.243   8.134 -0.6327 -0.1207 -0.0659
   26TAL   C13033671  10.953   3.114   8.066 -0.6291 -0.3513  0.7530
   27HTM   C13133672  10.277   2.881   8.084 -0.2499  0.2168 -0.3094
   27HTM   C13233673  10.216   2.818   7.979 -0.9324  0.1040  0.1440
   27HTM   C13333674  10.247   2.678   7.971 -1.3453 -0.0029  0.3467
   27HTM   C13433675  10.332   2.634   8.068 -0.9777  0.0284  0.0473
   27HTM    S1433676  10.379   2.768   8.180 -0.0744  0.1967 -0.5179
   28TAL   C13533677  10.194   2.586   7.850 -0.3163 -0.5545 -0.2163
   28TAL   C13633678  10.093   2.636   7.745 -0.4746 -0.5839 -0.9380
   28TAL   C13733679  10.018   2.527   7.673  0.3006 -0.3131 -0.5411
   28TAL   C13833680  10.110   2.486   7.564  0.9819  0.9343  0.7261
   28TAL   C13933681  10.066   2.526   7.424 -0.4033  0.5711  0.8073
   28TAL   C14033682   9.949   2.464   7.357  0.0550  0.1832  0.1391
   29HTM   C14133683  10.388   2.493   8.090 -0.2194  0.3798 -0.1094
   29HTM   C14233684  10.452   2.455   8.204 -0.5418  0.4764  0.1066
   29HTM   C14333685  10.487   2.315   8.206 -0.4443  0.5032  0.2770
   29HTM   C14433686  10.451   2.247   8.093 -0.0475  0.4269  0.1911
   29HTM    S1533687  10.368   2.356   7.975  0.2360  0.3145 -0.1141
   30TAL   C14533688  10.559   2.249   8.329 -0.5487  0.2818  0.0036
   30TAL   C14633689  10.482   2.239   8.455 -0.6486  0.1649  0.0837
   30TAL   C14733690  10.557   2.152   8.559  0.8137 -0.1125 -0.4910
   30TAL   C14833691  10.489   2.139   8.696 -0.6654  0.3338 -1.3048
   30TAL   C14933692  10.557   2.038   8.803  0.0579 -0.4807  0.2151
   30TAL   C15033693  10.707   2.063   8.804  1.3647 -0.1854  0.2215
   31HTM   C15133694  10.458   2.103   8.045  0.4889 -0.2483 -0.2856
   31HTM   C15233695  10.462   2.052   7.918  0.5489 -0.6017 -0.1434
   31HTM   C15333696  10.466   1.908   7.914  0.5629 -0.6158  0.2602
   31HTM   C15433697  10.465   1.850   8.037  0.5136 -0.2732  0.4255
   31HTM    S1633698  10.459   1.973   8.169  0.4450  0.0966  0.0816
   32TAL   C15533699  10.447   1.839   7.771 -0.3127 -0.5220 -0.6248
   32TAL   C15633700  10.322   1.750   7.764 -0.4860 -0.2508 -0.1596
   32TAL   C15733701  10.294   1.658   7.644 -0.5533 -0.5368 -0.0685
   32TAL   C15833702  10.179   1.553   7.686  0.0164  0.4632 -0.0171
   32TAL   C15933703  10.116   1.493   7.553 -0.2534  1.0916 -0.4723
   32TAL   C16033704  10.055   1.599   7.462  0.7144 -0.0327  0.0456
   33HTM   C16133705  10.426   1.714   8.070  0.1217  0.3284 -0.0004
   33HTM   C16233706  10.484   1.598   8.028 -0.1429  0.3444 -0.4270
   33HTM   C16333707  10.415   1.479   8.072 -0.2889  0.3338 -0.6776
   33HTM   C16433708  10.305   1.505   8.148 -0.1355  0.3098 -0.4426
   33HTM    S1733709  10.279   1.682   8.169  0.2078  0.2985  0.1185
   34TAL   C16533710  10.475   1.340   8.072  0.2655 -0.1814  0.1816
   34TAL   C16633711  10.599   1.319   8.170  0.7748  0.1397  0.2138
   34TAL   C16733712  10.620   1.173   8.202  0.1802  0.5003  0.1835
   34TAL   C16833713  10.704   1.136   8.322  0.5015 -0.0868  0.0983
   34TAL   C16933714  10.725   0.984   8.342 -0.8747  1.2057  1.0234
   34TAL   C17033715  10.612   0.909   8.415 -0.7784  0.4741  0.4262
   35HTM   C17133716  10.195   1.415   8.197 -0.0447 -0.5126  0.4476
   35HTM   C17233717  10.140   1.418   8.322 -0.6122 -0.1157  0.1945
   35HTM   C17333718  10.013   1.350   8.330 -0.9728  0.4723 -0.3035
   35HTM   C17433719   9.972   1.295   8.212 -0.6804  0.5239 -0.4304
   35HTM    S1833720  10.091   1.326   8.080  0.0791 -0.1717  0.0730
   36TAL   C17533721   9.934   1.369   8.455  0.0015  0.1845 -0.5798
   36TAL   C17633722   9.816   1.264   8.483  0.4578  1.0197  0.6874
   36TAL   C17733723   9.849   1.111   8.516 -0.1543  0.3590 -0.5749
   36TAL   C17833724   9.733   1.021   8.567 -0.7890  1.1793 -0.1707
   36TAL   C17933725   9.779   0.884   8.625 -0.3158 -0.2366 -0.3627
   36TAL   C18033726   9.657   0.797   8.656 -1.2159  0.2584 -0.0633
   37HTM   C18133727   9.856   1.225   8.163  0.2190 -0.3242 -0.3643
   37HTM   C18233728   9.750   1.284   8.100  0.2823 -0.0800 -0.2458
   37HTM   C18333729   9.639   1.194   8.079  0.0422  0.1800 -0.1004
   37HTM   C18433730   9.660   1.068   8.125 -0.2044  0.1342 -0.1079
   37HTM    S1933731   9.824   1.052   8.199 -0.1519 -0.2439 -0.3007
   38TAL   C18533732   9.512   1.239   8.010 -0.3261 -0.6545 -0.2400
   38TAL   C18633733   9.429   1.340   8.084 -1.0648  0.1948 -0.4456
   38TAL   C18733734   9.308   1.369   8.002  1.0361  0.7084  0.7044
   38TAL   C18833735   9.187   1.437   8.084  0.4399  0.7051 -0.2922
   38TAL   C18933736   9.199   1.582   8.093  0.9004 -0.6815 -0.4109
   38TAL   C19033737   9.166   1.631   8.241  0.9850  1.8830 -0.7438
   39HTM   C19133738   9.590   0.936   8.103  0.1059 -0.4698  0.2882
   39HTM   C19233739   9.649   0.817   8.072  0.0813 -0.4227  0.0556
   39HTM   C19333740   9.555   0.711   8.045  0.0572 -0.2998 -0.3643
   39HTM   C19433741   9.425   0.749   8.056  0.0636 -0.2533 -0.4519
   39HTM    S2033742   9.410   0.923   8.101  0.1007 -0.3619 -0.0069
   40TAL   C19533743   9.614   0.575   8.009  0.4427  0.2835 -0.8266
   40TAL   C19633744   9.635   0.529   7.865 -0.3006 -0.5076  0.2474
   40TAL   C19733745   9.516   0.553   7.771  0.2584  0.5872 -0.0081
   40TAL   C19833746   9.517   0.520   7.618  0.8677  0.0688 -0.6922
   40TAL   C19933747   9.565   0.380   7.597 -1.1880  1.2136  1.3479
   40TAL   C20033748   9.537   0.357   7.448  0.1480 -0.9849  1.7525
   41HTM   C20133749   9.309   0.664   8.068  0.4621 -0.2041 -0.2740
   41HTM   C20233750   9.201   0.654   7.985  0.5338 -0.3010 -0.3557
   41HTM   C20333751   9.097   0.568   8.035  0.4237 -0.1199 -0.2711
   41HTM   C20433752   9.125   0.513   8.156  0.2679  0.1150 -0.1249
   41HTM    S2133753   9.287   0.565   8.217  0.2487  0.1260 -0.0826
   42TAL   C20533754   8.968   0.528   7.961 -0.0140 -0.0127 -0.6132
   42TAL   C20633755   8.964   0.496   7.816  0.3466 -0.0146 -0.5203
   42TAL   C20733756   9.051   0.379   7.779 -0.4160 -0.7563 -0.9550
   42TAL   C20833757   9.032   0.313   7.641  0.0832 -0.3476 -0.5239
   42TAL   C20933758   8.899   0.244   7.601 -0.1277 -0.0010  0.5509
   42TAL   C21033759   8.798   0.207   7.703  0.1920 -0.4034 -0.8233
   43HTM   C21133760   9.063   0.410   8.236  0.4820  0.0993  0.3538
   43HTM   C21233761   8.944   0.348   8.211  0.0210  0.9381  0.3707
   43HTM   C21333762   8.912   0.244   8.305 -0.7467  1.2100  0.4184
   43HTM   C21433763   9.005   0.227   8.403 -0.8713  0.5786  0.4380
   43HTM    S2233764   9.143   0.342   8.383 -0.0217 -0.4163  0.3969
   44TAL   C21533765   8.774   0.176   8.302  0.0804 -0.4906  0.3080
   44TAL   C21633766   8.658   0.253   8.346 -0.9421 -0.4005 -0.1983
   44TAL   C21733767   8.515   0.202   8.339 -0.0648 -0.3710 -0.0825
   44TAL   C21833768   8.501   0.049   8.331  1.1809 -0.0383 -0.4599
   44TAL   C21933769   8.404  -0.008   8.444 -0.2534 -1.1671  0.6790
   44TAL   C22033770   8.393  -0.155   8.465 -0.9281 -0.2260  0.0665
   45HTM   C22133771   9.018   0.123   8.506 -0.0641 -0.1005 -0.7720
   45HTM   C22233772   9.105   0.128   8.611  0.5729  0.0484 -1.2903
   45HTM   C22333773   9.091   0.017   8.702  0.8826  0.3480 -0.8724
   45HTM   C22433774   8.995  -0.072   8.666  0.4815  0.4275 -0.0352
   45HTM    S2333775   8.912  -0.023   8.513 -0.3242  0.1277  0.2926
   46TAL   C22533776   9.172   0.002   8.838 -0.1492  0.0111  1.1653
   46TAL   C22633777   9.317   0.018   8.824 -0.7177  0.2740 -0.3223
   46TAL   C22733778   9.402  -0.080   8.747 -0.1770  0.6751 -1.0985
   46TAL   C22833779   9.555  -0.080   8.748  0.2328  0.5091 -0.6870
   46TAL   C22933780   9.619  -0.222   8.706 -0.4243 -1.1171 -0.0928
   46TAL   C23033781   9.671  -0.299   8.829  1.0044 -0.0373  0.2684
   47HTM   C23133782   8.945  -0.202   8.721  0.0678  0.0841 -0.0282
   47HTM   C23233783   8.827  -0.261   8.689 -0.1428  0.4461  0.0694
   47HTM   C23333784   8.808  -0.391   8.748 -0.5574  0.5646  0.2038
   47HTM   C23433785   8.912  -0.430   8.827 -0.6628  0.2930  0.2083
   47HTM    S2433786   9.043  -0.306   8.831 -0.2435 -0.1369  0.0420
   48TAL   C23533787   8.672  -0.471   8.731 -0.0073  0.3313  0.8133
   48TAL   C23633788   8.639  -0.579   8.836 -0.2458  0.5125  0.0283
   48TAL   C23733789   8.747  -0.680   8.885 -0.4074 -0.1179 -0.8735
   48TAL   C23833790   8.728  -0.728   9.034  0.1666  0.0957  0.0819
   48TAL   C23933791   8.679  -0.616   9.130 -0.4666 -0.4973 -0.2611
   48TAL   C24033792   8.649  -0.670   9.270 -1.1173  0.1673 -0.3620
   9.74786   9.74786   9.74732
